<event>
12    7  0.1572140E-007  0.1900123E+04  0.7818608E-02  0.8654795E-01
          2   -1    0    0  501    0  0.00000000000E+00  0.00000000000E+00  0.97134715723E+03  0.97134715723E+03  0.00000000000E+00 0. -1.
         -1   -1    0    0    0  501 -0.00000000000E+00 -0.00000000000E+00 -0.92924207920E+03  0.92924207920E+03  0.00000000000E+00 0.  1.
         24    2    1    2    0    0 -0.58287357123E+03  0.27529961355E+03  0.38940859618E+03  0.75725413551E+03  0.79140973648E+02 0.  0.
        254    2    1    2    0    0  0.58287357123E+03 -0.27529961355E+03 -0.34730351816E+03  0.11433351009E+04  0.87810246670E+03 0.  0.
         23    2    4    4    0    0  0.45210037380E+03 -0.57544285108E+03 -0.15640343117E+03  0.75366009910E+03  0.89511389488E+02 0.  0.
         23    2    4    4    0    0  0.13077319743E+03  0.30014323753E+03 -0.19090008699E+03  0.38967500182E+03  0.90643100309E+02 0.  0.
          2    1    3    3  502    0 -0.52089795894E+03  0.27124425962E+03  0.34910011499E+03  0.68321228201E+03  0.00000000000E+00 0. -1.
         -1    1    3    3    0  502 -0.61975612284E+02  0.40553539371E+01  0.40308481194E+02  0.74041853500E+02  0.00000000000E+00 0.  1.
         13    1    5    5    0    0  0.21276614407E+03 -0.23973073619E+03 -0.10945843402E+03  0.33870548669E+03  0.00000000000E+00 0. -1.
        -13    1    5    5    0    0  0.23933422973E+03 -0.33571211489E+03 -0.46944997151E+02  0.41495461241E+03  0.00000000000E+00 0.  1.
          1    1    6    6  503    0  0.28789284203E+01  0.83097243475E+02 -0.20824849780E+02  0.85715310595E+02  0.00000000000E+00 0. -1.
         -1    1    6    6    0  503  0.12789426901E+03  0.21704599405E+03 -0.17007523721E+03  0.30395969123E+03  0.00000000000E+00 0.  1.
<mgrwt>
<rscale>  0 0.19001228E+04</rscale>
<asrwt>0</asrwt>
<pdfrwt beam="1">  1        2 0.14943802E+00 0.19001228E+04</pdfrwt>
<pdfrwt beam="2">  1       -1 0.14296032E+00 0.19001228E+04</pdfrwt>
<totfact> 0.11143970E+01</totfact>
</mgrwt>
</event>
<event>
12    7  0.1572140E-007  0.3279946E+04  0.7818608E-02  0.8168017E-01
          2   -1    0    0  501    0  0.00000000000E+00  0.00000000000E+00  0.14045276511E+04  0.14045276511E+04  0.00000000000E+00 0. -1.
         -1   -1    0    0    0  501 -0.00000000000E+00 -0.00000000000E+00 -0.19148867995E+04  0.19148867995E+04  0.00000000000E+00 0.  1.
         24    2    1    2    0    0  0.12623930746E+04 -0.81368365291E+03 -0.41473137822E+03  0.15601657984E+04  0.79986502778E+02 0.  0.
        254    2    1    2    0    0 -0.12623930746E+04  0.81368365291E+03 -0.95627770148E+02  0.17592486523E+04  0.91109482947E+03 0.  0.
         23    2    4    4    0    0 -0.85324374650E+03  0.62069122114E+03 -0.47510823346E+03  0.11607583971E+04  0.91376911840E+02 0.  0.
         23    2    4    4    0    0 -0.40914932806E+03  0.19299243178E+03  0.37948046331E+03  0.59849025514E+03  0.97651994800E+02 0.  0.
          4    1    3    3  502    0  0.74781037644E+03 -0.48173477806E+03 -0.28630234682E+03  0.93448263189E+03  0.00000000000E+00 0. -1.
         -3    1    3    3    0  502  0.51458269813E+03 -0.33194887486E+03 -0.12842903140E+03  0.62568316650E+03  0.00000000000E+00 0.  1.
         13    1    5    5    0    0 -0.55116840553E+03  0.44034986874E+03 -0.34848336199E+03  0.78685149281E+03  0.00000000000E+00 0.  1.
        -13    1    5    5    0    0 -0.30207534097E+03  0.18034135239E+03 -0.12662487147E+03  0.37390690429E+03  0.00000000000E+00 0. -1.
          1    1    6    6  503    0 -0.32421979989E+02  0.23876782697E+01  0.62818687392E+02  0.70732406149E+02  0.00000000000E+00 0. -1.
         -1    1    6    6    0  503 -0.37672734808E+03  0.19060475351E+03  0.31666177592E+03  0.52775784900E+03  0.00000000000E+00 0.  1.
<mgrwt>
<rscale>  0 0.32799460E+04</rscale>
<asrwt>0</asrwt>
<pdfrwt beam="1">  1        2 0.21608118E+00 0.32799460E+04</pdfrwt>
<pdfrwt beam="2">  1       -1 0.29459797E+00 0.32799460E+04</pdfrwt>
<totfact> 0.49048830E-01</totfact>
</mgrwt>
</event>
<event>
12    7  0.1572140E-007  0.3624903E+04  0.7818608E-02  0.8084811E-01
         -1   -1    0    0    0  501 -0.00000000000E+00  0.00000000000E+00  0.16978971464E+04  0.16978971464E+04  0.00000000000E+00 0.  1.
          2   -1    0    0  501    0  0.00000000000E+00 -0.00000000000E+00 -0.19347345542E+04  0.19347345542E+04  0.00000000000E+00 0. -1.
         24    2    1    2    0    0  0.14492327571E+04  0.90475407628E+03 -0.10053723222E+03  0.17131834727E+04  0.77681100029E+02 0.  0.
        254    2    1    2    0    0 -0.14492327571E+04 -0.90475407628E+03 -0.13630017559E+03  0.19194482279E+04  0.86420381789E+03 0.  0.
         23    2    4    4    0    0 -0.82359462546E+03 -0.86075206804E+03  0.18364337065E+03  0.12088317127E+04  0.91361875401E+02 0.  0.
         23    2    4    4    0    0 -0.62563813168E+03 -0.44002008233E+02 -0.31994354624E+03  0.71061651523E+03  0.96191009956E+02 0.  0.
          4    1    3    3  502    0  0.82401953184E+03  0.50470171417E+03 -0.19172328413E+02  0.96648827583E+03  0.00000000000E+00 0. -1.
         -3    1    3    3    0  502  0.62521322529E+03  0.40005236211E+03 -0.81364903812E+02  0.74669519690E+03  0.00000000000E+00 0.  1.
         13    1    5    5    0    0 -0.64407049437E+03 -0.71482743153E+03  0.12594747476E+03  0.97039570536E+03  0.00000000000E+00 0. -1.
        -13    1    5    5    0    0 -0.17952413108E+03 -0.14592463651E+03  0.57695895889E+02  0.23843600732E+03  0.00000000000E+00 0.  1.
          3    1    6    6  503    0 -0.40621273512E+03 -0.87379743002E+01 -0.15940897470E+03  0.43645888647E+03  0.00000000000E+00 0. -1.
         -3    1    6    6    0  503 -0.21942539656E+03 -0.35264033933E+02 -0.16053457154E+03  0.27415762876E+03  0.00000000000E+00 0.  1.
<mgrwt>
<rscale>  0 0.36249029E+04</rscale>
<asrwt>0</asrwt>
<pdfrwt beam="1">  1        2 0.29765147E+00 0.36249029E+04</pdfrwt>
<pdfrwt beam="2">  1       -1 0.26121495E+00 0.36249029E+04</pdfrwt>
<totfact> 0.39602257E-01</totfact>
</mgrwt>
</event>
<event>
12    7  0.1572140E-007  0.1163595E+04  0.7818608E-02  0.9145332E-01
         -1   -1    0    0    0  501 -0.00000000000E+00  0.00000000000E+00  0.11619819918E+03  0.11619819918E+03  0.00000000000E+00 0.  1.
          2   -1    0    0  501    0  0.00000000000E+00 -0.00000000000E+00 -0.29130251933E+04  0.29130251933E+04  0.00000000000E+00 0. -1.
         24    2    1    2    0    0 -0.16661543401E+02  0.10933433668E+03 -0.10026765936E+04  0.10119796888E+04  0.80690365213E+02 0.  0.
        254    2    1    2    0    0  0.16661543401E+02 -0.10933433668E+03 -0.17941504005E+04  0.20172437036E+04  0.91545884451E+03 0.  0.
         23    2    4    4    0    0  0.41721620991E+03  0.19153807233E+02 -0.52507658768E+03  0.67717130148E+03  0.91756822526E+02 0.  0.
         23    2    4    4    0    0 -0.40055466651E+03 -0.12848814391E+03 -0.12690738128E+04  0.13400724021E+04  0.91062926658E+02 0.  0.
          4    1    3    3  502    0 -0.39502682169E+02  0.85693548093E+02 -0.54370324376E+03  0.55183064735E+03  0.00000000000E+00 0. -1.
         -1    1    3    3    0  502  0.22841138768E+02  0.23640788588E+02 -0.45897334983E+03  0.46014904147E+03  0.00000000000E+00 0.  1.
         13    1    5    5    0    0  0.78927957568E+02 -0.27844961718E+02 -0.76640020008E+02  0.11348417090E+03  0.00000000000E+00 0. -1.
        -13    1    5    5    0    0  0.33828825234E+03  0.46998768951E+02 -0.44843656767E+03  0.56368713058E+03  0.00000000000E+00 0.  1.
          1    1    6    6  503    0 -0.51850885929E+02  0.12217027755E+02 -0.19174203085E+03  0.19900446360E+03  0.00000000000E+00 0. -1.
         -1    1    6    6    0  503 -0.34870378058E+03 -0.14070517167E+03 -0.10773317820E+04  0.11410679385E+04  0.00000000000E+00 0.  1.
<mgrwt>
<rscale>  0 0.11635949E+04</rscale>
<asrwt>0</asrwt>
<pdfrwt beam="1">  1        2 0.44815768E+00 0.11635949E+04</pdfrwt>
<pdfrwt beam="2">  1       -1 0.17876648E-01 0.11635949E+04</pdfrwt>
<totfact> 0.55577198E+01</totfact>
</mgrwt>
</event>
<event>
12    7  0.1572140E-007  0.1857201E+04  0.7818608E-02  0.8676459E-01
          2   -1    0    0  501    0  0.00000000000E+00  0.00000000000E+00  0.13292694996E+04  0.13292694996E+04  0.00000000000E+00 0. -1.
         -1   -1    0    0    0  501 -0.00000000000E+00 -0.00000000000E+00 -0.64870109466E+03  0.64870109466E+03  0.00000000000E+00 0.  1.
         24    2    1    2    0    0 -0.45929609075E+03 -0.33221903640E+03 -0.18956014537E+03  0.60311889356E+03  0.80603746386E+02 0.  0.
        254    2    1    2    0    0  0.45929609075E+03  0.33221903640E+03  0.87012855033E+03  0.13748517007E+04  0.90098341701E+03 0.  0.
         23    2    4    4    0    0  0.14872045465E+02 -0.10021943455E+03  0.71659382227E+03  0.72946319914E+03  0.91349548357E+02 0.  0.
         23    2    4    4    0    0  0.44442404529E+03  0.43243847095E+03  0.15353472806E+03  0.64538850158E+03  0.91856638607E+02 0.  0.
          4    1    3    3  502    0 -0.86703630098E+02 -0.91205742234E+02 -0.16932926498E+02  0.12697531606E+03  0.00000000000E+00 0. -1.
         -1    1    3    3    0  502 -0.37259246066E+03 -0.24101329417E+03 -0.17262721887E+03  0.47614357750E+03  0.00000000000E+00 0.  1.
         13    1    5    5    0    0 -0.23189883822E+02 -0.71687334567E+02  0.57893504364E+03  0.58381729112E+03  0.00000000000E+00 0.  1.
        -13    1    5    5    0    0  0.38061929287E+02 -0.28532099985E+02  0.13765877862E+03  0.14564590802E+03  0.00000000000E+00 0. -1.
          3    1    6    6  503    0 -0.46341575607E-01  0.21565638185E+02  0.46581655777E+01  0.22063032530E+02  0.00000000000E+00 0. -1.
         -3    1    6    6    0  503  0.44447038686E+03  0.41087283277E+03  0.14887656249E+03  0.62332546905E+03  0.00000000000E+00 0.  1.
<mgrwt>
<rscale>  0 0.18572007E+04</rscale>
<asrwt>0</asrwt>
<pdfrwt beam="1">  1        2 0.20450300E+00 0.18572007E+04</pdfrwt>
<pdfrwt beam="2">  1       -1 0.99800169E-01 0.18572007E+04</pdfrwt>
<totfact> 0.16304757E+01</totfact>
</mgrwt>
</event>
<event>
12    7  0.1572140E-007  0.2830531E+04  0.7818608E-02  0.8293852E-01
         -1   -1    0    0    0  501 -0.00000000000E+00  0.00000000000E+00  0.18746661859E+04  0.18746661859E+04  0.00000000000E+00 0.  1.
          2   -1    0    0  501    0  0.00000000000E+00 -0.00000000000E+00 -0.10684443163E+04  0.10684443163E+04  0.00000000000E+00 0. -1.
         24    2    1    2    0    0 -0.92837738655E+03 -0.19594760928E+03  0.12417139297E+04  0.15647395569E+04  0.79223482804E+02 0.  0.
        254    2    1    2    0    0  0.92837738655E+03  0.19594760928E+03 -0.43549206015E+03  0.13783709453E+04  0.89998505042E+03 0.  0.
         23    2    4    4    0    0  0.47040461903E+03  0.53849291633E+03 -0.31679343643E+03  0.78729184995E+03  0.90638011254E+02 0.  0.
         23    2    4    4    0    0  0.45797276751E+03 -0.34254530704E+03 -0.11869862372E+03  0.59107909536E+03  0.90602376015E+02 0.  0.
          2    1    3    3  502    0 -0.17628380223E+03 -0.17334271530E+02  0.27251174349E+03  0.32502170118E+03  0.00000000000E+00 0. -1.
         -1    1    3    3    0  502 -0.75209358432E+03 -0.17861333775E+03  0.96920218625E+03  0.12397178557E+04  0.00000000000E+00 0.  1.
         13    1    5    5    0    0  0.30363175601E+03  0.31660696029E+03 -0.15077479694E+03  0.46385908416E+03  0.00000000000E+00 0. -1.
        -13    1    5    5    0    0  0.16677286302E+03  0.22188595604E+03 -0.16601863950E+03  0.32343276579E+03  0.00000000000E+00 0.  1.
          1    1    6    6  503    0  0.23079738770E+03 -0.21850809488E+03 -0.92003203414E+02  0.33087431321E+03  0.00000000000E+00 0. -1.
         -1    1    6    6    0  503  0.22717537981E+03 -0.12403721216E+03 -0.26695420309E+02  0.26020478216E+03  0.00000000000E+00 0.  1.
<mgrwt>
<rscale>  0 0.28305310E+04</rscale>
<asrwt>0</asrwt>
<pdfrwt beam="1">  1        2 0.16437605E+00 0.28305310E+04</pdfrwt>
<pdfrwt beam="2">  1       -1 0.28841018E+00 0.28305310E+04</pdfrwt>
<totfact> 0.88513137E-01</totfact>
</mgrwt>
</event>
<event>
12    7  0.1572140E-007  0.1469051E+04  0.7818608E-02  0.8905298E-01
          2   -1    0    0  501    0  0.00000000000E+00  0.00000000000E+00  0.26345145974E+04  0.26345145974E+04  0.00000000000E+00 0. -1.
         -1   -1    0    0    0  501 -0.00000000000E+00 -0.00000000000E+00 -0.20479219809E+03  0.20479219809E+03  0.00000000000E+00 0.  1.
         24    2    1    2    0    0  0.33787103959E+03 -0.24110494854E+03  0.40391044720E+03  0.58473307101E+03  0.80502666895E+02 0.  0.
        254    2    1    2    0    0 -0.33787103959E+03  0.24110494854E+03  0.20258119521E+04  0.22545737245E+04  0.89827622597E+03 0.  0.
         23    2    4    4    0    0 -0.55404245664E+03 -0.10459105074E+03  0.11614859299E+04  0.12943177042E+04  0.91139576335E+02 0.  0.
         23    2    4    4    0    0  0.21617141706E+03  0.34569599928E+03  0.86432602218E+03  0.96025602024E+03  0.93788839064E+02 0.  0.
          2    1    3    3  502    0  0.20271518027E+03 -0.17694362388E+03  0.29752582497E+03  0.40115347047E+03  0.00000000000E+00 0. -1.
         -1    1    3    3    0  502  0.13515585932E+03 -0.64161324659E+02  0.10638462223E+03  0.18357960055E+03  0.00000000000E+00 0.  1.
         13    1    5    5    0    0 -0.31856212407E+03 -0.37102176391E+02  0.56846432727E+03  0.65269448425E+03  0.00000000000E+00 0.  1.
        -13    1    5    5    0    0 -0.23548033257E+03 -0.67488874351E+02  0.59302160267E+03  0.64162321998E+03  0.00000000000E+00 0. -1.
          4    1    6    6  503    0  0.21557930181E+03  0.28556513993E+03  0.72397771463E+03  0.80756771592E+03  0.00000000000E+00 0. -1.
         -4    1    6    6    0  503  0.59211524437E+00  0.60130859347E+02  0.14034830755E+03  0.15268830433E+03  0.00000000000E+00 0.  1.
<mgrwt>
<rscale>  0 0.14690514E+04</rscale>
<asrwt>0</asrwt>
<pdfrwt beam="1">  1        2 0.40530991E+00 0.14690514E+04</pdfrwt>
<pdfrwt beam="2">  1       -1 0.31506494E-01 0.14690514E+04</pdfrwt>
<totfact> 0.30099325E+01</totfact>
</mgrwt>
</event>
<event>
12    7  0.1572140E-007  0.2464279E+04  0.7818608E-02  0.8415823E-01
          2   -1    0    0  501    0  0.00000000000E+00  0.00000000000E+00  0.26326052708E+04  0.26326052708E+04  0.00000000000E+00 0. -1.
         -1   -1    0    0    0  501 -0.00000000000E+00 -0.00000000000E+00 -0.57667870666E+03  0.57667870666E+03  0.00000000000E+00 0.  1.
         24    2    1    2    0    0 -0.16381832931E+03 -0.79583713439E+03  0.17920665519E+04  0.19692673679E+04  0.79487422059E+02 0.  0.
        254    2    1    2    0    0  0.16381832931E+03  0.79583713439E+03  0.26386001223E+03  0.12400166096E+04  0.89879135312E+03 0.  0.
         23    2    4    4    0    0 -0.10381419139E+03  0.57168364162E+03  0.53011520976E+03  0.79188598436E+03  0.91987521803E+02 0.  0.
         23    2    4    4    0    0  0.26763252070E+03  0.22415349277E+03 -0.26625519753E+03  0.44813062520E+03  0.89762311563E+02 0.  0.
          4    1    3    3  502    0 -0.15662044863E+03 -0.59046226360E+03  0.13350349782E+04  0.14681600876E+04  0.00000000000E+00 0. -1.
         -3    1    3    3    0  502 -0.71978806781E+01 -0.20537487079E+03  0.45703157368E+03  0.50110728031E+03  0.00000000000E+00 0.  1.
         13    1    5    5    0    0 -0.92155661887E+02  0.32076958352E+03  0.26033125470E+03  0.42327078082E+03  0.00000000000E+00 0.  1.
        -13    1    5    5    0    0 -0.11658529505E+02  0.25091405811E+03  0.26978395506E+03  0.36861520353E+03  0.00000000000E+00 0. -1.
          1    1    6    6  503    0  0.22697016915E+03  0.15484751540E+03 -0.23622974049E+03  0.36235024631E+03  0.00000000000E+00 0. -1.
         -1    1    6    6    0  503  0.40662351544E+02  0.69305977366E+02 -0.30025457042E+02  0.85780378889E+02  0.00000000000E+00 0.  1.
<mgrwt>
<rscale>  0 0.24642787E+04</rscale>
<asrwt>0</asrwt>
<pdfrwt beam="1">  1        2 0.40501619E+00 0.24642787E+04</pdfrwt>
<pdfrwt beam="2">  1       -1 0.88719802E-01 0.24642787E+04</pdfrwt>
<totfact> 0.36926730E+00</totfact>
</mgrwt>
</event>
<event>
12    7  0.1572140E-007  0.1336820E+04  0.7818608E-02  0.9000866E-01
          2   -1    0    0  501    0  0.00000000000E+00  0.00000000000E+00  0.14976733202E+04  0.14976733202E+04  0.00000000000E+00 0. -1.
         -1   -1    0    0    0  501 -0.00000000000E+00 -0.00000000000E+00 -0.29831064804E+03  0.29831064804E+03  0.00000000000E+00 0.  1.
         24    2    1    2    0    0  0.12904088492E+02  0.63793531312E+02  0.82720711454E+03  0.83357711677E+03  0.79643387167E+02 0.  0.
        254    2    1    2    0    0 -0.12904088492E+02 -0.63793531312E+02  0.37215555760E+03  0.96240685145E+03  0.88515030279E+03 0.  0.
         23    2    4    4    0    0  0.25713571730E+03  0.30871738827E+03  0.11876944344E+03  0.42916313549E+03  0.93003296901E+02 0.  0.
         23    2    4    4    0    0 -0.27003980580E+03 -0.37251091959E+03  0.25338611415E+03  0.53324371596E+03  0.91969863752E+02 0.  0.
          4    1    3    3  502    0  0.35027250462E+02  0.18383443605E+02  0.57513032941E+03  0.57648916302E+03  0.00000000000E+00 0. -1.
         -3    1    3    3    0  502 -0.22123161970E+02  0.45410087707E+02  0.25207678513E+03  0.25708795375E+03  0.00000000000E+00 0.  1.
         13    1    5    5    0    0  0.49486383562E+02  0.10403181257E+03  0.66266788458E+02  0.13290149524E+03  0.00000000000E+00 0.  1.
        -13    1    5    5    0    0  0.20764933374E+03  0.20468557570E+03  0.52502654986E+02  0.29626164025E+03  0.00000000000E+00 0. -1.
          1    1    6    6  503    0 -0.26210161700E+03 -0.36415474355E+03  0.22359127867E+03  0.50129731176E+03  0.00000000000E+00 0. -1.
         -1    1    6    6    0  503 -0.79381887907E+01 -0.83561760370E+01  0.29794835489E+02  0.31946404196E+02  0.00000000000E+00 0.  1.
<mgrwt>
<rscale>  0 0.13368200E+04</rscale>
<asrwt>0</asrwt>
<pdfrwt beam="1">  1        2 0.23041128E+00 0.13368200E+04</pdfrwt>
<pdfrwt beam="2">  1       -1 0.45893947E-01 0.13368200E+04</pdfrwt>
<totfact> 0.66938651E+01</totfact>
</mgrwt>
</event>
<event>
12    7  0.1572140E-007  0.1373698E+04  0.7818608E-02  0.8973081E-01
          2   -1    0    0  501    0  0.00000000000E+00  0.00000000000E+00  0.71826604974E+03  0.71826604974E+03  0.00000000000E+00 0. -1.
         -1   -1    0    0    0  501 -0.00000000000E+00 -0.00000000000E+00 -0.65680570793E+03  0.65680570793E+03  0.00000000000E+00 0.  1.
         24    2    1    2    0    0  0.14569832392E+03  0.12992247538E+02  0.37428243700E+03  0.40915488056E+03  0.76964755247E+02 0.  0.
        254    2    1    2    0    0 -0.14569832392E+03 -0.12992247538E+02 -0.31282209519E+03  0.96591687712E+03  0.90207591154E+03 0.  0.
         23    2    4    4    0    0  0.30888884563E+03  0.32625402952E+02 -0.37610354370E+03  0.49605459420E+03  0.90219448977E+02 0.  0.
         23    2    4    4    0    0 -0.45458716955E+03 -0.45617650490E+02  0.63281448510E+02  0.46986228291E+03  0.89641276353E+02 0.  0.
          2    1    3    3  502    0  0.15451282364E+03  0.16279104483E+02  0.35944584716E+03  0.39158720479E+03  0.00000000000E+00 0. -1.
         -3    1    3    3    0  502 -0.88144997231E+01 -0.32868569447E+01  0.14836589832E+02  0.17567675765E+02  0.00000000000E+00 0.  1.
         13    1    5    5    0    0  0.12640457843E+03 -0.10332129062E+02 -0.96262651774E+02  0.15922113072E+03  0.00000000000E+00 0.  1.
        -13    1    5    5    0    0  0.18248426720E+03  0.42957532014E+02 -0.27984089193E+03  0.33683346349E+03  0.00000000000E+00 0. -1.
          1    1    6    6  503    0 -0.25709677015E+03 -0.79879166350E+01  0.76582709869E+02  0.26837933506E+03  0.00000000000E+00 0. -1.
         -1    1    6    6    0  503 -0.19749039940E+03 -0.37629733855E+02 -0.13301261359E+02  0.20148294786E+03  0.00000000000E+00 0.  1.
<mgrwt>
<rscale>  0 0.13736976E+04</rscale>
<asrwt>0</asrwt>
<pdfrwt beam="1">  1        2 0.11050247E+00 0.13736976E+04</pdfrwt>
<pdfrwt beam="2">  1       -1 0.10104703E+00 0.13736976E+04</pdfrwt>
<totfact> 0.41112157E+01</totfact>
</mgrwt>
</event>
<event>
12    7  0.1572140E-007  0.2637353E+04  0.7818608E-02  0.8355623E-01
          2   -1    0    0  501    0  0.00000000000E+00  0.00000000000E+00  0.21856447674E+04  0.21856447674E+04  0.00000000000E+00 0. -1.
         -1   -1    0    0    0  501 -0.00000000000E+00 -0.00000000000E+00 -0.79560390208E+03  0.79560390208E+03  0.00000000000E+00 0.  1.
         24    2    1    2    0    0  0.22675631072E+03  0.72545529240E+03 -0.38366120820E+03  0.85503712264E+03  0.78668625914E+02 0.  0.
        254    2    1    2    0    0 -0.22675631072E+03 -0.72545529240E+03  0.17737020735E+04  0.21262115468E+04  0.89277807464E+03 0.  0.
         23    2    4    4    0    0 -0.18526421946E+03 -0.80260832527E+03  0.82510586431E+03  0.11693160060E+04  0.89427510561E+02 0.  0.
         23    2    4    4    0    0 -0.41492091258E+02  0.77153032875E+02  0.94859620917E+03  0.95689554085E+03  0.90222635335E+02 0.  0.
          2    1    3    3  502    0  0.15924800317E+02  0.33788024176E+02 -0.39026028673E+02  0.54020928878E+02  0.00000000000E+00 0. -1.
         -1    1    3    3    0  502  0.21083151040E+03  0.69166726822E+03 -0.34463517953E+03  0.80101619377E+03  0.00000000000E+00 0.  1.
         13    1    5    5    0    0 -0.89568002771E+02 -0.27888356680E+03  0.34325238798E+03  0.45124347398E+03  0.00000000000E+00 0. -1.
        -13    1    5    5    0    0 -0.95696216689E+02 -0.52372475848E+03  0.48185347633E+03  0.71807253198E+03  0.00000000000E+00 0.  1.
          1    1    6    6  503    0 -0.37147363855E+02  0.78798230377E+02  0.45427786462E+03  0.46255536537E+03  0.00000000000E+00 0. -1.
         -1    1    6    6    0  503 -0.43447274032E+01 -0.16451975017E+01  0.49431834455E+03  0.49434017548E+03  0.00000000000E+00 0.  1.
<mgrwt>
<rscale>  0 0.26373528E+04</rscale>
<asrwt>0</asrwt>
<pdfrwt beam="1">  1        2 0.33625304E+00 0.26373528E+04</pdfrwt>
<pdfrwt beam="2">  1       -1 0.12240060E+00 0.26373528E+04</pdfrwt>
<totfact> 0.31107870E+00</totfact>
</mgrwt>
</event>
<event>
12    7  0.1572140E-007  0.2002285E+04  0.7818608E-02  0.8605553E-01
         -1   -1    0    0    0  501 -0.00000000000E+00  0.00000000000E+00  0.16313451131E+04  0.16313451131E+04  0.00000000000E+00 0.  1.
          2   -1    0    0  501    0  0.00000000000E+00 -0.00000000000E+00 -0.61439274071E+03  0.61439274071E+03  0.00000000000E+00 0. -1.
         24    2    1    2    0    0 -0.61832404742E+03  0.42695924590E+03  0.69981987651E+03  0.10299046265E+04  0.79604364735E+02 0.  0.
        254    2    1    2    0    0  0.61832404742E+03 -0.42695924590E+03  0.31713249585E+03  0.12158332273E+04  0.90169761633E+03 0.  0.
         23    2    4    4    0    0  0.60714805605E+03 -0.10528927700E+03 -0.15174934839E+03  0.64145559948E+03  0.93396078933E+02 0.  0.
         23    2    4    4    0    0  0.11175991373E+02 -0.32166996890E+03  0.46888184424E+03  0.57437762777E+03  0.80392809055E+02 0.  0.
          2    1    3    3  502    0 -0.15721543188E+03  0.15218008690E+03  0.19793148502E+03  0.29504634150E+03  0.00000000000E+00 0. -1.
         -1    1    3    3    0  502 -0.46110861554E+03  0.27477915900E+03  0.50188839149E+03  0.73485828502E+03  0.00000000000E+00 0.  1.
         13    1    5    5    0    0  0.56785834668E+03 -0.90546978154E+02 -0.16359650260E+03  0.59785087841E+03  0.00000000000E+00 0. -1.
        -13    1    5    5    0    0  0.39289709365E+02 -0.14742298844E+02  0.11847154212E+02  0.43604721076E+02  0.00000000000E+00 0.  1.
          2    1    6    6  503    0  0.44719789180E+01 -0.28299009366E+03  0.44800025102E+03  0.52991283870E+03  0.00000000000E+00 0. -1.
         -2    1    6    6    0  503  0.67040124548E+01 -0.38679875242E+02  0.20881593224E+02  0.44464789073E+02  0.00000000000E+00 0.  1.
<mgrwt>
<rscale>  0 0.20022853E+04</rscale>
<asrwt>0</asrwt>
<pdfrwt beam="1">  1        2 0.94521961E-01 0.20022853E+04</pdfrwt>
<pdfrwt beam="2">  1       -1 0.25097617E+00 0.20022853E+04</pdfrwt>
<totfact> 0.35115123E+00</totfact>
</mgrwt>
</event>
<event>
12    7  0.1572140E-007  0.2062567E+04  0.7818608E-02  0.8577915E-01
         -1   -1    0    0    0  501 -0.00000000000E+00  0.00000000000E+00  0.37139737734E+03  0.37139737734E+03  0.00000000000E+00 0.  1.
          2   -1    0    0  501    0  0.00000000000E+00 -0.00000000000E+00 -0.28636325873E+04  0.28636325873E+04  0.00000000000E+00 0. -1.
         24    2    1    2    0    0 -0.41021455399E+03 -0.63771484955E+03 -0.15480357737E+04  0.17256390300E+04  0.80368499099E+02 0.  0.
        254    2    1    2    0    0  0.41021455399E+03  0.63771484955E+03 -0.94419943630E+03  0.15093909346E+04  0.90099512121E+03 0.  0.
         23    2    4    4    0    0  0.86426952441E+02  0.20042753851E+03  0.15228670475E+03  0.28210727114E+03  0.93554559956E+02 0.  0.
         23    2    4    4    0    0  0.32378760155E+03  0.43728731104E+03 -0.10964861410E+04  0.12272836635E+04  0.88796001505E+02 0.  0.
          4    1    3    3  502    0 -0.15827379555E+03 -0.24856582178E+03 -0.51488655570E+03  0.59324845331E+03  0.00000000000E+00 0. -1.
         -3    1    3    3    0  502 -0.25194075844E+03 -0.38914902777E+03 -0.10331492180E+04  0.11323905767E+04  0.00000000000E+00 0.  1.
         13    1    5    5    0    0  0.91792063869E+01  0.41419160154E+01 -0.11324387411E+02  0.15154373903E+02  0.00000000000E+00 0. -1.
        -13    1    5    5    0    0  0.77247746054E+02  0.19628562249E+03  0.16361109216E+03  0.26695289724E+03  0.00000000000E+00 0.  1.
          4    1    6    6  503    0  0.38184969379E+02  0.33526207037E+02 -0.58430762270E+02  0.77435472648E+02  0.00000000000E+00 0. -1.
         -4    1    6    6    0  503  0.28560263217E+03  0.40376110400E+03 -0.10380553788E+04  0.11498481909E+04  0.00000000000E+00 0.  1.
<mgrwt>
<rscale>  0 0.20625670E+04</rscale>
<asrwt>0</asrwt>
<pdfrwt beam="1">  1        2 0.44055886E+00 0.20625670E+04</pdfrwt>
<pdfrwt beam="2">  1       -1 0.57138058E-01 0.20625670E+04</pdfrwt>
<totfact> 0.69112322E+00</totfact>
</mgrwt>
</event>
<event>
12    7  0.1572140E-007  0.2276133E+04  0.7818608E-02  0.8487391E-01
         -1   -1    0    0    0  501 -0.00000000000E+00  0.00000000000E+00  0.16594801461E+04  0.16594801461E+04  0.00000000000E+00 0.  1.
          2   -1    0    0  501    0  0.00000000000E+00 -0.00000000000E+00 -0.78048259244E+03  0.78048259244E+03  0.00000000000E+00 0. -1.
         24    2    1    2    0    0  0.21243777071E+03  0.57104365300E+03 -0.41942510663E+03  0.74423528683E+03  0.82146710419E+02 0.  0.
        254    2    1    2    0    0 -0.21243777071E+03 -0.57104365300E+03  0.12984226603E+04  0.16957274517E+04  0.90463778701E+03 0.  0.
         23    2    4    4    0    0  0.15177003568E+03  0.15762491243E+03  0.49098899062E+03  0.54544532876E+03  0.92523840170E+02 0.  0.
         23    2    4    4    0    0 -0.36420780640E+03 -0.72866856543E+03  0.80743366969E+03  0.11502821230E+04  0.87147157222E+02 0.  0.
          4    1    3    3  502    0  0.21742003657E+03  0.56911480231E+03 -0.41377785120E+03  0.73646129610E+03  0.00000000000E+00 0. -1.
         -3    1    3    3    0  502 -0.49822658515E+01  0.19288506937E+01 -0.56472554333E+01  0.77739907347E+01  0.00000000000E+00 0.  1.
         13    1    5    5    0    0  0.74832126819E+02  0.13950280850E+03  0.31620529296E+03  0.35361938306E+03  0.00000000000E+00 0. -1.
        -13    1    5    5    0    0  0.76937908862E+02  0.18122103925E+02  0.17478369767E+03  0.19182594570E+03  0.00000000000E+00 0.  1.
          4    1    6    6  503    0 -0.29344660837E+03 -0.53742377001E+03  0.64708178212E+03  0.89087039084E+03  0.00000000000E+00 0. -1.
         -4    1    6    6    0  503 -0.70761198025E+02 -0.19124479542E+03  0.16035188758E+03  0.25941173214E+03  0.00000000000E+00 0.  1.
<mgrwt>
<rscale>  0 0.22761330E+04</rscale>
<asrwt>0</asrwt>
<pdfrwt beam="1">  1        2 0.12007425E+00 0.22761330E+04</pdfrwt>
<pdfrwt beam="2">  1       -1 0.25530464E+00 0.22761330E+04</pdfrwt>
<totfact> 0.23746824E+00</totfact>
</mgrwt>
</event>
<event>
12    7  0.1572140E-007  0.1458951E+04  0.7818608E-02  0.8912219E-01
          2   -1    0    0  501    0  0.00000000000E+00  0.00000000000E+00  0.10209502450E+04  0.10209502450E+04  0.00000000000E+00 0. -1.
         -1   -1    0    0    0  501 -0.00000000000E+00 -0.00000000000E+00 -0.52121483209E+03  0.52121483209E+03  0.00000000000E+00 0.  1.
         24    2    1    2    0    0  0.57946611290E+02  0.41808847257E+03  0.31209670701E+03  0.53120223626E+03  0.81336834374E+02 0.  0.
        254    2    1    2    0    0 -0.57946611290E+02 -0.41808847257E+03  0.18763870594E+03  0.10109628409E+04  0.89926736902E+03 0.  0.
         23    2    4    4    0    0  0.27110576779E+03 -0.29851588688E+03  0.41269599926E+03  0.58487381235E+03  0.95652059629E+02 0.  0.
         23    2    4    4    0    0 -0.32905237908E+03 -0.11957258569E+03 -0.22505729333E+03  0.42608902852E+03  0.91257895618E+02 0.  0.
          4    1    3    3  502    0  0.59822800089E+02  0.36971145404E+03  0.30344704027E+03  0.48202223280E+03  0.00000000000E+00 0. -1.
         -3    1    3    3    0  502 -0.18761887988E+01  0.48377018528E+02  0.86496667384E+01  0.49180003465E+02  0.00000000000E+00 0.  1.
         13    1    5    5    0    0  0.78856751108E+02 -0.34259733806E+02  0.65572987362E+02  0.10812924316E+03  0.00000000000E+00 0.  1.
        -13    1    5    5    0    0  0.19224901669E+03 -0.26425615307E+03  0.34712301190E+03  0.47674456918E+03  0.00000000000E+00 0. -1.
          3    1    6    6  503    0 -0.17359060591E+03 -0.96081666474E+02 -0.86199335619E+02  0.21632316232E+03  0.00000000000E+00 0. -1.
         -3    1    6    6    0  503 -0.15546177317E+03 -0.23490919215E+02 -0.13885795771E+03  0.20976586620E+03  0.00000000000E+00 0.  1.
<mgrwt>
<rscale>  0 0.14589509E+04</rscale>
<asrwt>0</asrwt>
<pdfrwt beam="1">  1        2 0.15706927E+00 0.14589509E+04</pdfrwt>
<pdfrwt beam="2">  1       -1 0.80186898E-01 0.14589509E+04</pdfrwt>
<totfact> 0.41919933E+01</totfact>
</mgrwt>
</event>
<event>
12    7  0.1572140E-007  0.1622033E+04  0.7818608E-02  0.8807125E-01
          2   -1    0    0  501    0  0.00000000000E+00  0.00000000000E+00  0.30842593824E+04  0.30842593824E+04  0.00000000000E+00 0. -1.
         -1   -1    0    0    0  501 -0.00000000000E+00 -0.00000000000E+00 -0.21325960455E+03  0.21325960455E+03  0.00000000000E+00 0.  1.
         24    2    1    2    0    0 -0.19524428754E+03 -0.38649952156E+03  0.28318354907E+03  0.52375550706E+03  0.81392239977E+02 0.  0.
        254    2    1    2    0    0  0.19524428754E+03  0.38649952156E+03  0.25878162288E+04  0.27737634799E+04  0.89970483852E+03 0.  0.
         23    2    4    4    0    0 -0.29921602753E+03  0.80960878515E+02  0.15207035559E+04  0.15551747719E+04  0.99721468574E+02 0.  0.
         23    2    4    4    0    0  0.49446031507E+03  0.30553864304E+03  0.10671126729E+04  0.12185887080E+04  0.91564824167E+02 0.  0.
          4    1    3    3  502    0 -0.79849380480E+02 -0.82733097327E+02  0.61519135436E+02  0.13040434418E+03  0.00000000000E+00 0. -1.
         -3    1    3    3    0  502 -0.11539490706E+03 -0.30376642423E+03  0.22166441364E+03  0.39335116288E+03  0.00000000000E+00 0.  1.
         13    1    5    5    0    0 -0.24004638336E+03  0.10182455032E+03  0.12902043566E+04  0.13162894009E+04  0.00000000000E+00 0.  1.
        -13    1    5    5    0    0 -0.59169644165E+02 -0.20863671809E+02  0.23049919928E+03  0.23888537096E+03  0.00000000000E+00 0. -1.
          1    1    6    6  503    0  0.29609609258E+03  0.23371932836E+03  0.66815580650E+03  0.76728730098E+03  0.00000000000E+00 0. -1.
         -1    1    6    6    0  503  0.19836422249E+03  0.71819314683E+02  0.39895686643E+03  0.45130140704E+03  0.00000000000E+00 0.  1.
<mgrwt>
<rscale>  0 0.16220332E+04</rscale>
<asrwt>0</asrwt>
<pdfrwt beam="1">  1        2 0.47450141E+00 0.16220332E+04</pdfrwt>
<pdfrwt beam="2">  1       -1 0.32809172E-01 0.16220332E+04</pdfrwt>
<totfact> 0.14717924E+01</totfact>
</mgrwt>
</event>
<event>
12    7  0.1572140E-007  0.1280578E+04  0.7818608E-02  0.9045110E-01
         -1   -1    0    0    0  501 -0.00000000000E+00  0.00000000000E+00  0.13342458452E+04  0.13342458452E+04  0.00000000000E+00 0.  1.
          2   -1    0    0  501    0  0.00000000000E+00 -0.00000000000E+00 -0.30726741857E+03  0.30726741857E+03  0.00000000000E+00 0. -1.
         24    2    1    2    0    0 -0.94334935971E+02 -0.34094047803E+02  0.56337089146E+03  0.57829541079E+03  0.83530452910E+02 0.  0.
        254    2    1    2    0    0  0.94334935971E+02  0.34094047803E+02  0.46360753516E+03  0.10632178530E+04  0.95154546499E+03 0.  0.
         23    2    4    4    0    0  0.48558687044E+03 -0.12837989863E+03  0.33733953539E+03  0.61191571622E+03  0.91470620957E+02 0.  0.
         23    2    4    4    0    0 -0.39125193447E+03  0.16247394643E+03  0.12626799977E+03  0.45130213674E+03  0.90852360240E+02 0.  0.
          4    1    3    3  502    0 -0.20834872296E+02 -0.20934416902E+02  0.40532392088E+02  0.50151934389E+02  0.00000000000E+00 0. -1.
         -3    1    3    3    0  502 -0.73500063676E+02 -0.13159630901E+02  0.52283849937E+03  0.52814347640E+03  0.00000000000E+00 0.  1.
         13    1    5    5    0    0  0.24573652860E+03 -0.59858131206E+02  0.22429529224E+03  0.33805001920E+03  0.00000000000E+00 0. -1.
        -13    1    5    5    0    0  0.23985034185E+03 -0.68521767425E+02  0.11304424315E+03  0.27386569702E+03  0.00000000000E+00 0.  1.
          1    1    6    6  503    0 -0.20298192464E+03  0.11211847950E+03  0.29641298623E+02  0.23377515214E+03  0.00000000000E+00 0. -1.
         -1    1    6    6    0  503 -0.18827000984E+03  0.50355466937E+02  0.96626701152E+02  0.21752698460E+03  0.00000000000E+00 0.  1.
<mgrwt>
<rscale>  0 0.12805784E+04</rscale>
<asrwt>0</asrwt>
<pdfrwt beam="1">  1        2 0.47271911E-01 0.12805784E+04</pdfrwt>
<pdfrwt beam="2">  1       -1 0.20526859E+00 0.12805784E+04</pdfrwt>
<totfact> 0.16644242E+01</totfact>
</mgrwt>
</event>
<event>
12    7  0.1572140E-007  0.1793311E+04  0.7818608E-02  0.8709865E-01
          2   -1    0    0  501    0  0.00000000000E+00  0.00000000000E+00  0.64655459704E+03  0.64655459704E+03  0.00000000000E+00 0. -1.
         -1   -1    0    0    0  501 -0.00000000000E+00 -0.00000000000E+00 -0.12435002632E+04  0.12435002632E+04  0.00000000000E+00 0.  1.
         24    2    1    2    0    0 -0.43649838319E+03  0.41175793642E+03  0.81696161941E+02  0.61092406441E+03  0.80489209596E+02 0.  0.
        254    2    1    2    0    0  0.43649838319E+03 -0.41175793642E+03 -0.67864182811E+03  0.12791307958E+04  0.90307553685E+03 0.  0.
         23    2    4    4    0    0  0.23695472037E+03 -0.64160444395E+03 -0.22697207342E+03  0.72651717112E+03  0.92233810630E+02 0.  0.
         23    2    4    4    0    0  0.19954366282E+03  0.22984650752E+03 -0.45166975470E+03  0.55261362472E+03  0.93429976561E+02 0.  0.
          2    1    3    3  502    0 -0.43357875820E+03  0.41510860268E+03  0.83675829886E+02  0.60605885530E+03  0.00000000000E+00 0. -1.
         -1    1    3    3    0  502 -0.29196249961E+01 -0.33506662599E+01 -0.19796679449E+01  0.48652091091E+01  0.00000000000E+00 0.  1.
         13    1    5    5    0    0  0.78783224740E+02 -0.14125215597E+03 -0.22343228779E+02  0.16327335343E+03  0.00000000000E+00 0.  1.
        -13    1    5    5    0    0  0.15817149563E+03 -0.50035228798E+03 -0.20462884464E+03  0.56324381770E+03  0.00000000000E+00 0. -1.
          3    1    6    6  503    0  0.15989701754E+03  0.15095519395E+03 -0.37938065474E+03  0.43850223259E+03  0.00000000000E+00 0. -1.
         -3    1    6    6    0  503  0.39646645288E+02  0.78891313576E+02 -0.72289099961E+02  0.11411139213E+03  0.00000000000E+00 0.  1.
<mgrwt>
<rscale>  0 0.17933107E+04</rscale>
<asrwt>0</asrwt>
<pdfrwt beam="1">  1        2 0.99469939E-01 0.17933107E+04</pdfrwt>
<pdfrwt beam="2">  1       -1 0.19130773E+00 0.17933107E+04</pdfrwt>
<totfact> 0.84455967E+00</totfact>
</mgrwt>
</event>
<event>
12    7  0.1572140E-007  0.2566393E+04  0.7818608E-02  0.8379707E-01
         -1   -1    0    0    0  501 -0.00000000000E+00  0.00000000000E+00  0.73472148901E+03  0.73472148901E+03  0.00000000000E+00 0.  1.
          2   -1    0    0  501    0  0.00000000000E+00 -0.00000000000E+00 -0.22411120162E+04  0.22411120162E+04  0.00000000000E+00 0. -1.
         24    2    1    2    0    0 -0.10707115202E+04 -0.26223185897E+03 -0.86100661344E+03  0.14010992524E+04  0.80981598704E+02 0.  0.
        254    2    1    2    0    0  0.10707115202E+04  0.26223185897E+03 -0.64538391372E+03  0.15747342528E+04  0.92091197373E+03 0.  0.
         23    2    4    4    0    0  0.65247903721E+03  0.77065268440E+02  0.12292735630E+03  0.67594059521E+03  0.10058132890E+03 0.  0.
         23    2    4    4    0    0  0.41823248301E+03  0.18516659053E+03 -0.76831127002E+03  0.89879365756E+03  0.91229135353E+02 0.  0.
          2    1    3    3  502    0 -0.10420004647E+04 -0.24271950264E+03 -0.84226640849E+03  0.13616498920E+04  0.00000000000E+00 0. -1.
         -1    1    3    3    0  502 -0.28711055500E+02 -0.19512356329E+02 -0.18740204952E+02  0.39449360440E+02  0.00000000000E+00 0.  1.
         13    1    5    5    0    0  0.12632889913E+03  0.25432055378E+02  0.64322078842E+02  0.14402468547E+03  0.00000000000E+00 0. -1.
        -13    1    5    5    0    0  0.52615013808E+03  0.51633213062E+02  0.58605277462E+02  0.53191590974E+03  0.00000000000E+00 0.  1.
          1    1    6    6  503    0  0.40990238397E+03  0.16796175339E+03 -0.75546851658E+03  0.87576469130E+03  0.00000000000E+00 0. -1.
         -1    1    6    6    0  503  0.83300990471E+01  0.17204837144E+02 -0.12842753444E+02  0.23028966266E+02  0.00000000000E+00 0.  1.
<mgrwt>
<rscale>  0 0.25663929E+04</rscale>
<asrwt>0</asrwt>
<pdfrwt beam="1">  1        2 0.34478646E+00 0.25663929E+04</pdfrwt>
<pdfrwt beam="2">  1       -1 0.11303408E+00 0.25663929E+04</pdfrwt>
<totfact> 0.35327533E+00</totfact>
</mgrwt>
</event>
<event>
12    7  0.1572140E-007  0.1549279E+04  0.7818608E-02  0.8852328E-01
          2   -1    0    0  501    0  0.00000000000E+00  0.00000000000E+00  0.16155440924E+04  0.16155440924E+04  0.00000000000E+00 0. -1.
         -1   -1    0    0    0  501 -0.00000000000E+00 -0.00000000000E+00 -0.37143307395E+03  0.37143307395E+03  0.00000000000E+00 0.  1.
         24    2    1    2    0    0 -0.16018685026E+01 -0.42445957028E+03  0.76645495079E+03  0.87972349165E+03  0.79320472617E+02 0.  0.
        254    2    1    2    0    0  0.16018685026E+01  0.42445957028E+03  0.47765606769E+03  0.11072536747E+04  0.90426040961E+03 0.  0.
         23    2    4    4    0    0  0.23088673483E+03 -0.16621589950E+03  0.34037556859E+03  0.45264681097E+03  0.89984433189E+02 0.  0.
         23    2    4    4    0    0 -0.22928486633E+03  0.59067546979E+03  0.13728049910E+03  0.65460686375E+03  0.90527068349E+02 0.  0.
          4    1    3    3  502    0  0.40762350700E+01 -0.29565614071E+03  0.60252697225E+03  0.67116907074E+03  0.00000000000E+00 0. -1.
         -3    1    3    3    0  502 -0.56781035726E+01 -0.12880342958E+03  0.16392797854E+03  0.20855442090E+03  0.00000000000E+00 0.  1.
         13    1    5    5    0    0  0.18987762396E+03 -0.11332741479E+03  0.20454045450E+03  0.30121987410E+03  0.00000000000E+00 0. -1.
        -13    1    5    5    0    0  0.41009110869E+02 -0.52888484709E+02  0.13583511409E+03  0.15142693687E+03  0.00000000000E+00 0.  1.
          1    1    6    6  503    0 -0.12393981508E+03  0.24267073143E+03  0.94918571858E+02  0.28854756443E+03  0.00000000000E+00 0. -1.
         -1    1    6    6    0  503 -0.10534505125E+03  0.34800473836E+03  0.42361927240E+02  0.36605929932E+03  0.00000000000E+00 0.  1.
<mgrwt>
<rscale>  0 0.15492792E+04</rscale>
<asrwt>0</asrwt>
<pdfrwt beam="1">  1        2 0.24854524E+00 0.15492792E+04</pdfrwt>
<pdfrwt beam="2">  1       -1 0.57143551E-01 0.15492792E+04</pdfrwt>
<totfact> 0.37171978E+01</totfact>
</mgrwt>
</event>
<event>
12    7  0.1572140E-007  0.3644115E+04  0.7818608E-02  0.8080461E-01
         -1   -1    0    0    0  501 -0.00000000000E+00  0.00000000000E+00  0.14420416221E+04  0.14420416221E+04  0.00000000000E+00 0.  1.
          2   -1    0    0  501    0  0.00000000000E+00 -0.00000000000E+00 -0.23022178746E+04  0.23022178746E+04  0.00000000000E+00 0. -1.
         24    2    1    2    0    0  0.11261904369E+04  0.21800590125E+03  0.89861746919E+03  0.14592152428E+04  0.77228854327E+02 0.  0.
        254    2    1    2    0    0 -0.11261904369E+04 -0.21800590125E+03 -0.17587937217E+04  0.22850442538E+04  0.90124381455E+03 0.  0.
         23    2    4    4    0    0 -0.95836710983E+03  0.13046351147E+03 -0.84332471441E+03  0.12865757491E+04  0.92694871100E+02 0.  0.
         23    2    4    4    0    0 -0.16782332704E+03 -0.34846941272E+03 -0.91546900731E+03  0.99846850475E+03  0.96230197617E+02 0.  0.
          4    1    3    3  502    0  0.25223486998E+03  0.33517611317E+02  0.23611331319E+03  0.34712441079E+03  0.00000000000E+00 0. -1.
         -3    1    3    3    0  502  0.87395556688E+03  0.18448828993E+03  0.66250415600E+03  0.11120908320E+04  0.00000000000E+00 0.  1.
         13    1    5    5    0    0 -0.21993925661E+03  0.20434934893E+02 -0.14442953126E+03  0.26391429037E+03  0.00000000000E+00 0. -1.
        -13    1    5    5    0    0 -0.73842785321E+03  0.11002857658E+03 -0.69889518315E+03  0.10226614587E+04  0.00000000000E+00 0.  1.
          4    1    6    6  503    0 -0.85767298028E+02 -0.99977670031E+02 -0.38604825163E+03  0.40790294985E+03  0.00000000000E+00 0. -1.
         -4    1    6    6    0  503 -0.82056029011E+02 -0.24849174269E+03 -0.52942075568E+03  0.59056555489E+03  0.00000000000E+00 0.  1.
<mgrwt>
<rscale>  0 0.36441153E+04</rscale>
<asrwt>0</asrwt>
<pdfrwt beam="1">  1        2 0.35418736E+00 0.36441153E+04</pdfrwt>
<pdfrwt beam="2">  1       -1 0.22185256E+00 0.36441153E+04</pdfrwt>
<totfact> 0.44635870E-01</totfact>
</mgrwt>
</event>
<event>
12    7  0.1572140E-007  0.1668457E+04  0.7818608E-02  0.8779562E-01
         -1   -1    0    0    0  501 -0.00000000000E+00  0.00000000000E+00  0.41558293029E+03  0.41558293029E+03  0.00000000000E+00 0.  1.
          2   -1    0    0  501    0  0.00000000000E+00 -0.00000000000E+00 -0.16746042398E+04  0.16746042398E+04  0.00000000000E+00 0. -1.
         24    2    1    2    0    0  0.15378382770E+03  0.46865981357E+03 -0.47454908397E+02  0.50070238915E+03  0.71829156048E+02 0.  0.
        254    2    1    2    0    0 -0.15378382770E+03 -0.46865981357E+03 -0.12115664011E+04  0.15894847809E+04  0.90292703912E+03 0.  0.
         23    2    4    4    0    0  0.11819240745E+03 -0.29848940668E+03 -0.12108697329E+04  0.12560812146E+04  0.92027911144E+02 0.  0.
         23    2    4    4    0    0 -0.27197623514E+03 -0.17017040689E+03 -0.69666819105E+00  0.33340356635E+03  0.90710599428E+02 0.  0.
          4    1    3    3  502    0 -0.62268377057E+01  0.14612185962E+02 -0.76851784120E+01  0.17645153828E+02  0.00000000000E+00 0. -1.
         -3    1    3    3    0  502  0.16001066540E+03  0.45404762761E+03 -0.39769729985E+02  0.48305723533E+03  0.00000000000E+00 0.  1.
         13    1    5    5    0    0  0.11725794678E+03 -0.30089354760E+03 -0.12111715126E+04  0.12534842584E+04  0.00000000000E+00 0.  1.
        -13    1    5    5    0    0  0.93446066811E+00  0.24041409189E+01  0.30177971829E+00  0.25969561599E+01  0.00000000000E+00 0. -1.
          4    1    6    6  503    0 -0.97723439859E+02 -0.42037895616E+02 -0.39843200935E+02  0.11359813390E+03  0.00000000000E+00 0. -1.
         -4    1    6    6    0  503 -0.17425279528E+03 -0.12813251127E+03  0.39146532744E+02  0.21980543245E+03  0.00000000000E+00 0.  1.
<mgrwt>
<rscale>  0 0.16684567E+04</rscale>
<asrwt>0</asrwt>
<pdfrwt beam="1">  1        2 0.25763142E+00 0.16684567E+04</pdfrwt>
<pdfrwt beam="2">  1       -1 0.63935835E-01 0.16684567E+04</pdfrwt>
<totfact> 0.27313220E+01</totfact>
</mgrwt>
</event>
<event>
12    7  0.1572140E-007  0.1126068E+04  0.7818608E-02  0.9180150E-01
         -1   -1    0    0    0  501 -0.00000000000E+00  0.00000000000E+00  0.60700720885E+03  0.60700720885E+03  0.00000000000E+00 0.  1.
          2   -1    0    0  501    0  0.00000000000E+00 -0.00000000000E+00 -0.52224644210E+03  0.52224644210E+03  0.00000000000E+00 0. -1.
         24    2    1    2    0    0 -0.69045360268E+02  0.15501505432E+03  0.97000875750E+02  0.21222386743E+03  0.82661182974E+02 0.  0.
        254    2    1    2    0    0  0.69045360268E+02 -0.15501505432E+03 -0.12240109000E+02  0.91702978351E+03  0.90110869197E+03 0.  0.
         23    2    4    4    0    0  0.20345747565E+03  0.19624793968E+03  0.29813950203E+03  0.42092419966E+03  0.91552285385E+02 0.  0.
         23    2    4    4    0    0 -0.13441211538E+03 -0.35126299400E+03 -0.31037961103E+03  0.49610558385E+03  0.91284936721E+02 0.  0.
          2    1    3    3  502    0 -0.42382185717E+01  0.59316819036E+02 -0.27807742322E+01  0.59533017919E+02  0.00000000000E+00 0. -1.
         -1    1    3    3    0  502 -0.64807141696E+02  0.95698235280E+02  0.99781649982E+02  0.15269084951E+03  0.00000000000E+00 0.  1.
         13    1    5    5    0    0  0.85181531970E+02  0.92677316382E+02  0.70505113351E+02  0.14427733491E+03  0.00000000000E+00 0. -1.
        -13    1    5    5    0    0  0.11827594368E+03  0.10357062330E+03  0.22763438868E+03  0.27664686475E+03  0.00000000000E+00 0.  1.
          1    1    6    6  503    0 -0.52456117851E+02 -0.16983151656E+03 -0.90401169165E+02  0.19941604676E+03  0.00000000000E+00 0. -1.
         -1    1    6    6    0  503 -0.81955997533E+02 -0.18143147743E+03 -0.21997844187E+03  0.29668953710E+03  0.00000000000E+00 0.  1.
<mgrwt>
<rscale>  0 0.11260681E+04</rscale>
<asrwt>0</asrwt>
<pdfrwt beam="1">  1        2 0.80345606E-01 0.11260681E+04</pdfrwt>
<pdfrwt beam="2">  1       -1 0.93385724E-01 0.11260681E+04</pdfrwt>
<totfact> 0.73856936E+01</totfact>
</mgrwt>
</event>
<event>
12    7  0.1572140E-007  0.1247077E+04  0.7818608E-02  0.9072620E-01
         -1   -1    0    0    0  501 -0.00000000000E+00  0.00000000000E+00  0.29859676542E+03  0.29859676542E+03  0.00000000000E+00 0.  1.
          2   -1    0    0  501    0  0.00000000000E+00 -0.00000000000E+00 -0.13020906277E+04  0.13020906277E+04  0.00000000000E+00 0. -1.
         24    2    1    2    0    0  0.82048194966E+02  0.15832706809E+03  0.53129819237E+02  0.20237063677E+03  0.79572169433E+02 0.  0.
        254    2    1    2    0    0 -0.82048194966E+02 -0.15832706809E+03 -0.10566236815E+04  0.13983167564E+04  0.89835225829E+03 0.  0.
         23    2    4    4    0    0  0.32170786315E+03 -0.21607575919E+03 -0.83276700442E+03  0.92395693806E+03  0.10005426936E+03 0.  0.
         23    2    4    4    0    0 -0.40375605811E+03  0.57748691103E+02 -0.22385667710E+03  0.47435981830E+03  0.92474642715E+02 0.  0.
          2    1    3    3  502    0  0.19321188526E+02  0.91398642708E+02  0.58940954598E+02  0.11045839191E+03  0.00000000000E+00 0. -1.
         -3    1    3    3    0  502  0.62727006439E+02  0.66928425382E+02 -0.58111353612E+01  0.91912244860E+02  0.00000000000E+00 0.  1.
         13    1    5    5    0    0  0.28518642439E+03 -0.14517163969E+03 -0.68407089128E+03  0.75522121654E+03  0.00000000000E+00 0. -1.
        -13    1    5    5    0    0  0.36521438756E+02 -0.70904119504E+02 -0.14869611315E+03  0.16873572152E+03  0.00000000000E+00 0.  1.
          2    1    6    6  503    0 -0.85195310580E+02 -0.25396634213E+02 -0.43724315868E+02  0.99070912847E+02  0.00000000000E+00 0. -1.
         -2    1    6    6    0  503 -0.31856074753E+03  0.83145325316E+02 -0.18013236123E+03  0.37528890545E+03  0.00000000000E+00 0.  1.
<mgrwt>
<rscale>  0 0.12470767E+04</rscale>
<asrwt>0</asrwt>
<pdfrwt beam="1">  1        2 0.20032163E+00 0.12470767E+04</pdfrwt>
<pdfrwt beam="2">  1       -1 0.45937965E-01 0.12470767E+04</pdfrwt>
<totfact> 0.87055018E+01</totfact>
</mgrwt>
</event>
<event>
12    7  0.1572140E-007  0.1856479E+04  0.7818608E-02  0.8676828E-01
          2   -1    0    0  501    0  0.00000000000E+00  0.00000000000E+00  0.65889380277E+03  0.65889380277E+03  0.00000000000E+00 0. -1.
         -1   -1    0    0    0  501 -0.00000000000E+00 -0.00000000000E+00 -0.13076893544E+04  0.13076893544E+04  0.00000000000E+00 0.  1.
         24    2    1    2    0    0  0.38739993357E+02 -0.35567970809E+03  0.39875059290E+03  0.54173849068E+03  0.80434539271E+02 0.  0.
        254    2    1    2    0    0 -0.38739993357E+02  0.35567970809E+03 -0.10475461446E+04  0.14248446665E+04  0.89711791694E+03 0.  0.
         23    2    4    4    0    0  0.82897352980E+02  0.42082036182E+03 -0.83441343410E+02  0.44667169067E+03  0.92689769698E+02 0.  0.
         23    2    4    4    0    0 -0.12163734634E+03 -0.65140653730E+02 -0.96410480117E+03  0.97817297586E+03  0.91023921428E+02 0.  0.
          4    1    3    3  502    0  0.75675926539E+01 -0.22388139502E+03  0.19450034608E+03  0.29666569084E+03  0.00000000000E+00 0. -1.
         -3    1    3    3    0  502  0.31172400703E+02 -0.13179831307E+03  0.20425024682E+03  0.24507279984E+03  0.00000000000E+00 0.  1.
         13    1    5    5    0    0  0.41324442228E+02  0.19113999109E+03 -0.85058229229E+02  0.21325362383E+03  0.00000000000E+00 0. -1.
        -13    1    5    5    0    0  0.41572910752E+02  0.22968037073E+03  0.16168858191E+01  0.23341806684E+03  0.00000000000E+00 0.  1.
          3    1    6    6  503    0 -0.12449205045E+03 -0.81358765639E+02 -0.85658706656E+03  0.86940147341E+03  0.00000000000E+00 0. -1.
         -3    1    6    6    0  503  0.28547041113E+01  0.16218111909E+02 -0.10751773461E+03  0.10877150245E+03  0.00000000000E+00 0.  1.
<mgrwt>
<rscale>  0 0.18564788E+04</rscale>
<asrwt>0</asrwt>
<pdfrwt beam="1">  1        2 0.10136828E+00 0.18564788E+04</pdfrwt>
<pdfrwt beam="2">  1       -1 0.20118298E+00 0.18564788E+04</pdfrwt>
<totfact> 0.70068630E+00</totfact>
</mgrwt>
</event>
<event>
12    7  0.1572140E-007  0.1393413E+04  0.7818608E-02  0.8958601E-01
          2   -1    0    0  501    0  0.00000000000E+00  0.00000000000E+00  0.17146222211E+04  0.17146222211E+04  0.00000000000E+00 0. -1.
         -1   -1    0    0    0  501 -0.00000000000E+00 -0.00000000000E+00 -0.28309429439E+03  0.28309429439E+03  0.00000000000E+00 0.  1.
         24    2    1    2    0    0 -0.11089967115E+02 -0.90578704849E+02 -0.14000987615E+03  0.18533813472E+03  0.80124712925E+02 0.  0.
        254    2    1    2    0    0  0.11089967115E+02  0.90578704849E+02  0.15715378029E+04  0.18123783808E+04  0.89814076856E+03 0.  0.
         23    2    4    4    0    0 -0.21942518082E+03  0.47939593631E+02  0.22808280811E+02  0.24339809119E+03  0.90976911933E+02 0.  0.
         23    2    4    4    0    0  0.23051514794E+03  0.42639111219E+02  0.15487295221E+04  0.15689802896E+04  0.90447163655E+02 0.  0.
          2    1    3    3  502    0 -0.36481439548E+02 -0.68695100463E+02 -0.58873017567E+02  0.97549702493E+02  0.00000000000E+00 0. -1.
         -1    1    3    3    0  502  0.25391472433E+02 -0.21883604387E+02 -0.81136858580E+02  0.87788432231E+02  0.00000000000E+00 0.  1.
         13    1    5    5    0    0 -0.15205387125E+03  0.30665200691E+02  0.57808569229E+02  0.16553720117E+03  0.00000000000E+00 0. -1.
        -13    1    5    5    0    0 -0.67371309574E+02  0.17274392940E+02 -0.35000288419E+02  0.77860890019E+02  0.00000000000E+00 0.  1.
          2    1    6    6  503    0  0.46034005770E+02 -0.48687963104E+01  0.14062681684E+03  0.14804977703E+03  0.00000000000E+00 0.  1.
         -2    1    6    6    0  503  0.18448114217E+03  0.47507907529E+02  0.14081027052E+04  0.14209305126E+04  0.00000000000E+00 0. -1.
<mgrwt>
<rscale>  0 0.13934127E+04</rscale>
<asrwt>0</asrwt>
<pdfrwt beam="1">  1        2 0.26378803E+00 0.13934127E+04</pdfrwt>
<pdfrwt beam="2">  1       -1 0.43552969E-01 0.13934127E+04</pdfrwt>
<totfact> 0.55577364E+01</totfact>
</mgrwt>
</event>
<event>
12    7  0.1572140E-007  0.1508618E+04  0.7818608E-02  0.8878742E-01
         -1   -1    0    0    0  501 -0.00000000000E+00  0.00000000000E+00  0.25608175074E+03  0.25608175074E+03  0.00000000000E+00 0.  1.
          2   -1    0    0  501    0  0.00000000000E+00 -0.00000000000E+00 -0.22218772755E+04  0.22218772755E+04  0.00000000000E+00 0. -1.
         24    2    1    2    0    0 -0.22902709858E+03 -0.32062846133E+03 -0.10481486078E+04  0.11225988206E+04  0.79728199854E+02 0.  0.
        254    2    1    2    0    0  0.22902709858E+03  0.32062846133E+03 -0.91764691699E+03  0.13553602057E+04  0.91633476458E+03 0.  0.
         23    2    4    4    0    0  0.13750885134E+03 -0.29132900557E+03 -0.50357871673E+03  0.60479129795E+03  0.91649967037E+02 0.  0.
         23    2    4    4    0    0  0.91518247241E+02  0.61195746690E+03 -0.41406820026E+03  0.75056890773E+03  0.95045672766E+02 0.  0.
          4    1    3    3  502    0 -0.95421817632E+02 -0.16204867679E+03 -0.39818451774E+03  0.44035895255E+03  0.00000000000E+00 0. -1.
         -3    1    3    3    0  502 -0.13360528095E+03 -0.15857978454E+03 -0.64996409006E+03  0.68223986803E+03  0.00000000000E+00 0.  1.
         13    1    5    5    0    0  0.14578660051E+03 -0.22508985897E+03 -0.40412951707E+03  0.48501530292E+03  0.00000000000E+00 0. -1.
        -13    1    5    5    0    0 -0.82777491775E+01 -0.66239146592E+02 -0.99449199659E+02  0.11977599503E+03  0.00000000000E+00 0.  1.
          4    1    6    6  503    0  0.10988354634E+02  0.23493103405E+03 -0.20504513271E+03  0.31202057807E+03  0.00000000000E+00 0. -1.
         -4    1    6    6    0  503  0.80529892607E+02  0.37702643285E+03 -0.20902306755E+03  0.43854832965E+03  0.00000000000E+00 0.  1.
<mgrwt>
<rscale>  0 0.15086182E+04</rscale>
<asrwt>0</asrwt>
<pdfrwt beam="1">  1        2 0.34182728E+00 0.15086182E+04</pdfrwt>
<pdfrwt beam="2">  1       -1 0.39397192E-01 0.15086182E+04</pdfrwt>
<totfact> 0.34609446E+01</totfact>
</mgrwt>
</event>
<event>
12    7  0.1572140E-007  0.1153723E+04  0.7818608E-02  0.9154355E-01
          2   -1    0    0  501    0  0.00000000000E+00  0.00000000000E+00  0.57064786490E+03  0.57064786490E+03  0.00000000000E+00 0. -1.
         -1   -1    0    0    0  501 -0.00000000000E+00 -0.00000000000E+00 -0.58314326763E+03  0.58314326763E+03  0.00000000000E+00 0.  1.
         24    2    1    2    0    0 -0.56894094918E+02  0.98949936701E+02 -0.18428755373E+03  0.23040656610E+03  0.78084923195E+02 0.  0.
        254    2    1    2    0    0  0.56894094918E+02 -0.98949936701E+02  0.17179215100E+03  0.92338456643E+03  0.90005471299E+03 0.  0.
         23    2    4    4    0    0  0.22575498970E+03 -0.23614891816E+03 -0.26244998806E+03  0.42923646382E+03  0.92910272391E+02 0.  0.
         23    2    4    4    0    0 -0.16886089479E+03  0.13719898146E+03  0.43424213906E+03  0.49414810261E+03  0.90986535726E+02 0.  0.
          4    1    3    3  502    0 -0.15636993912E+02  0.14372767637E+02  0.23687714127E+01  0.21370613144E+02  0.00000000000E+00 0. -1.
         -3    1    3    3    0  502 -0.41257101006E+02  0.84577169064E+02 -0.18665632515E+03  0.20903595295E+03  0.00000000000E+00 0.  1.
         13    1    5    5    0    0  0.29768441162E+01 -0.36442254604E+01  0.76275690628E+01  0.89622424597E+01  0.00000000000E+00 0. -1.
        -13    1    5    5    0    0  0.22277814559E+03 -0.23250469270E+03 -0.27007755712E+03  0.42027422136E+03  0.00000000000E+00 0.  1.
          1    1    6    6  503    0 -0.15419765002E+03  0.78537628604E+02  0.28938627263E+03  0.33717871992E+03  0.00000000000E+00 0. -1.
         -1    1    6    6    0  503 -0.14663244763E+02  0.58661352852E+02  0.14485586642E+03  0.15696938269E+03  0.00000000000E+00 0.  1.
<mgrwt>
<rscale>  0 0.11537235E+04</rscale>
<asrwt>0</asrwt>
<pdfrwt beam="1">  1        2 0.87791980E-01 0.11537235E+04</pdfrwt>
<pdfrwt beam="2">  1       -1 0.89714348E-01 0.11537235E+04</pdfrwt>
<totfact> 0.72540333E+01</totfact>
</mgrwt>
</event>
<event>
12    7  0.1572140E-007  0.2064903E+04  0.7818608E-02  0.8576863E-01
         -1   -1    0    0    0  501 -0.00000000000E+00  0.00000000000E+00  0.10421925974E+04  0.10421925974E+04  0.00000000000E+00 0.  1.
          2   -1    0    0  501    0  0.00000000000E+00 -0.00000000000E+00 -0.10228015024E+04  0.10228015024E+04  0.00000000000E+00 0. -1.
         24    2    1    2    0    0 -0.58946044464E+03 -0.38457329062E+03  0.45359498777E+03  0.84084212898E+03  0.76855977470E+02 0.  0.
        254    2    1    2    0    0  0.58946044464E+03  0.38457329062E+03 -0.43420389283E+03  0.12241519708E+04  0.90258229289E+03 0.  0.
         23    2    4    4    0    0  0.48940790997E+03  0.86611211070E+02 -0.65655153058E+03  0.82844107419E+03  0.90736414319E+02 0.  0.
         23    2    4    4    0    0  0.10005253468E+03  0.29796207955E+03  0.22234763775E+03  0.39571089662E+03  0.91415158183E+02 0.  0.
          4    1    3    3  502    0 -0.66246249061E+02 -0.70783617440E+02  0.47574612587E+02  0.10799180420E+03  0.00000000000E+00 0. -1.
         -3    1    3    3    0  502 -0.52321419558E+03 -0.31378967318E+03  0.40602037519E+03  0.73285032477E+03  0.00000000000E+00 0.  1.
         13    1    5    5    0    0  0.25546208879E+03 -0.34120363865E-01 -0.31813859415E+03  0.40801108449E+03  0.00000000000E+00 0.  1.
        -13    1    5    5    0    0  0.23394582118E+03  0.86645331434E+02 -0.33841293642E+03  0.42042998971E+03  0.00000000000E+00 0. -1.
          4    1    6    6  503    0  0.31224000341E+02  0.70358875735E+02  0.10596869396E+03  0.13097585156E+03  0.00000000000E+00 0. -1.
         -4    1    6    6    0  503  0.68828534335E+02  0.22760320382E+03  0.11637894379E+03  0.26473504506E+03  0.00000000000E+00 0.  1.
<mgrwt>
<rscale>  0 0.20649031E+04</rscale>
<asrwt>0</asrwt>
<pdfrwt beam="1">  1        2 0.15735408E+00 0.20649031E+04</pdfrwt>
<pdfrwt beam="2">  1       -1 0.16033732E+00 0.20649031E+04</pdfrwt>
<totfact> 0.74590155E+00</totfact>
</mgrwt>
</event>
<event>
12    7  0.1572140E-007  0.1251891E+04  0.7818608E-02  0.9068611E-01
         -1   -1    0    0    0  501 -0.00000000000E+00  0.00000000000E+00  0.27692482999E+03  0.27692482999E+03  0.00000000000E+00 0.  1.
          2   -1    0    0  501    0  0.00000000000E+00 -0.00000000000E+00 -0.14148518029E+04  0.14148518029E+04  0.00000000000E+00 0. -1.
         24    2    1    2    0    0  0.14740610701E+03 -0.23482108232E+03 -0.42308105840E+03  0.51220391929E+03  0.80534290073E+02 0.  0.
        254    2    1    2    0    0 -0.14740610701E+03  0.23482108232E+03 -0.71484591447E+03  0.11795727136E+04  0.89639143461E+03 0.  0.
         23    2    4    4    0    0 -0.49816008944E+03  0.10972114175E+03 -0.56900468747E+03  0.76953739074E+03  0.90660122034E+02 0.  0.
         23    2    4    4    0    0  0.35075398243E+03  0.12509994057E+03 -0.14584122700E+03  0.41003532282E+03  0.90448610520E+02 0.  0.
          2    1    3    3  502    0  0.15104493903E+03 -0.20264574143E+03 -0.39700026279E+03  0.47062626232E+03  0.00000000000E+00 0. -1.
         -1    1    3    3    0  502 -0.36388320268E+01 -0.32175340893E+02 -0.26080795611E+02  0.41577656978E+02  0.00000000000E+00 0.  1.
         13    1    5    5    0    0 -0.31896549011E+03  0.95461488092E+02 -0.42062117239E+03  0.53644575705E+03  0.00000000000E+00 0.  1.
        -13    1    5    5    0    0 -0.17919459932E+03  0.14259653661E+02 -0.14838351508E+03  0.23309163369E+03  0.00000000000E+00 0. -1.
          2    1    6    6  503    0  0.38472259068E+02  0.21353275206E+02 -0.51453265007E+02  0.67701665856E+02  0.00000000000E+00 0. -1.
         -2    1    6    6    0  503  0.31228172336E+03  0.10374666536E+03 -0.94387961994E+02  0.34233365696E+03  0.00000000000E+00 0.  1.
<mgrwt>
<rscale>  0 0.12518907E+04</rscale>
<asrwt>0</asrwt>
<pdfrwt beam="1">  1        2 0.21766951E+00 0.12518907E+04</pdfrwt>
<pdfrwt beam="2">  1       -1 0.42603819E-01 0.12518907E+04</pdfrwt>
<totfact> 0.86193825E+01</totfact>
</mgrwt>
</event>
<event>
12    7  0.1572140E-007  0.1494856E+04  0.7818608E-02  0.8887881E-01
          2   -1    0    0  501    0  0.00000000000E+00  0.00000000000E+00  0.72779770548E+03  0.72779770548E+03  0.00000000000E+00 0. -1.
         -1   -1    0    0    0  501 -0.00000000000E+00 -0.00000000000E+00 -0.76758823434E+03  0.76758823434E+03  0.00000000000E+00 0.  1.
         24    2    1    2    0    0 -0.17636941770E+03 -0.33112477965E+03 -0.27847263789E+03  0.47425597652E+03  0.81375242050E+02 0.  0.
        254    2    1    2    0    0  0.17636941770E+03  0.33112477965E+03  0.23868210903E+03  0.10211299633E+04  0.91923199552E+03 0.  0.
         23    2    4    4    0    0  0.10189823839E+03 -0.13688788050E+03  0.45442980166E+03  0.49338694301E+03  0.88332825628E+02 0.  0.
         23    2    4    4    0    0  0.74471179312E+02  0.46801266015E+03 -0.21574769263E+03  0.52774302029E+03  0.85929168372E+02 0.  0.
          4    1    3    3  502    0 -0.64452851680E+02 -0.68859711256E+02 -0.10197686451E+03  0.13890684223E+03  0.00000000000E+00 0. -1.
         -3    1    3    3    0  502 -0.11191656602E+03 -0.26226506839E+03 -0.17649577338E+03  0.33534913429E+03  0.00000000000E+00 0.  1.
         13    1    5    5    0    0  0.90134510952E+02 -0.92909889916E+02  0.22583788834E+03  0.26030603051E+03  0.00000000000E+00 0. -1.
        -13    1    5    5    0    0  0.11763727439E+02 -0.43977990588E+02  0.22859191332E+03  0.23308091250E+03  0.00000000000E+00 0.  1.
          1    1    6    6  503    0 -0.17929068607E+02  0.81493634575E+02 -0.49015652180E+02  0.96773953810E+02  0.00000000000E+00 0. -1.
         -1    1    6    6    0  503  0.92400247919E+02  0.38651902558E+03 -0.16673204045E+03  0.43096906648E+03  0.00000000000E+00 0.  1.
<mgrwt>
<rscale>  0 0.14948565E+04</rscale>
<asrwt>0</asrwt>
<pdfrwt beam="1">  1        2 0.11196888E+00 0.14948565E+04</pdfrwt>
<pdfrwt beam="2">  1       -1 0.11809050E+00 0.14948565E+04</pdfrwt>
<totfact> 0.27715622E+01</totfact>
</mgrwt>
</event>
<event>
12    7  0.1572140E-007  0.1521623E+04  0.7818608E-02  0.8870200E-01
         -1   -1    0    0    0  501 -0.00000000000E+00  0.00000000000E+00  0.90846968805E+03  0.90846968805E+03  0.00000000000E+00 0.  1.
          2   -1    0    0  501    0  0.00000000000E+00 -0.00000000000E+00 -0.63715309256E+03  0.63715309256E+03  0.00000000000E+00 0. -1.
         24    2    1    2    0    0 -0.42440702703E+01 -0.20105196711E+03  0.54172830829E+03  0.58330037400E+03  0.79560421665E+02 0.  0.
        254    2    1    2    0    0  0.42440702703E+01  0.20105196711E+03 -0.27041171281E+03  0.96232240661E+03  0.90138893616E+03 0.  0.
         23    2    4    4    0    0 -0.12201821933E+03  0.46873438744E+03  0.74474778476E+02  0.49839386296E+03  0.90827188600E+02 0.  0.
         23    2    4    4    0    0  0.12626228960E+03 -0.26768242033E+03 -0.34488649128E+03  0.46392854365E+03  0.93203850877E+02 0.  0.
          4    1    3    3  502    0  0.25336028533E+02 -0.24248214640E+02  0.12087347909E+03  0.12585820673E+03  0.00000000000E+00 0. -1.
         -3    1    3    3    0  502 -0.29580098803E+02 -0.17680375247E+03  0.42085482920E+03  0.45744216727E+03  0.00000000000E+00 0.  1.
         13    1    5    5    0    0 -0.11238014807E+03  0.46640538230E+03  0.80973080336E+02  0.48653871178E+03  0.00000000000E+00 0.  1.
        -13    1    5    5    0    0 -0.96380712572E+01  0.23290051418E+01 -0.64983018599E+01  0.11855151183E+02  0.00000000000E+00 0. -1.
          4    1    6    6  503    0 -0.56592977643E+01 -0.21533415994E+02 -0.29818538345E+01  0.22463461618E+02  0.00000000000E+00 0. -1.
         -4    1    6    6    0  503  0.13192158736E+03 -0.24614900434E+03 -0.34190463745E+03  0.44146508204E+03  0.00000000000E+00 0.  1.
<mgrwt>
<rscale>  0 0.15216232E+04</rscale>
<asrwt>0</asrwt>
<pdfrwt beam="1">  1        2 0.98023552E-01 0.15216232E+04</pdfrwt>
<pdfrwt beam="2">  1       -1 0.13976457E+00 0.15216232E+04</pdfrwt>
<totfact> 0.21385706E+01</totfact>
</mgrwt>
</event>
<event>
12    7  0.1572140E-007  0.2724118E+04  0.7818608E-02  0.8327222E-01
         -1   -1    0    0    0  501 -0.00000000000E+00  0.00000000000E+00  0.16792267350E+04  0.16792267350E+04  0.00000000000E+00 0.  1.
          2   -1    0    0  501    0  0.00000000000E+00 -0.00000000000E+00 -0.11047967134E+04  0.11047967134E+04  0.00000000000E+00 0. -1.
         24    2    1    2    0    0  0.23154617412E+03  0.10635103005E+04 -0.28503431749E+03  0.11278911288E+04  0.78905298679E+02 0.  0.
        254    2    1    2    0    0 -0.23154617412E+03 -0.10635103005E+04  0.85946433912E+03  0.16561323196E+04  0.90522235935E+03 0.  0.
         23    2    4    4    0    0 -0.45008518707E+03 -0.10407672965E+04  0.54287622586E+03  0.12603950750E+04  0.90043918677E+02 0.  0.
         23    2    4    4    0    0  0.21853901295E+03 -0.22743004022E+02  0.31658811325E+03  0.39573724467E+03  0.90018825549E+02 0.  0.
          2    1    3    3  502    0  0.12654634715E+03  0.68628304212E+03 -0.21404027259E+03  0.72993947021E+03  0.00000000000E+00 0. -1.
         -1    1    3    3    0  502  0.10499982697E+03  0.37722725841E+03 -0.70994044904E+02  0.39795165858E+03  0.00000000000E+00 0.  1.
         13    1    5    5    0    0 -0.47643874550E+02 -0.17216285511E+03  0.10985473982E+03  0.20970944500E+03  0.00000000000E+00 0.  1.
        -13    1    5    5    0    0 -0.40244131252E+03 -0.86860444140E+03  0.43302148604E+03  0.10506856300E+04  0.00000000000E+00 0. -1.
          2    1    6    6  503    0  0.11681380639E+03 -0.49335421307E+02  0.21455067941E+03  0.24922167481E+03  0.00000000000E+00 0. -1.
         -2    1    6    6    0  503  0.10172520656E+03  0.26592417285E+02  0.10203743384E+03  0.14651556986E+03  0.00000000000E+00 0.  1.
<mgrwt>
<rscale>  0 0.27241176E+04</rscale>
<asrwt>0</asrwt>
<pdfrwt beam="1">  1        2 0.16996873E+00 0.27241176E+04</pdfrwt>
<pdfrwt beam="2">  1       -1 0.25834257E+00 0.27241176E+04</pdfrwt>
<totfact> 0.13280358E+00</totfact>
</mgrwt>
</event>
<event>
12    7  0.1572140E-007  0.2863674E+04  0.7818608E-02  0.8283768E-01
         -1   -1    0    0    0  501 -0.00000000000E+00  0.00000000000E+00  0.11175031155E+04  0.11175031155E+04  0.00000000000E+00 0.  1.
          2   -1    0    0  501    0  0.00000000000E+00 -0.00000000000E+00 -0.18345870648E+04  0.18345870648E+04  0.00000000000E+00 0. -1.
         24    2    1    2    0    0  0.12258590064E+03  0.12010765302E+04  0.12482944592E+03  0.12165537322E+04  0.82513381954E+02 0.  0.
        254    2    1    2    0    0 -0.12258590064E+03 -0.12010765302E+04 -0.84191339519E+03  0.17355364481E+04  0.91959581521E+03 0.  0.
         23    2    4    4    0    0  0.22119393113E+03  0.63635834929E+01 -0.24262261776E+03  0.34136758980E+03  0.93267606106E+02 0.  0.
         23    2    4    4    0    0 -0.34377983177E+03 -0.12074401137E+04 -0.59929077743E+03  0.13941688583E+04  0.91984611471E+02 0.  0.
          4    1    3    3  502    0  0.44507431312E+02  0.67912782949E+03  0.10310675002E+03  0.68835058083E+03  0.00000000000E+00 0. -1.
         -3    1    3    3    0  502  0.78078469327E+02  0.52194870072E+03  0.21722695907E+02  0.52820315132E+03  0.00000000000E+00 0.  1.
         13    1    5    5    0    0  0.11306971739E+03 -0.34219194169E+02 -0.16209390981E+03  0.20057454932E+03  0.00000000000E+00 0. -1.
        -13    1    5    5    0    0  0.10812421374E+03  0.40582777661E+02 -0.80528707956E+02  0.14079304047E+03  0.00000000000E+00 0.  1.
          3    1    6    6  503    0 -0.33489235991E+03 -0.11084363611E+04 -0.56953715577E+03  0.12904094820E+04  0.00000000000E+00 0. -1.
         -3    1    6    6    0  503 -0.88874718589E+01 -0.99003752567E+02 -0.29753621658E+02  0.10375937635E+03  0.00000000000E+00 0.  1.
<mgrwt>
<rscale>  0 0.28636737E+04</rscale>
<asrwt>0</asrwt>
<pdfrwt beam="1">  1        2 0.28224416E+00 0.28636737E+04</pdfrwt>
<pdfrwt beam="2">  1       -1 0.17192356E+00 0.28636737E+04</pdfrwt>
<totfact> 0.19371113E+00</totfact>
</mgrwt>
</event>
<event>
12    7  0.1572140E-007  0.1571975E+04  0.7818608E-02  0.8837952E-01
          2   -1    0    0  501    0  0.00000000000E+00  0.00000000000E+00  0.24696357747E+04  0.24696357747E+04  0.00000000000E+00 0. -1.
         -1   -1    0    0    0  501 -0.00000000000E+00 -0.00000000000E+00 -0.25014887042E+03  0.25014887042E+03  0.00000000000E+00 0.  1.
         24    2    1    2    0    0 -0.22178260005E+03 -0.12326235481E+03 -0.45044617215E+02  0.27005667037E+03  0.80749352160E+02 0.  0.
        254    2    1    2    0    0  0.22178260005E+03  0.12326235481E+03  0.22645315215E+04  0.24497279748E+04  0.89926804046E+03 0.  0.
         23    2    4    4    0    0 -0.21060796390E+03  0.17916144981E+03  0.23382789115E+03  0.37064239039E+03  0.79030116516E+02 0.  0.
         23    2    4    4    0    0  0.43239056395E+03 -0.55899094999E+02  0.20307036304E+04  0.20790855844E+04  0.93559201276E+02 0.  0.
          4    1    3    3  502    0 -0.24865042334E+02 -0.42199424720E+02 -0.28016684713E+02  0.56426912013E+02  0.00000000000E+00 0. -1.
         -3    1    3    3    0  502 -0.19691755771E+03 -0.81062930094E+02 -0.17027932501E+02  0.21362975836E+03  0.00000000000E+00 0.  1.
         13    1    5    5    0    0 -0.14123057603E+03  0.68501246631E+02  0.12735506610E+03  0.20213314735E+03  0.00000000000E+00 0. -1.
        -13    1    5    5    0    0 -0.69377387872E+02  0.11066020318E+03  0.10647282505E+03  0.16850924304E+03  0.00000000000E+00 0.  1.
          3    1    6    6  503    0  0.94518197466E+02  0.23692762927E+02  0.51556237440E+03  0.52469000235E+03  0.00000000000E+00 0. -1.
         -3    1    6    6    0  503  0.33787236649E+03 -0.79591857926E+02  0.15151412559E+04  0.15543955820E+04  0.00000000000E+00 0.  1.
<mgrwt>
<rscale>  0 0.15719753E+04</rscale>
<asrwt>0</asrwt>
<pdfrwt beam="1">  1        2 0.37994395E+00 0.15719753E+04</pdfrwt>
<pdfrwt beam="2">  1       -1 0.38484443E-01 0.15719753E+04</pdfrwt>
<totfact> 0.25985366E+01</totfact>
</mgrwt>
</event>
<event>
12    7  0.1572140E-007  0.2203979E+04  0.7818608E-02  0.8516774E-01
         -1   -1    0    0    0  501 -0.00000000000E+00  0.00000000000E+00  0.10935270127E+04  0.10935270127E+04  0.00000000000E+00 0.  1.
          2   -1    0    0  501    0  0.00000000000E+00 -0.00000000000E+00 -0.11105174697E+04  0.11105174697E+04  0.00000000000E+00 0. -1.
         24    2    1    2    0    0 -0.87156167423E+03  0.14336297376E+03  0.24846538838E+03  0.92124036537E+03  0.82316871419E+02 0.  0.
        254    2    1    2    0    0  0.87156167423E+03 -0.14336297376E+03 -0.26545584539E+03  0.12828041169E+04  0.89159794884E+03 0.  0.
         23    2    4    4    0    0  0.82513395648E+03 -0.43911818017E+03 -0.16352048463E+03  0.95363437814E+03  0.94914466678E+02 0.  0.
         23    2    4    4    0    0  0.46427717753E+02  0.29575520641E+03 -0.10193536076E+03  0.32916973881E+03  0.91297448373E+02 0.  0.
          2    1    3    3  502    0 -0.62256774351E+03  0.85936830400E+02  0.21118772876E+03  0.66300527212E+03  0.00000000000E+00 0. -1.
         -1    1    3    3    0  502 -0.24899393072E+03  0.57426143365E+02  0.37277659625E+02  0.25823509325E+03  0.00000000000E+00 0.  1.
         13    1    5    5    0    0  0.28545671021E+03 -0.10564995547E+03 -0.35368195274E+02  0.30642838598E+03  0.00000000000E+00 0. -1.
        -13    1    5    5    0    0  0.53967724627E+03 -0.33346822470E+03 -0.12815228936E+03  0.64720599217E+03  0.00000000000E+00 0.  1.
          4    1    6    6  503    0 -0.24069133296E+02  0.11283385281E+03 -0.53859444383E+02  0.12732494362E+03  0.00000000000E+00 0. -1.
         -4    1    6    6    0  503  0.70496851049E+02  0.18292135360E+03 -0.48075916373E+02  0.20184479519E+03  0.00000000000E+00 0.  1.
<mgrwt>
<rscale>  0 0.22039790E+04</rscale>
<asrwt>0</asrwt>
<pdfrwt beam="1">  1        2 0.17084884E+00 0.22039790E+04</pdfrwt>
<pdfrwt beam="2">  1       -1 0.16823493E+00 0.22039790E+04</pdfrwt>
<totfact> 0.56699878E+00</totfact>
</mgrwt>
</event>
<event>
12    7  0.1572140E-007  0.1920439E+04  0.7818608E-02  0.8644749E-01
          2   -1    0    0  501    0  0.00000000000E+00  0.00000000000E+00  0.99143147953E+03  0.99143147953E+03  0.00000000000E+00 0. -1.
         -1   -1    0    0    0  501 -0.00000000000E+00 -0.00000000000E+00 -0.92999041939E+03  0.92999041939E+03  0.00000000000E+00 0.  1.
         24    2    1    2    0    0  0.58865225859E+03 -0.24228767889E+03 -0.39504356862E+03  0.75329303532E+03  0.78588644738E+02 0.  0.
        254    2    1    2    0    0 -0.58865225859E+03  0.24228767889E+03  0.45648462876E+03  0.11681288636E+04  0.86656334149E+03 0.  0.
         23    2    4    4    0    0 -0.13135691564E+03 -0.96071716268E+02  0.55362547241E+03  0.58410646341E+03  0.90525040398E+02 0.  0.
         23    2    4    4    0    0 -0.45729534295E+03  0.33835939516E+03 -0.97140843654E+02  0.58402240020E+03  0.89664426904E+02 0.  0.
          2    1    3    3  502    0  0.23141782520E+02 -0.28603077825E+02 -0.25286214179E+02  0.44643821372E+02  0.00000000000E+00 0. -1.
         -1    1    3    3    0  502  0.56551047607E+03 -0.21368460106E+03 -0.36975735444E+03  0.70864921395E+03  0.00000000000E+00 0.  1.
         13    1    5    5    0    0 -0.10713290080E+03 -0.90226835998E+02  0.32199914736E+03  0.35114354795E+03  0.00000000000E+00 0. -1.
        -13    1    5    5    0    0 -0.24224014835E+02 -0.58448802704E+01  0.23162632505E+03  0.23296291545E+03  0.00000000000E+00 0.  1.
          1    1    6    6  503    0 -0.12602020518E+02  0.35808223090E+02 -0.86696812482E+01  0.38938453165E+02  0.00000000000E+00 0. -1.
         -1    1    6    6    0  503 -0.44469332243E+03  0.30255117207E+03 -0.88471162406E+02  0.54508394703E+03  0.00000000000E+00 0.  1.
<mgrwt>
<rscale>  0 0.19204393E+04</rscale>
<asrwt>0</asrwt>
<pdfrwt beam="1">  1        2 0.15252792E+00 0.19204393E+04</pdfrwt>
<pdfrwt beam="2">  1       -1 0.14307545E+00 0.19204393E+04</pdfrwt>
<totfact> 0.10773079E+01</totfact>
</mgrwt>
</event>
<event>
12    7  0.1572140E-007  0.3228652E+04  0.7818608E-02  0.8181291E-01
         -1   -1    0    0    0  501 -0.00000000000E+00  0.00000000000E+00  0.76774753893E+03  0.76774753893E+03  0.00000000000E+00 0.  1.
          2   -1    0    0  501    0  0.00000000000E+00 -0.00000000000E+00 -0.33944088749E+04  0.33944088749E+04  0.00000000000E+00 0. -1.
         24    2    1    2    0    0  0.38494258809E+03 -0.29191560747E+03 -0.30309941216E+04  0.30702761152E+04  0.79211997139E+02 0.  0.
        254    2    1    2    0    0 -0.38494258809E+03  0.29191560747E+03  0.40433278567E+03  0.10918802986E+04  0.89180831283E+03 0.  0.
         23    2    4    4    0    0 -0.38038186600E+03  0.23167150141E+03  0.66718063720E+03  0.80725823818E+03  0.90409136174E+02 0.  0.
         23    2    4    4    0    0 -0.45607220841E+01  0.60244106060E+02 -0.26284785153E+03  0.28462206039E+03  0.90942683653E+02 0.  0.
          2    1    3    3  502    0  0.35969689535E+03 -0.29326000594E+03 -0.28546421220E+04  0.28921211822E+04  0.00000000000E+00 0. -1.
         -1    1    3    3    0  502  0.25245692739E+02  0.13443984747E+01 -0.17635199963E+03  0.17815493309E+03  0.00000000000E+00 0.  1.
         13    1    5    5    0    0 -0.17937171465E+03  0.15049980423E+03  0.29602744719E+03  0.37743430234E+03  0.00000000000E+00 0. -1.
        -13    1    5    5    0    0 -0.20101015135E+03  0.81171697182E+02  0.37115319001E+03  0.42982393584E+03  0.00000000000E+00 0.  1.
          3    1    6    6  503    0 -0.34166841690E+02  0.14512019896E+02 -0.37436034009E+02  0.52720284852E+02  0.00000000000E+00 0. -1.
         -3    1    6    6    0  503  0.29606119606E+02  0.45732086164E+02 -0.22541181752E+03  0.23190177554E+03  0.00000000000E+00 0.  1.
<mgrwt>
<rscale>  0 0.32286524E+04</rscale>
<asrwt>0</asrwt>
<pdfrwt beam="1">  1        2 0.52221673E+00 0.32286524E+04</pdfrwt>
<pdfrwt beam="2">  1       -1 0.11811501E+00 0.32286524E+04</pdfrwt>
<totfact> 0.58976225E-01</totfact>
</mgrwt>
</event>
<event>
12    7  0.1572140E-007  0.1389760E+04  0.7818608E-02  0.8961264E-01
         -1   -1    0    0    0  501 -0.00000000000E+00  0.00000000000E+00  0.26230365763E+03  0.26230365763E+03  0.00000000000E+00 0.  1.
          2   -1    0    0  501    0  0.00000000000E+00 -0.00000000000E+00 -0.18408367092E+04  0.18408367092E+04  0.00000000000E+00 0. -1.
         24    2    1    2    0    0 -0.13218218996E+03  0.24630316927E+02 -0.99283657092E+03  0.10050894343E+04  0.80009564832E+02 0.  0.
        254    2    1    2    0    0  0.13218218996E+03 -0.24630316927E+02 -0.58569648061E+03  0.10980509325E+04  0.91901942262E+03 0.  0.
         23    2    4    4    0    0  0.38539396726E+03 -0.29004564374E+03 -0.51894891828E+03  0.71415079456E+03  0.89712831499E+02 0.  0.
         23    2    4    4    0    0 -0.25321177730E+03  0.26541532682E+03 -0.66747562339E+02  0.38390013797E+03  0.91447137616E+02 0.  0.
          2    1    3    3  502    0 -0.12785418181E+03 -0.35710188170E+01 -0.80453347777E+03  0.81463707308E+03  0.00000000000E+00 0. -1.
         -1    1    3    3    0  502 -0.43280081484E+01  0.28201335744E+02 -0.18830309315E+03  0.19045236119E+03  0.00000000000E+00 0.  1.
         13    1    5    5    0    0  0.36214659997E+02 -0.50730919791E+02 -0.10481254813E+03  0.12194588171E+03  0.00000000000E+00 0. -1.
        -13    1    5    5    0    0  0.34917930726E+03 -0.23931472395E+03 -0.41413637015E+03  0.59220491285E+03  0.00000000000E+00 0.  1.
          4    1    6    6  503    0 -0.89943858197E+02  0.37407220585E+02 -0.11696262144E+02  0.98112182360E+02  0.00000000000E+00 0. -1.
         -4    1    6    6    0  503 -0.16326791910E+03  0.22800810623E+03 -0.55051300195E+02  0.28578795561E+03  0.00000000000E+00 0.  1.
<mgrwt>
<rscale>  0 0.13897600E+04</rscale>
<asrwt>0</asrwt>
<pdfrwt beam="1">  1        2 0.28320564E+00 0.13897600E+04</pdfrwt>
<pdfrwt beam="2">  1       -1 0.40354409E-01 0.13897600E+04</pdfrwt>
<totfact> 0.54472077E+01</totfact>
</mgrwt>
</event>
<event>
12    7  0.1572140E-007  0.1258618E+04  0.7818608E-02  0.9063041E-01
         -1   -1    0    0    0  501 -0.00000000000E+00  0.00000000000E+00  0.32272545994E+03  0.32272545994E+03  0.00000000000E+00 0.  1.
          2   -1    0    0  501    0  0.00000000000E+00 -0.00000000000E+00 -0.12271412921E+04  0.12271412921E+04  0.00000000000E+00 0. -1.
         24    2    1    2    0    0 -0.18710418559E+03  0.11579405770E+02 -0.52385165163E+03  0.56165749929E+03  0.76788896897E+02 0.  0.
        254    2    1    2    0    0  0.18710418559E+03 -0.11579405770E+02 -0.38056418057E+03  0.98820925280E+03  0.89251687540E+03 0.  0.
         23    2    4    4    0    0 -0.15062754388E+03 -0.19227140605E+03  0.17032846235E+03  0.31140950823E+03  0.91143547049E+02 0.  0.
         23    2    4    4    0    0  0.33773172947E+03  0.18069200028E+03 -0.55089264292E+03  0.67679974457E+03  0.88672826522E+02 0.  0.
          2    1    3    3  502    0 -0.13558513804E+03  0.16984957688E+02 -0.45755164164E+03  0.47751997153E+03  0.00000000000E+00 0. -1.
         -1    1    3    3    0  502 -0.51519047551E+02 -0.54055519181E+01 -0.66300009995E+02  0.84137527759E+02  0.00000000000E+00 0.  1.
         13    1    5    5    0    0 -0.13405406420E+03 -0.11845643843E+03  0.14897691131E+03  0.23280150351E+03  0.00000000000E+00 0. -1.
        -13    1    5    5    0    0 -0.16573479681E+02 -0.73814967628E+02  0.21351551044E+02  0.78608004723E+02  0.00000000000E+00 0.  1.
          4    1    6    6  503    0  0.29077955753E+03  0.18650652998E+03 -0.49402494344E+03  0.60282508370E+03  0.00000000000E+00 0. -1.
         -4    1    6    6    0  503  0.46952171942E+02 -0.58145296943E+01 -0.56867699488E+02  0.73974660869E+02  0.00000000000E+00 0.  1.
<mgrwt>
<rscale>  0 0.12586179E+04</rscale>
<asrwt>0</asrwt>
<pdfrwt beam="1">  1        2 0.18879097E+00 0.12586179E+04</pdfrwt>
<pdfrwt beam="2">  1       -1 0.49650071E-01 0.12586179E+04</pdfrwt>
<totfact> 0.83156409E+01</totfact>
</mgrwt>
</event>
<event>
12    7  0.1572140E-007  0.1873275E+04  0.7818608E-02  0.8668275E-01
          2   -1    0    0  501    0  0.00000000000E+00  0.00000000000E+00  0.30017902214E+04  0.30017902214E+04  0.00000000000E+00 0. -1.
         -1   -1    0    0    0  501 -0.00000000000E+00 -0.00000000000E+00 -0.29225557463E+03  0.29225557463E+03  0.00000000000E+00 0.  1.
         24    2    1    2    0    0  0.17189540134E+03 -0.50393265333E+03  0.19814951037E+03  0.57381864940E+03  0.80675063303E+02 0.  0.
        254    2    1    2    0    0 -0.17189540134E+03  0.50393265333E+03  0.25113851364E+04  0.27202271466E+04  0.89949112162E+03 0.  0.
         23    2    4    4    0    0  0.31551464494E+03  0.41572823090E+03  0.14968301057E+04  0.15875928136E+04  0.87012202193E+02 0.  0.
         23    2    4    4    0    0 -0.48741004628E+03  0.88204422428E+02  0.10145550306E+04  0.11326343329E+04  0.90498887759E+02 0.  0.
          4    1    3    3  502    0  0.48393683373E+02 -0.96399597392E+02  0.72012329630E+02  0.12969428124E+03  0.00000000000E+00 0. -1.
         -3    1    3    3    0  502  0.12350171797E+03 -0.40753305594E+03  0.12613718074E+03  0.44412436816E+03  0.00000000000E+00 0.  1.
         13    1    5    5    0    0  0.17286056642E+02  0.59146332914E+02  0.12972058310E+03  0.14361241636E+03  0.00000000000E+00 0. -1.
        -13    1    5    5    0    0  0.29822858830E+03  0.35658189799E+03  0.13671095226E+04  0.14439803973E+04  0.00000000000E+00 0.  1.
          2    1    6    6  503    0 -0.35589005826E+03  0.31652220704E+02  0.66519214982E+03  0.75507628279E+03  0.00000000000E+00 0.  1.
         -2    1    6    6    0  503 -0.13151998803E+03  0.56552201724E+02  0.34936288078E+03  0.37755805016E+03  0.00000000000E+00 0. -1.
<mgrwt>
<rscale>  0 0.18732751E+04</rscale>
<asrwt>0</asrwt>
<pdfrwt beam="1">  1        2 0.46181386E+00 0.18732751E+04</pdfrwt>
<pdfrwt beam="2">  1       -1 0.44962398E-01 0.18732751E+04</pdfrwt>
<totfact> 0.91313801E+00</totfact>
</mgrwt>
</event>
<event>
12    7  0.1572140E-007  0.1636350E+04  0.7818608E-02  0.8798523E-01
         -1   -1    0    0    0  501 -0.00000000000E+00  0.00000000000E+00  0.48796420491E+03  0.48796420491E+03  0.00000000000E+00 0.  1.
          2   -1    0    0  501    0  0.00000000000E+00 -0.00000000000E+00 -0.13718424826E+04  0.13718424826E+04  0.00000000000E+00 0. -1.
         24    2    1    2    0    0  0.38413830493E+03  0.19106265148E+03 -0.72726312795E+03  0.84790054214E+03  0.77178351748E+02 0.  0.
        254    2    1    2    0    0 -0.38413830493E+03 -0.19106265148E+03 -0.15661514974E+03  0.10119061454E+04  0.90297207476E+03 0.  0.
         23    2    4    4    0    0  0.95486080724E+02 -0.43375523018E+03 -0.95562791343E+02  0.46327029296E+03  0.90696890422E+02 0.  0.
         23    2    4    4    0    0 -0.47962438565E+03  0.24269257870E+03 -0.61052358398E+02  0.54863585241E+03  0.91294408463E+02 0.  0.
          2    1    3    3  502    0  0.23418884276E+03  0.10636335186E+03 -0.36199946000E+03  0.44407340129E+03  0.00000000000E+00 0. -1.
         -1    1    3    3    0  502  0.14994946216E+03  0.84699299615E+02 -0.36526366796E+03  0.40382714085E+03  0.00000000000E+00 0.  1.
         13    1    5    5    0    0 -0.47883525175E+01 -0.16471772423E+03 -0.17394758851E+02  0.16570285040E+03  0.00000000000E+00 0. -1.
        -13    1    5    5    0    0  0.10027443324E+03 -0.26903750595E+03 -0.78168032492E+02  0.29756744256E+03  0.00000000000E+00 0.  1.
          1    1    6    6  503    0 -0.22021334566E+03  0.11627684640E+03 -0.73947206904E+02  0.25977377086E+03  0.00000000000E+00 0. -1.
         -1    1    6    6    0  503 -0.25941103999E+03  0.12641573229E+03  0.12894848505E+02  0.28886208155E+03  0.00000000000E+00 0.  1.
<mgrwt>
<rscale>  0 0.16363496E+04</rscale>
<asrwt>0</asrwt>
<pdfrwt beam="1">  1        2 0.21105268E+00 0.16363496E+04</pdfrwt>
<pdfrwt beam="2">  1       -1 0.75071419E-01 0.16363496E+04</pdfrwt>
<totfact> 0.29211803E+01</totfact>
</mgrwt>
</event>
<event>
12    7  0.1606494E-007  0.1788900E+04  0.7818608E-02  0.8712225E-01
         -1   -1    0    0    0  501 -0.00000000000E+00  0.00000000000E+00  0.65912151300E+03  0.65912151300E+03  0.00000000000E+00 0.  1.
          2   -1    0    0  501    0  0.00000000000E+00 -0.00000000000E+00 -0.12137980617E+04  0.12137980617E+04  0.00000000000E+00 0. -1.
         24    2    1    2    0    0 -0.16456841252E+03  0.34618182375E+03  0.35860523366E+03  0.53076308546E+03  0.78658259489E+02 0.  0.
        254    2    1    2    0    0  0.16456841252E+03 -0.34618182375E+03 -0.91328178234E+03  0.13421564892E+04  0.90574599644E+03 0.  0.
         23    2    4    4    0    0 -0.43897387093E+02 -0.36814906823E+03 -0.10206517742E+04  0.10895669149E+04  0.89248533910E+02 0.  0.
         23    2    4    4    0    0  0.20846579962E+03  0.21967244482E+02  0.10736999186E+03  0.25258957432E+03  0.91283232099E+02 0.  0.
          4    1    3    3  502    0 -0.33865296224E+00  0.72139337896E+01 -0.37214500328E+01  0.81243287044E+01  0.00000000000E+00 0. -1.
         -3    1    3    3    0  502 -0.16422975956E+03  0.33896788996E+03  0.36232668370E+03  0.52263875676E+03  0.00000000000E+00 0.  1.
         13    1    5    5    0    0 -0.14676746036E+02 -0.27757062494E+03 -0.84836332538E+03  0.89273803019E+03  0.00000000000E+00 0. -1.
        -13    1    5    5    0    0 -0.29220641057E+02 -0.90578443291E+02 -0.17228844882E+03  0.19682888469E+03  0.00000000000E+00 0.  1.
          3    1    6    6  503    0  0.16675282584E+03 -0.14131389139E+02  0.10461055001E+03  0.19735644975E+03  0.00000000000E+00 0. -1.
         -3    1    6    6    0  503  0.41712973781E+02  0.36098633621E+02  0.27594418557E+01  0.55233124575E+02  0.00000000000E+00 0.  1.
<mgrwt>
<rscale>  0 0.17888996E+04</rscale>
<asrwt>0</asrwt>
<pdfrwt beam="1">  1        2 0.18673816E+00 0.17888996E+04</pdfrwt>
<pdfrwt beam="2">  1       -1 0.10140331E+00 0.17888996E+04</pdfrwt>
<totfact> 0.18484306E+01</totfact>
</mgrwt>
</event>
<event>
12    7  0.1572140E-007  0.6232101E+04  0.7818608E-02  0.7662272E-01
         -1   -1    0    0    0  501 -0.00000000000E+00  0.00000000000E+00  0.28980757784E+04  0.28980757784E+04  0.00000000000E+00 0.  1.
          2   -1    0    0  501    0  0.00000000000E+00 -0.00000000000E+00 -0.33504201404E+04  0.33504201404E+04  0.00000000000E+00 0. -1.
         24    2    1    2    0    0  0.25702438280E+04  0.14660488917E+04  0.52190322566E+03  0.30056827489E+04  0.79329201090E+02 0.  0.
        254    2    1    2    0    0 -0.25702438280E+04 -0.14660488917E+04 -0.97424758770E+03  0.32428131699E+04  0.90068096739E+03 0.  0.
         23    2    4    4    0    0 -0.13500231972E+04 -0.91426260590E+03 -0.89649123191E+02  0.16352177302E+04  0.86378899630E+02 0.  0.
         23    2    4    4    0    0 -0.12202206308E+04 -0.55178628581E+03 -0.88459846450E+03  0.16075954398E+04  0.91881236399E+02 0.  0.
          4    1    3    3  502    0  0.19464385793E+04  0.10717665866E+04  0.39971135249E+03  0.22576704641E+04  0.00000000000E+00 0. -1.
         -3    1    3    3    0  502  0.62380524861E+03  0.39428230508E+03  0.12219187317E+03  0.74801228477E+03  0.00000000000E+00 0.  1.
         13    1    5    5    0    0 -0.83781205703E+02 -0.40047688564E+02 -0.19662182863E+02  0.94919488111E+02  0.00000000000E+00 0.  1.
        -13    1    5    5    0    0 -0.12662419915E+04 -0.87421491733E+03 -0.69986940328E+02  0.15402982421E+04  0.00000000000E+00 0. -1.
          2    1    6    6  503    0 -0.97853485893E+03 -0.44472698514E+03 -0.66495222812E+03  0.12639121912E+04  0.00000000000E+00 0. -1.
         -2    1    6    6    0  503 -0.24168577182E+03 -0.10705930066E+03 -0.21964623638E+03  0.34368324852E+03  0.00000000000E+00 0.  1.
<mgrwt>
<rscale>  0 0.62321012E+04</rscale>
<asrwt>0</asrwt>
<pdfrwt beam="1">  1        2 0.51544925E+00 0.62321012E+04</pdfrwt>
<pdfrwt beam="2">  1       -1 0.44585781E+00 0.62321012E+04</pdfrwt>
<totfact> 0.26860865E-03</totfact>
</mgrwt>
</event>
<event>
12    7  0.1572140E-007  0.1354666E+04  0.7818608E-02  0.8987303E-01
          2   -1    0    0  501    0  0.00000000000E+00  0.00000000000E+00  0.23101529537E+04  0.23101529537E+04  0.00000000000E+00 0. -1.
         -1   -1    0    0    0  501 -0.00000000000E+00 -0.00000000000E+00 -0.19859298520E+03  0.19859298520E+03  0.00000000000E+00 0.  1.
         24    2    1    2    0    0 -0.17942467189E+03  0.46178147081E+02  0.26570489495E+01  0.20732907561E+03  0.93019629846E+02 0.  0.
        254    2    1    2    0    0  0.17942467189E+03 -0.46178147081E+02  0.21089029196E+04  0.23014168633E+04  0.90261975403E+03 0.  0.
         23    2    4    4    0    0  0.63854161497E+01  0.41251241814E+03  0.97345514257E+03  0.10611705783E+04  0.90889014730E+02 0.  0.
         23    2    4    4    0    0  0.17303925574E+03 -0.45869056522E+03  0.11354477770E+04  0.12402462850E+04  0.92895503217E+02 0.  0.
          4    1    3    3  502    0 -0.79496694598E+02 -0.93288858493E+01 -0.34459496831E+02  0.87144761661E+02  0.00000000000E+00 0. -1.
         -3    1    3    3    0  502 -0.99927977289E+02  0.55507032930E+02  0.37116545781E+02  0.12018431395E+03  0.00000000000E+00 0.  1.
         13    1    5    5    0    0 -0.35188235079E+02  0.30293810634E+03  0.68550779735E+03  0.75028704400E+03  0.00000000000E+00 0. -1.
        -13    1    5    5    0    0  0.41573651229E+02  0.10957431179E+03  0.28794734522E+03  0.31088353430E+03  0.00000000000E+00 0.  1.
          4    1    6    6  503    0  0.33371299739E+02 -0.19180950182E+03  0.38028289339E+03  0.42722313566E+03  0.00000000000E+00 0. -1.
         -4    1    6    6    0  503  0.13966795600E+03 -0.26688106340E+03  0.75516488362E+03  0.81302314935E+03  0.00000000000E+00 0.  1.
<mgrwt>
<rscale>  0 0.13546663E+04</rscale>
<asrwt>0</asrwt>
<pdfrwt beam="1">  1        2 0.35540813E+00 0.13546663E+04</pdfrwt>
<pdfrwt beam="2">  1       -1 0.30552769E-01 0.13546663E+04</pdfrwt>
<totfact> 0.49290162E+01</totfact>
</mgrwt>
</event>
<event>
12    7  0.1572140E-007  0.3517706E+04  0.7818608E-02  0.8109607E-01
         -1   -1    0    0    0  501 -0.00000000000E+00  0.00000000000E+00  0.16898488543E+04  0.16898488543E+04  0.00000000000E+00 0.  1.
          2   -1    0    0  501    0  0.00000000000E+00 -0.00000000000E+00 -0.18306745805E+04  0.18306745805E+04  0.00000000000E+00 0. -1.
         24    2    1    2    0    0  0.72592000560E+03  0.11801561853E+03 -0.15363001772E+04  0.17050947853E+04  0.79009187365E+02 0.  0.
        254    2    1    2    0    0 -0.72592000560E+03 -0.11801561853E+03  0.13954744511E+04  0.18154286495E+04  0.89863490749E+03 0.  0.
         23    2    4    4    0    0  0.59711423377E+02  0.18558341702E+03  0.41664036812E+02  0.21879078737E+03  0.90149087176E+02 0.  0.
         23    2    4    4    0    0 -0.78563142898E+03 -0.30359903555E+03  0.13538104143E+04  0.15966378621E+04  0.84028021144E+02 0.  0.
          2    1    3    3  502    0  0.36853162031E+03  0.69796771203E+02 -0.87130891604E+03  0.94861286709E+03  0.00000000000E+00 0. -1.
         -1    1    3    3    0  502  0.35738838530E+03  0.48218847327E+02 -0.66499126118E+03  0.75648191824E+03  0.00000000000E+00 0.  1.
         13    1    5    5    0    0  0.10571205069E+02  0.10960521223E+03  0.61547579102E+02  0.12614736390E+03  0.00000000000E+00 0. -1.
        -13    1    5    5    0    0  0.49140218307E+02  0.75978204792E+02 -0.19883542290E+02  0.92643423473E+02  0.00000000000E+00 0.  1.
          1    1    6    6  503    0 -0.68571266776E+02 -0.23252908688E+01  0.10539401887E+03  0.12575899498E+03  0.00000000000E+00 0. -1.
         -1    1    6    6    0  503 -0.71706016220E+03 -0.30127374468E+03  0.12484163954E+04  0.14708788671E+04  0.00000000000E+00 0.  1.
<mgrwt>
<rscale>  0 0.35177057E+04</rscale>
<asrwt>0</asrwt>
<pdfrwt beam="1">  1        2 0.28164224E+00 0.35177057E+04</pdfrwt>
<pdfrwt beam="2">  1       -1 0.25997675E+00 0.35177057E+04</pdfrwt>
<totfact> 0.46495621E-01</totfact>
</mgrwt>
</event>
<event>
12    7  0.1572140E-007  0.2241134E+04  0.7818608E-02  0.8501500E-01
          2   -1    0    0  501    0  0.00000000000E+00  0.00000000000E+00  0.34946110472E+04  0.34946110472E+04  0.00000000000E+00 0. -1.
         -3   -1    0    0    0  501 -0.00000000000E+00 -0.00000000000E+00 -0.35931634235E+03  0.35931634235E+03  0.00000000000E+00 0.  1.
         24    2    1    2    0    0 -0.80431645909E+02 -0.92900783278E+03  0.15129183810E+04  0.17789844356E+04  0.79616528711E+02 0.  0.
        254    2    1    2    0    0  0.80431645909E+02  0.92900783278E+03  0.16223763239E+04  0.20749429539E+04  0.89652580712E+03 0.  0.
         23    2    4    4    0    0 -0.30577663458E+03  0.61267026130E+03  0.13061253494E+04  0.14771577932E+04  0.84661197954E+02 0.  0.
         23    2    4    4    0    0  0.38620828049E+03  0.31633757147E+03  0.31625097449E+03  0.59778516072E+03  0.90034018383E+02 0.  0.
          4    1    3    3  502    0 -0.52064468013E+02 -0.85326290311E+03  0.13731994660E+04  0.16175429095E+04  0.00000000000E+00 0. -1.
         -3    1    3    3    0  502 -0.28367177896E+02 -0.75744929668E+02  0.13971891504E+03  0.16144152617E+03  0.00000000000E+00 0.  1.
         13    1    5    5    0    0 -0.78094228868E+01  0.42698934322E+02  0.12428929864E+03  0.13165111406E+03  0.00000000000E+00 0. -1.
        -13    1    5    5    0    0 -0.29796721169E+03  0.56997132698E+03  0.11818360508E+04  0.13455066792E+04  0.00000000000E+00 0.  1.
          3    1    6    6  503    0  0.13483765263E+03  0.67351499981E+02  0.66699241432E+02  0.16482173984E+03  0.00000000000E+00 0. -1.
         -3    1    6    6    0  503  0.25137062786E+03  0.24898607149E+03  0.24955173306E+03  0.43296342088E+03  0.00000000000E+00 0.  1.
<mgrwt>
<rscale>  0 0.22411344E+04</rscale>
<asrwt>0</asrwt>
<pdfrwt beam="1">  1        2 0.53763245E+00 0.22411344E+04</pdfrwt>
<pdfrwt beam="2">  1       -3 0.55279440E-01 0.22411344E+04</pdfrwt>
<totfact> 0.15600191E+00</totfact>
</mgrwt>
</event>
<event>
12    7  0.1572140E-007  0.1392595E+04  0.7818608E-02  0.8959196E-01
         -1   -1    0    0    0  501 -0.00000000000E+00  0.00000000000E+00  0.25884014075E+03  0.25884014075E+03  0.00000000000E+00 0.  1.
          2   -1    0    0  501    0  0.00000000000E+00 -0.00000000000E+00 -0.18730862632E+04  0.18730862632E+04  0.00000000000E+00 0. -1.
         24    2    1    2    0    0  0.29703547072E+03  0.26194989514E+03 -0.41249220317E+03  0.57734924784E+03  0.79589684435E+02 0.  0.
        254    2    1    2    0    0 -0.29703547072E+03 -0.26194989514E+03 -0.12017539193E+04  0.15545771561E+04  0.90313334197E+03 0.  0.
         23    2    4    4    0    0 -0.59735298741E+03 -0.25318461700E+03 -0.66952075792E+03  0.93670900066E+03  0.90734033209E+02 0.  0.
         23    2    4    4    0    0  0.30031751669E+03 -0.87652781406E+01 -0.53223316138E+03  0.61786815547E+03  0.90672369199E+02 0.  0.
          2    1    3    3  502    0  0.17934552107E+02  0.51023995352E+02 -0.52649228974E+02  0.75478722648E+02  0.00000000000E+00 0. -1.
         -1    1    3    3    0  502  0.27910091862E+03  0.21092589979E+03 -0.35984297420E+03  0.50187052519E+03  0.00000000000E+00 0.  1.
         13    1    5    5    0    0 -0.23251075828E+03 -0.52660131291E+02 -0.25946502608E+03  0.35235839979E+03  0.00000000000E+00 0. -1.
        -13    1    5    5    0    0 -0.36484222913E+03 -0.20052448571E+03 -0.41005573184E+03  0.58435060087E+03  0.00000000000E+00 0.  1.
          1    1    6    6  503    0 -0.24309585469E+01 -0.72138721353E+01 -0.30491694284E+01  0.82004234552E+01  0.00000000000E+00 0. -1.
         -1    1    6    6    0  503  0.30274847524E+03 -0.15514060052E+01 -0.52918399195E+03  0.60966773201E+03  0.00000000000E+00 0.  1.
<mgrwt>
<rscale>  0 0.13925946E+04</rscale>
<asrwt>0</asrwt>
<pdfrwt beam="1">  1        2 0.28816712E+00 0.13925946E+04</pdfrwt>
<pdfrwt beam="2">  1       -1 0.39821560E-01 0.13925946E+04</pdfrwt>
<totfact> 0.53554919E+01</totfact>
</mgrwt>
</event>
<event>
12    7  0.1572140E-007  0.1373063E+04  0.7818608E-02  0.8973551E-01
         -1   -1    0    0    0  501 -0.00000000000E+00  0.00000000000E+00  0.35318223612E+03  0.35318223612E+03  0.00000000000E+00 0.  1.
          2   -1    0    0  501    0  0.00000000000E+00 -0.00000000000E+00 -0.13345107438E+04  0.13345107438E+04  0.00000000000E+00 0. -1.
         24    2    1    2    0    0  0.19865905320E+03  0.23423009226E+03 -0.57055410563E+03  0.65691332348E+03  0.10804615488E+03 0.  0.
        254    2    1    2    0    0 -0.19865905320E+03 -0.23423009226E+03 -0.41077440210E+03  0.10307796565E+04  0.89411516890E+03 0.  0.
         23    2    4    4    0    0 -0.42237052381E+03 -0.47162619947E+02  0.91472846845E+02  0.44243990815E+03  0.82247300938E+02 0.  0.
         23    2    4    4    0    0  0.22371147062E+03 -0.18706747231E+03 -0.50224724894E+03  0.58833974832E+03  0.94076028314E+02 0.  0.
          2    1    3    3  502    0  0.17873678427E+03  0.24466613122E+03 -0.53495771770E+03  0.61480737922E+03  0.00000000000E+00 0. -1.
         -1    1    3    3    0  502  0.19922268927E+02 -0.10436038967E+02 -0.35596387929E+02  0.42105944261E+02  0.00000000000E+00 0.  1.
         13    1    5    5    0    0 -0.36924948532E+03 -0.40094039036E+02  0.50195154244E+02  0.37479630185E+03  0.00000000000E+00 0. -1.
        -13    1    5    5    0    0 -0.53121038496E+02 -0.70685809113E+01  0.41277692602E+02  0.67643606302E+02  0.00000000000E+00 0.  1.
          4    1    6    6  503    0  0.16332119423E+02 -0.13820962820E+02 -0.10975157096E+03  0.11181754990E+03  0.00000000000E+00 0.  1.
         -4    1    6    6    0  503  0.20737935119E+03 -0.17324650949E+03 -0.39249567799E+03  0.47652219842E+03  0.00000000000E+00 0. -1.
<mgrwt>
<rscale>  0 0.13730630E+04</rscale>
<asrwt>0</asrwt>
<pdfrwt beam="1">  1        2 0.20530934E+00 0.13730630E+04</pdfrwt>
<pdfrwt beam="2">  1       -1 0.54335729E-01 0.13730630E+04</pdfrwt>
<totfact> 0.60010832E+01</totfact>
</mgrwt>
</event>
<event>
12    7  0.1572140E-007  0.1075845E+04  0.7818608E-02  0.9229060E-01
          2   -1    0    0  501    0  0.00000000000E+00  0.00000000000E+00  0.26242612528E+03  0.26242612528E+03  0.00000000000E+00 0. -1.
         -1   -1    0    0    0  501 -0.00000000000E+00 -0.00000000000E+00 -0.11026372732E+04  0.11026372732E+04  0.00000000000E+00 0.  1.
         24    2    1    2    0    0  0.31512134250E+02  0.14791113237E+03 -0.92887720069E+02  0.19578736948E+03  0.82667090333E+02 0.  0.
        254    2    1    2    0    0 -0.31512134250E+02 -0.14791113237E+03 -0.74732342782E+03  0.11692760290E+04  0.88647809249E+03 0.  0.
         23    2    4    4    0    0  0.82798496431E+02  0.23577809792E+03 -0.70620933439E+03  0.75595410399E+03  0.10143017740E+03 0.  0.
         23    2    4    4    0    0 -0.11431063068E+03 -0.38368923030E+03 -0.41114093430E+02  0.41332192498E+03  0.94129162635E+02 0.  0.
          2    1    3    3  502    0  0.54206575387E+02  0.13117354121E+03 -0.64933930935E+02  0.15608096013E+03  0.00000000000E+00 0. -1.
         -1    1    3    3    0  502 -0.22694441137E+02  0.16737591159E+02 -0.27953789134E+02  0.39706409348E+02  0.00000000000E+00 0.  1.
         13    1    5    5    0    0  0.28957494720E+01  0.50672651740E+02 -0.57793092474E+02  0.76916477669E+02  0.00000000000E+00 0. -1.
        -13    1    5    5    0    0  0.79902746959E+02  0.18510544618E+03 -0.64841624191E+03  0.67903762632E+03  0.00000000000E+00 0.  1.
          2    1    6    6  503    0 -0.20211716285E+02 -0.23073163423E+03 -0.26997738075E+02  0.23318335783E+03  0.00000000000E+00 0.  1.
         -2    1    6    6    0  503 -0.94098914396E+02 -0.15295759607E+03 -0.14116355355E+02  0.18013856715E+03  0.00000000000E+00 0. -1.
<mgrwt>
<rscale>  0 0.10758454E+04</rscale>
<asrwt>0</asrwt>
<pdfrwt beam="1">  1        2 0.40373250E-01 0.10758454E+04</pdfrwt>
<pdfrwt beam="2">  1       -1 0.16963650E+00 0.10758454E+04</pdfrwt>
<totfact> 0.35991530E+01</totfact>
</mgrwt>
</event>
<event>
12    7  0.1572140E-007  0.3381035E+04  0.7818608E-02  0.8142577E-01
          2   -1    0    0  501    0  0.00000000000E+00  0.00000000000E+00  0.29592779381E+04  0.29592779381E+04  0.00000000000E+00 0. -1.
         -1   -1    0    0    0  501 -0.00000000000E+00 -0.00000000000E+00 -0.96572521833E+03  0.96572521833E+03  0.00000000000E+00 0.  1.
         24    2    1    2    0    0  0.32936785131E+03 -0.14308340133E+04  0.28107773111E+03  0.14970747397E+04  0.80367470042E+02 0.  0.
        254    2    1    2    0    0 -0.32936785131E+03  0.14308340133E+04  0.17124749887E+04  0.24279284167E+04  0.89805158797E+03 0.  0.
         23    2    4    4    0    0 -0.14437653021E+03  0.22319610205E+03  0.93561857461E+03  0.97708796244E+03  0.93046691216E+02 0.  0.
         23    2    4    4    0    0 -0.18499132110E+03  0.12076379113E+04  0.77685641408E+03  0.14508404543E+04  0.93920296251E+02 0.  0.
          4    1    3    3  502    0  0.31896757908E+02 -0.63298615946E+02  0.10767734947E+02  0.71694226138E+02  0.00000000000E+00 0. -1.
         -3    1    3    3    0  502  0.29747109341E+03 -0.13675353974E+04  0.27030999616E+03  0.14253805136E+04  0.00000000000E+00 0.  1.
         13    1    5    5    0    0 -0.11539799926E+03  0.18841463076E+03  0.86825040332E+03  0.89592161163E+03  0.00000000000E+00 0.  1.
        -13    1    5    5    0    0 -0.28978530947E+02  0.34781471296E+02  0.67368171287E+02  0.81166350811E+02  0.00000000000E+00 0. -1.
          1    1    6    6  503    0 -0.92565260353E+02  0.36784542063E+03  0.27008854728E+03  0.46564622223E+03  0.00000000000E+00 0. -1.
         -1    1    6    6    0  503 -0.92426060751E+02  0.83979249065E+03  0.50676786679E+03  0.98519423205E+03  0.00000000000E+00 0.  1.
<mgrwt>
<rscale>  0 0.33810349E+04</rscale>
<asrwt>0</asrwt>
<pdfrwt beam="1">  1        2 0.45527352E+00 0.33810349E+04</pdfrwt>
<pdfrwt beam="2">  1       -1 0.14857311E+00 0.33810349E+04</pdfrwt>
<totfact> 0.62243152E-01</totfact>
</mgrwt>
</event>
<event>
12    7  0.1572140E-007  0.1791339E+04  0.7818608E-02  0.8710919E-01
         -1   -1    0    0    0  501 -0.00000000000E+00  0.00000000000E+00  0.28165588742E+03  0.28165588742E+03  0.00000000000E+00 0.  1.
          2   -1    0    0  501    0  0.00000000000E+00 -0.00000000000E+00 -0.28482409286E+04  0.28482409286E+04  0.00000000000E+00 0. -1.
         24    2    1    2    0    0  0.49970776907E+03  0.34339381489E+03 -0.47381982330E+03  0.77397386349E+03  0.83085196266E+02 0.  0.
        254    2    1    2    0    0 -0.49970776907E+03 -0.34339381489E+03 -0.20927652179E+04  0.23559229526E+04  0.89614704964E+03 0.  0.
         23    2    4    4    0    0 -0.44106175419E+03 -0.31038272143E+03 -0.21572445317E+04  0.22254735847E+04  0.90309477002E+02 0.  0.
         23    2    4    4    0    0 -0.58646014882E+02 -0.33011093463E+02  0.64479313838E+02  0.13044936788E+03  0.91270851393E+02 0.  0.
          2    1    3    3  502    0  0.32178557942E+03  0.20322687780E+03 -0.24878728501E+03  0.45468916434E+03  0.00000000000E+00 0. -1.
         -1    1    3    3    0  502  0.17792218965E+03  0.14016693709E+03 -0.22503253829E+03  0.31928469915E+03  0.00000000000E+00 0.  1.
         13    1    5    5    0    0 -0.38252619950E+03 -0.30014500730E+03 -0.18728266699E+04  0.19349142240E+04  0.00000000000E+00 0. -1.
        -13    1    5    5    0    0 -0.58535554685E+02 -0.10237714130E+02 -0.28441786186E+03  0.29055936072E+03  0.00000000000E+00 0.  1.
          3    1    6    6  503    0  0.11144583815E+02  0.16210399261E+02  0.34914249226E+02  0.40074725097E+02  0.00000000000E+00 0. -1.
         -3    1    6    6    0  503 -0.69790598697E+02 -0.49221492725E+02  0.29565064612E+02  0.90374642782E+02  0.00000000000E+00 0.  1.
<mgrwt>
<rscale>  0 0.17913390E+04</rscale>
<asrwt>0</asrwt>
<pdfrwt beam="1">  1        2 0.43819090E+00 0.17913390E+04</pdfrwt>
<pdfrwt beam="2">  1       -1 0.43331676E-01 0.17913390E+04</pdfrwt>
<totfact> 0.12252135E+01</totfact>
</mgrwt>
</event>
<event>
12    7  0.1572140E-007  0.3042672E+04  0.7818608E-02  0.8231650E-01
          2   -1    0    0  501    0  0.00000000000E+00  0.00000000000E+00  0.27087726982E+04  0.27087726982E+04  0.00000000000E+00 0. -1.
         -1   -1    0    0    0  501 -0.00000000000E+00 -0.00000000000E+00 -0.85443221458E+03  0.85443221458E+03  0.00000000000E+00 0.  1.
         24    2    1    2    0    0  0.57636007399E+03 -0.45360081479E+03  0.22274628821E+04  0.23464399258E+04  0.79024048262E+02 0.  0.
        254    2    1    2    0    0 -0.57636007399E+03  0.45360081479E+03 -0.37312239850E+03  0.12167649870E+04  0.89629909918E+03 0.  0.
         23    2    4    4    0    0 -0.25385287223E+03 -0.24378789734E+03 -0.23124132682E+03  0.43031014706E+03  0.88433318396E+02 0.  0.
         23    2    4    4    0    0 -0.32250720176E+03  0.69738871212E+03 -0.14188107167E+03  0.78645483991E+03  0.89549236349E+02 0.  0.
          2    1    3    3  502    0  0.54022549661E+03 -0.44142373438E+03  0.20688975891E+04  0.21833542394E+04  0.00000000000E+00 0. -1.
         -1    1    3    3    0  502  0.36134577385E+02 -0.12177080406E+02  0.15856529303E+03  0.16308568644E+03  0.00000000000E+00 0.  1.
         13    1    5    5    0    0 -0.12755156750E+03 -0.10274316014E+03 -0.15719803854E+03  0.22701714175E+03  0.00000000000E+00 0.  1.
        -13    1    5    5    0    0 -0.12630130473E+03 -0.14104473720E+03 -0.74043288283E+02  0.20329300531E+03  0.00000000000E+00 0. -1.
          2    1    6    6  503    0 -0.29408061355E+03  0.59823468233E+03 -0.95713321308E+02  0.67344575304E+03  0.00000000000E+00 0.  1.
         -2    1    6    6    0  503 -0.28426588212E+02  0.99154029792E+02 -0.46167750364E+02  0.11300908687E+03  0.00000000000E+00 0. -1.
<mgrwt>
<rscale>  0 0.30426716E+04</rscale>
<asrwt>0</asrwt>
<pdfrwt beam="1">  1        2 0.41673426E+00 0.30426716E+04</pdfrwt>
<pdfrwt beam="2">  1       -1 0.13145111E+00 0.30426716E+04</pdfrwt>
<totfact> 0.12534988E+00</totfact>
</mgrwt>
</event>
<event>
12    7  0.1572140E-007  0.1743012E+04  0.7818608E-02  0.8737206E-01
          2   -1    0    0  501    0  0.00000000000E+00  0.00000000000E+00  0.95188906836E+03  0.95188906836E+03  0.00000000000E+00 0. -1.
         -1   -1    0    0    0  501 -0.00000000000E+00 -0.00000000000E+00 -0.79791128315E+03  0.79791128315E+03  0.00000000000E+00 0.  1.
         24    2    1    2    0    0  0.88829352374E+02  0.44304882946E+03 -0.39681329093E+03  0.60657755118E+03  0.79326027307E+02 0.  0.
        254    2    1    2    0    0 -0.88829352374E+02 -0.44304882946E+03  0.55079107613E+03  0.11432228003E+04  0.89409431410E+03 0.  0.
         23    2    4    4    0    0  0.35110196569E+03 -0.35520842795E+03  0.44105292118E+03  0.67264461918E+03  0.92073268793E+02 0.  0.
         23    2    4    4    0    0 -0.43993131806E+03 -0.87840401514E+02  0.10973815496E+03  0.47057818115E+03  0.90254424661E+02 0.  0.
          4    1    3    3  502    0 -0.11649213769E+02  0.72079175378E+02 -0.81734252036E+02  0.10959744368E+03  0.00000000000E+00 0. -1.
         -3    1    3    3    0  502  0.10047856614E+03  0.37096965408E+03 -0.31507903889E+03  0.49698010750E+03  0.00000000000E+00 0.  1.
         13    1    5    5    0    0  0.21879072122E+03 -0.18545521577E+03  0.20099423161E+03  0.35023092081E+03  0.00000000000E+00 0.  1.
        -13    1    5    5    0    0  0.13231124447E+03 -0.16975321218E+03  0.24005868956E+03  0.32241369837E+03  0.00000000000E+00 0. -1.
          4    1    6    6  503    0 -0.24427285134E+02 -0.18391969911E+02 -0.10760850379E+02  0.32415316089E+02  0.00000000000E+00 0. -1.
         -4    1    6    6    0  503 -0.41550403293E+03 -0.69448431602E+02  0.12049900533E+03  0.43816286506E+03  0.00000000000E+00 0.  1.
<mgrwt>
<rscale>  0 0.17430124E+04</rscale>
<asrwt>0</asrwt>
<pdfrwt beam="1">  1        2 0.14644447E+00 0.17430124E+04</pdfrwt>
<pdfrwt beam="2">  1       -1 0.12275558E+00 0.17430124E+04</pdfrwt>
<totfact> 0.17151643E+01</totfact>
</mgrwt>
</event>
<event>
12    7  0.1572140E-007  0.2289712E+04  0.7818608E-02  0.8481989E-01
         -1   -1    0    0    0  501 -0.00000000000E+00  0.00000000000E+00  0.12298526676E+04  0.12298526676E+04  0.00000000000E+00 0.  1.
          2   -1    0    0  501    0  0.00000000000E+00 -0.00000000000E+00 -0.10657337498E+04  0.10657337498E+04  0.00000000000E+00 0. -1.
         24    2    1    2    0    0 -0.27832309407E+02 -0.96042012471E+03  0.85601349184E+02  0.96791474315E+03  0.79686295107E+02 0.  0.
        254    2    1    2    0    0  0.27832309407E+02  0.96042012471E+03  0.78517568634E+02  0.13276716743E+04  0.91288860920E+03 0.  0.
         23    2    4    4    0    0 -0.19271230128E+03  0.56175452479E+02  0.29459067421E+03  0.36781624487E+03  0.90616842440E+02 0.  0.
         23    2    4    4    0    0  0.22054461069E+03  0.90424467223E+03 -0.21607310557E+03  0.95985542945E+03  0.91304468258E+02 0.  0.
          2    1    3    3  502    0 -0.20458732506E+02 -0.84540638273E+03  0.10090722144E+03  0.85165296867E+03  0.00000000000E+00 0. -1.
         -1    1    3    3    0  502 -0.73735769018E+01 -0.11501374198E+03 -0.15305872259E+02  0.11626177449E+03  0.00000000000E+00 0.  1.
         13    1    5    5    0    0 -0.78331507176E+02  0.54759333809E+02  0.79983237331E+02  0.12462635319E+03  0.00000000000E+00 0. -1.
        -13    1    5    5    0    0 -0.11438079411E+03  0.14161186699E+01  0.21460743688E+03  0.24318989168E+03  0.00000000000E+00 0.  1.
          3    1    6    6  503    0  0.27628776344E+02  0.51332898392E+02  0.30045187971E+01  0.58373306166E+02  0.00000000000E+00 0. -1.
         -3    1    6    6    0  503  0.19291583435E+03  0.85291177384E+03 -0.21907762437E+03  0.90148212328E+03  0.00000000000E+00 0.  1.
<mgrwt>
<rscale>  0 0.22897122E+04</rscale>
<asrwt>0</asrwt>
<pdfrwt beam="1">  1        2 0.16395904E+00 0.22897122E+04</pdfrwt>
<pdfrwt beam="2">  1       -1 0.18920810E+00 0.22897122E+04</pdfrwt>
<totfact> 0.42370361E+00</totfact>
</mgrwt>
</event>
<event>
12    7  0.1572140E-007  0.2595196E+04  0.7818608E-02  0.8369835E-01
          2   -1    0    0  501    0  0.00000000000E+00  0.00000000000E+00  0.34510690971E+04  0.34510690971E+04  0.00000000000E+00 0. -1.
         -1   -1    0    0    0  501 -0.00000000000E+00 -0.00000000000E+00 -0.48789520238E+03  0.48789520238E+03  0.00000000000E+00 0.  1.
         24    2    1    2    0    0 -0.10736116362E+04 -0.27805084606E+03  0.16893484647E+04  0.20223878128E+04  0.78740153688E+02 0.  0.
        254    2    1    2    0    0  0.10736116362E+04  0.27805084606E+03  0.12738254300E+04  0.19165764867E+04  0.90591389482E+03 0.  0.
         23    2    4    4    0    0  0.58159700887E+03 -0.14688173652E+03  0.16571977780E+03  0.62895518754E+03  0.91061835761E+02 0.  0.
         23    2    4    4    0    0  0.49201462730E+03  0.42493258257E+03  0.11081056522E+04  0.12876212991E+04  0.86164844014E+02 0.  0.
          4    1    3    3  502    0 -0.87924759117E+03 -0.19699418892E+03  0.13544626651E+04  0.16267919806E+04  0.00000000000E+00 0. -1.
         -3    1    3    3    0  502 -0.19436404500E+03 -0.81056657138E+02  0.33488579965E+03  0.39559583221E+03  0.00000000000E+00 0.  1.
         13    1    5    5    0    0  0.58496142216E+03 -0.14708110229E+03  0.16593670748E+03  0.62557789839E+03  0.00000000000E+00 0. -1.
        -13    1    5    5    0    0 -0.33644132925E+01  0.19936577108E+00 -0.21692967561E+00  0.33772891493E+01  0.00000000000E+00 0.  1.
          3    1    6    6  503    0  0.41928471102E+03  0.36743381132E+03  0.88424559064E+03  0.10453217395E+04  0.00000000000E+00 0. -1.
         -3    1    6    6    0  503  0.72729916283E+02  0.57498771249E+02  0.22386006155E+03  0.24229955958E+03  0.00000000000E+00 0.  1.
<mgrwt>
<rscale>  0 0.25951956E+04</rscale>
<asrwt>0</asrwt>
<pdfrwt beam="1">  1        2 0.53093369E+00 0.25951956E+04</pdfrwt>
<pdfrwt beam="2">  1       -1 0.75060803E-01 0.25951956E+04</pdfrwt>
<totfact> 0.15801280E+00</totfact>
</mgrwt>
</event>
<event>
12    7  0.1572140E-007  0.1309851E+04  0.7818608E-02  0.9021789E-01
         -1   -1    0    0    0  501 -0.00000000000E+00  0.00000000000E+00  0.13877843911E+04  0.13877843911E+04  0.00000000000E+00 0.  1.
          2   -1    0    0  501    0  0.00000000000E+00 -0.00000000000E+00 -0.30907371855E+03  0.30907371855E+03  0.00000000000E+00 0. -1.
         24    2    1    2    0    0 -0.19297863186E+03 -0.17316468997E+03  0.75186021869E-01  0.27140925656E+03  0.80226034963E+02 0.  0.
        254    2    1    2    0    0  0.19297863186E+03  0.17316468997E+03  0.10786354865E+04  0.14254488531E+04  0.89511069582E+03 0.  0.
         23    2    4    4    0    0 -0.22026325627E+03  0.17002363524E+03  0.93129957925E+03  0.97643647122E+03  0.93195157701E+02 0.  0.
         23    2    4    4    0    0  0.41324188813E+03  0.31410547225E+01  0.14733590725E+03  0.44901238185E+03  0.95527614623E+02 0.  0.
          2    1    3    3  502    0 -0.16016806135E+03 -0.15325632216E+03  0.28704436309E+02  0.22352908720E+03  0.00000000000E+00 0. -1.
         -1    1    3    3    0  502 -0.32810570511E+02 -0.19908367802E+02 -0.28629250287E+02  0.47880169359E+02  0.00000000000E+00 0.  1.
         13    1    5    5    0    0 -0.76431422128E+02  0.31440894530E+02  0.16507730229E+03  0.18460988021E+03  0.00000000000E+00 0. -1.
        -13    1    5    5    0    0 -0.14383183414E+03  0.13858274071E+03  0.76622227696E+03  0.79182659102E+03  0.00000000000E+00 0.  1.
          2    1    6    6  503    0  0.44620400017E+02  0.83808287009E+01  0.50377296289E+02  0.67816593609E+02  0.00000000000E+00 0. -1.
         -2    1    6    6    0  503  0.36862148811E+03 -0.52397739784E+01  0.96958610964E+02  0.38119578824E+03  0.00000000000E+00 0.  1.
<mgrwt>
<rscale>  0 0.13098514E+04</rscale>
<asrwt>0</asrwt>
<pdfrwt beam="1">  1        2 0.47549804E-01 0.13098514E+04</pdfrwt>
<pdfrwt beam="2">  1       -1 0.21350529E+00 0.13098514E+04</pdfrwt>
<totfact> 0.14506010E+01</totfact>
</mgrwt>
</event>
<event>
12    7  0.1572140E-007  0.2283306E+04  0.7818608E-02  0.8484533E-01
         -1   -1    0    0    0  501 -0.00000000000E+00  0.00000000000E+00  0.36634887800E+03  0.36634887800E+03  0.00000000000E+00 0.  1.
          2   -1    0    0  501    0  0.00000000000E+00 -0.00000000000E+00 -0.35577322385E+04  0.35577322385E+04  0.00000000000E+00 0. -1.
         24    2    1    2    0    0 -0.43591039903E+02  0.54563321563E+03 -0.27054851087E+04  0.27614784470E+04  0.80608653616E+02 0.  0.
        254    2    1    2    0    0  0.43591039903E+02 -0.54563321563E+03 -0.48589825180E+03  0.11626026695E+04  0.90328958328E+03 0.  0.
         23    2    4    4    0    0  0.76929098326E+02  0.10343977008E+03  0.17180496957E+03  0.23432353275E+03  0.93662683221E+02 0.  0.
         23    2    4    4    0    0 -0.33338058422E+02 -0.64907298571E+03 -0.65770322136E+03  0.92827913676E+03  0.81984519439E+02 0.  0.
          2    1    3    3  502    0 -0.64547622316E+02  0.47126074405E+03 -0.23600678671E+04  0.24075243346E+04  0.00000000000E+00 0. -1.
         -1    1    3    3    0  502  0.20956582412E+02  0.74372471590E+02 -0.34541724158E+03  0.35395411236E+03  0.00000000000E+00 0.  1.
         13    1    5    5    0    0  0.94902096173E+02  0.79251925564E+02  0.10969146663E+03  0.16528609565E+03  0.00000000000E+00 0.  1.
        -13    1    5    5    0    0 -0.17972997847E+02  0.24187844513E+02  0.62113502937E+02  0.69037437097E+02  0.00000000000E+00 0. -1.
          1    1    6    6  503    0 -0.64503243415E+01 -0.44661420422E+03 -0.49841629581E+03  0.66927173706E+03  0.00000000000E+00 0. -1.
         -1    1    6    6    0  503 -0.26887734081E+02 -0.20245878149E+03 -0.15928692555E+03  0.25900739969E+03  0.00000000000E+00 0.  1.
<mgrwt>
<rscale>  0 0.22833057E+04</rscale>
<asrwt>0</asrwt>
<pdfrwt beam="1">  1        2 0.54734342E+00 0.22833057E+04</pdfrwt>
<pdfrwt beam="2">  1       -1 0.56361366E-01 0.22833057E+04</pdfrwt>
<totfact> 0.24429592E+00</totfact>
</mgrwt>
</event>
<event>
12    7  0.1572140E-007  0.1792588E+04  0.7818608E-02  0.8710251E-01
          2   -1    0    0  501    0  0.00000000000E+00  0.00000000000E+00  0.73420924673E+03  0.73420924673E+03  0.00000000000E+00 0. -1.
         -1   -1    0    0    0  501 -0.00000000000E+00 -0.00000000000E+00 -0.10941610217E+04  0.10941610217E+04  0.00000000000E+00 0.  1.
         24    2    1    2    0    0 -0.46519455485E+01 -0.44296833103E+03 -0.65077845872E+03  0.79134186116E+03  0.80416142670E+02 0.  0.
        254    2    1    2    0    0  0.46519455485E+01  0.44296833103E+03  0.29082668369E+03  0.10370284073E+04  0.89140629050E+03 0.  0.
         23    2    4    4    0    0 -0.29603801582E+03  0.49269563661E+03 -0.31962274575E+02  0.58372932482E+03  0.96596275891E+02 0.  0.
         23    2    4    4    0    0  0.30068996137E+03 -0.49727305580E+02  0.32278895827E+03  0.45329908249E+03  0.91651998439E+02 0.  0.
          4    1    3    3  502    0 -0.16463099397E+02 -0.22428097749E+03 -0.26340571770E+03  0.34634601575E+03  0.00000000000E+00 0. -1.
         -3    1    3    3    0  502  0.11811153848E+02 -0.21868735354E+03 -0.38737274101E+03  0.44499584541E+03  0.00000000000E+00 0.  1.
         13    1    5    5    0    0 -0.25667842003E+02  0.48091304342E+02 -0.32314479348E+02  0.63370633909E+02  0.00000000000E+00 0. -1.
        -13    1    5    5    0    0 -0.27037017382E+03  0.44460433227E+03  0.35220477322E+00  0.52035869092E+03  0.00000000000E+00 0.  1.
          2    1    6    6  503    0  0.14744669803E+03 -0.52860158224E+02  0.21461532067E+03  0.26569618167E+03  0.00000000000E+00 0. -1.
         -2    1    6    6    0  503  0.15324326335E+03  0.31328526437E+01  0.10817363760E+03  0.18760290082E+03  0.00000000000E+00 0.  1.
<mgrwt>
<rscale>  0 0.17925882E+04</rscale>
<asrwt>0</asrwt>
<pdfrwt beam="1">  1        2 0.11295527E+00 0.17925882E+04</pdfrwt>
<pdfrwt beam="2">  1       -1 0.16833246E+00 0.17925882E+04</pdfrwt>
<totfact> 0.10523314E+01</totfact>
</mgrwt>
</event>
<event>
12    7  0.1572140E-007  0.1632141E+04  0.7818608E-02  0.8801042E-01
         -1   -1    0    0    0  501 -0.00000000000E+00  0.00000000000E+00  0.78354696237E+03  0.78354696237E+03  0.00000000000E+00 0.  1.
          2   -1    0    0  501    0  0.00000000000E+00 -0.00000000000E+00 -0.84994398851E+03  0.84994398851E+03  0.00000000000E+00 0. -1.
         24    2    1    2    0    0 -0.26010229473E+03 -0.34936969502E+03 -0.37890533544E+03  0.58271854612E+03  0.79241802424E+02 0.  0.
        254    2    1    2    0    0  0.26010229473E+03  0.34936969502E+03  0.31250830930E+03  0.10507724048E+04  0.90374156466E+03 0.  0.
         23    2    4    4    0    0 -0.26760774293E+03 -0.87587286000E+02  0.17994102910E+03  0.34654784458E+03  0.91821554571E+02 0.  0.
         23    2    4    4    0    0  0.52771003766E+03  0.43695698102E+03  0.13256728020E+03  0.70422456018E+03  0.94598415799E+02 0.  0.
          2    1    3    3  502    0 -0.16464075000E+03 -0.22723251463E+03 -0.19255950715E+03  0.34032389875E+03  0.00000000000E+00 0. -1.
         -1    1    3    3    0  502 -0.95461544730E+02 -0.12213718039E+03 -0.18634582829E+03  0.24239464737E+03  0.00000000000E+00 0.  1.
         13    1    5    5    0    0 -0.26361374618E+03 -0.79425058089E+02  0.18881726075E+03  0.33384503139E+03  0.00000000000E+00 0. -1.
        -13    1    5    5    0    0 -0.39939967475E+01 -0.81622279118E+01 -0.88762316510E+01  0.12702813185E+02  0.00000000000E+00 0.  1.
          1    1    6    6  503    0  0.45655320073E+03  0.40291155566E+03  0.14059078632E+03  0.62493544945E+03  0.00000000000E+00 0. -1.
         -1    1    6    6    0  503  0.71156836923E+02  0.34045425363E+02 -0.80235061264E+01  0.79289110725E+02  0.00000000000E+00 0.  1.
<mgrwt>
<rscale>  0 0.16321410E+04</rscale>
<asrwt>0</asrwt>
<pdfrwt beam="1">  1        2 0.13076061E+00 0.16321410E+04</pdfrwt>
<pdfrwt beam="2">  1       -1 0.12054569E+00 0.16321410E+04</pdfrwt>
<totfact> 0.21223227E+01</totfact>
</mgrwt>
</event>
<event>
12    7  0.1572140E-007  0.2794784E+04  0.7818608E-02  0.8304889E-01
         -1   -1    0    0    0  501 -0.00000000000E+00  0.00000000000E+00  0.86077917685E+03  0.86077917685E+03  0.00000000000E+00 0.  1.
          2   -1    0    0  501    0  0.00000000000E+00 -0.00000000000E+00 -0.22685317546E+04  0.22685317546E+04  0.00000000000E+00 0. -1.
         24    2    1    2    0    0  0.49744582957E+03 -0.57304910578E+03  0.48218727775E+03  0.90269101027E+03  0.80677494974E+02 0.  0.
        254    2    1    2    0    0 -0.49744582957E+03  0.57304910578E+03 -0.18899398555E+04  0.22266199212E+04  0.90006998895E+03 0.  0.
         23    2    4    4    0    0 -0.50598201621E+03  0.34648002277E+03 -0.18829214642E+04  0.19824756324E+04  0.93542427647E+02 0.  0.
         23    2    4    4    0    0  0.85361866381E+01  0.22656908301E+03 -0.70183912959E+01  0.24414428879E+03  0.90281559984E+02 0.  0.
          2    1    3    3  502    0  0.89885686309E+01 -0.15734186461E+02  0.28493052471E+02  0.33767040568E+02  0.00000000000E+00 0. -1.
         -1    1    3    3    0  502  0.48845726094E+03 -0.55731491932E+03  0.45369422528E+03  0.86892396970E+03  0.00000000000E+00 0.  1.
         13    1    5    5    0    0 -0.30092874237E+03  0.20219119715E+03 -0.96255857292E+03  0.10285710449E+04  0.00000000000E+00 0. -1.
        -13    1    5    5    0    0 -0.20505327384E+03  0.14428882562E+03 -0.92036289128E+03  0.95390458745E+03  0.00000000000E+00 0.  1.
          2    1    6    6  503    0  0.45923826638E+02  0.86172261948E+02  0.85688875026E+01  0.98020826436E+02  0.00000000000E+00 0. -1.
         -2    1    6    6    0  503 -0.37387640000E+02  0.14039682107E+03 -0.15587278798E+02  0.14612346236E+03  0.00000000000E+00 0.  1.
<mgrwt>
<rscale>  0 0.27947844E+04</rscale>
<asrwt>0</asrwt>
<pdfrwt beam="1">  1        2 0.34900489E+00 0.27947844E+04</pdfrwt>
<pdfrwt beam="2">  1       -1 0.13242757E+00 0.27947844E+04</pdfrwt>
<totfact> 0.22623509E+00</totfact>
</mgrwt>
</event>
<event>
12    7  0.1572140E-007  0.1961919E+04  0.7818608E-02  0.8624635E-01
          2   -1    0    0  501    0  0.00000000000E+00  0.00000000000E+00  0.13026950125E+04  0.13026950125E+04  0.00000000000E+00 0. -1.
         -1   -1    0    0    0  501 -0.00000000000E+00 -0.00000000000E+00 -0.73868525940E+03  0.73868525940E+03  0.00000000000E+00 0.  1.
         24    2    1    2    0    0  0.49274691789E+03 -0.14341717494E+03  0.82590338240E+03  0.97603290313E+03  0.84592078695E+02 0.  0.
        254    2    1    2    0    0 -0.49274691789E+03  0.14341717494E+03 -0.26189362934E+03  0.10653473687E+04  0.89610754478E+03 0.  0.
         23    2    4    4    0    0 -0.67355211229E+03  0.19185674257E+03  0.30174549069E+02  0.70671237099E+03  0.89724100787E+02 0.  0.
         23    2    4    4    0    0  0.18080519440E+03 -0.48439567628E+02 -0.29206817841E+03  0.35863499774E+03  0.90985332493E+02 0.  0.
          2    1    3    3  502    0  0.27562172807E+03 -0.11722905257E+03  0.43567006498E+03  0.52869499077E+03  0.00000000000E+00 0. -1.
         -1    1    3    3    0  502  0.21712518981E+03 -0.26188122378E+02  0.39023331743E+03  0.44733791236E+03  0.00000000000E+00 0.  1.
         13    1    5    5    0    0 -0.41299493290E+02 -0.66087192415E+01  0.13076876096E+02  0.43821547262E+02  0.00000000000E+00 0. -1.
        -13    1    5    5    0    0 -0.63225261900E+03  0.19846546181E+03  0.17097672973E+02  0.66289082373E+03  0.00000000000E+00 0.  1.
          4    1    6    6  503    0 -0.82430553091E+00 -0.21788395410E+01 -0.61288743610E+02  0.61333000210E+02  0.00000000000E+00 0. -1.
         -4    1    6    6    0  503  0.18162949993E+03 -0.46260728087E+02 -0.23077943480E+03  0.29730199753E+03  0.00000000000E+00 0.  1.
<mgrwt>
<rscale>  0 0.19619191E+04</rscale>
<asrwt>0</asrwt>
<pdfrwt beam="1">  1        2 0.20041462E+00 0.19619191E+04</pdfrwt>
<pdfrwt beam="2">  1       -1 0.11364389E+00 0.19619191E+04</pdfrwt>
<totfact> 0.12357975E+01</totfact>
</mgrwt>
</event>
<event>
12    7  0.1572140E-007  0.1414579E+04  0.7818608E-02  0.8943333E-01
         -1   -1    0    0    0  501 -0.00000000000E+00  0.00000000000E+00  0.17281634620E+03  0.17281634620E+03  0.00000000000E+00 0.  1.
          2   -1    0    0  501    0  0.00000000000E+00 -0.00000000000E+00 -0.28947394244E+04  0.28947394244E+04  0.00000000000E+00 0. -1.
         24    2    1    2    0    0  0.10804810841E+03  0.36294641935E+03 -0.44913559042E+03  0.59293628336E+03  0.80287984700E+02 0.  0.
        254    2    1    2    0    0 -0.10804810841E+03 -0.36294641935E+03 -0.22727874878E+04  0.24746194872E+04  0.90264840605E+03 0.  0.
         23    2    4    4    0    0 -0.20215462372E+03  0.16866216314E+03 -0.15119846606E+04  0.15374571679E+04  0.91452239043E+02 0.  0.
         23    2    4    4    0    0  0.94106515315E+02 -0.53160858249E+03 -0.76080282711E+03  0.93716231928E+03  0.89378687269E+02 0.  0.
          4    1    3    3  502    0  0.31377183196E+01  0.11119951979E+03 -0.97449489386E+02  0.14789043735E+03  0.00000000000E+00 0. -1.
         -3    1    3    3    0  502  0.10491039009E+03  0.25174689956E+03 -0.35168610103E+03  0.44504584601E+03  0.00000000000E+00 0.  1.
         13    1    5    5    0    0 -0.72307385683E+02  0.43573178208E+02 -0.28319213706E+03  0.29550764182E+03  0.00000000000E+00 0.  1.
        -13    1    5    5    0    0 -0.12984723804E+03  0.12508898493E+03 -0.12287925236E+04  0.12419495261E+04  0.00000000000E+00 0. -1.
          3    1    6    6  503    0  0.57680208548E+02 -0.47207411784E+03 -0.63575527412E+03  0.79395575933E+03  0.00000000000E+00 0. -1.
         -3    1    6    6    0  503  0.36426306767E+02 -0.59534464655E+02 -0.12504755299E+03  0.14320655996E+03  0.00000000000E+00 0.  1.
<mgrwt>
<rscale>  0 0.14145788E+04</rscale>
<asrwt>0</asrwt>
<pdfrwt beam="1">  1        2 0.44534449E+00 0.14145788E+04</pdfrwt>
<pdfrwt beam="2">  1       -1 0.26587132E-01 0.14145788E+04</pdfrwt>
<totfact> 0.28445897E+01</totfact>
</mgrwt>
</event>
<event>
12    7  0.1572140E-007  0.1659744E+04  0.7818608E-02  0.8784663E-01
          2   -1    0    0  501    0  0.00000000000E+00  0.00000000000E+00  0.28661022433E+03  0.28661022433E+03  0.00000000000E+00 0. -1.
         -1   -1    0    0    0  501 -0.00000000000E+00 -0.00000000000E+00 -0.24028717910E+04  0.24028717910E+04  0.00000000000E+00 0.  1.
         24    2    1    2    0    0 -0.35859261230E+03 -0.44357031381E+03 -0.56626176288E+03  0.80638034144E+03  0.65219522176E+02 0.  0.
        254    2    1    2    0    0  0.35859261230E+03  0.44357031381E+03 -0.15499998037E+04  0.18831016738E+04  0.90456024540E+03 0.  0.
         23    2    4    4    0    0 -0.16349869826E+03  0.35976956991E+03 -0.11340173235E+04  0.12044873213E+04  0.92889447460E+02 0.  0.
         23    2    4    4    0    0  0.52209131057E+03  0.83800743901E+02 -0.41598248020E+03  0.67861435249E+03  0.88736206419E+02 0.  0.
          4    1    3    3  502    0 -0.26980197959E+03 -0.29857433089E+03 -0.36934569402E+03  0.54621971856E+03  0.00000000000E+00 0. -1.
         -3    1    3    3    0  502 -0.88790632708E+02 -0.14499598292E+03 -0.19691606887E+03  0.26016062288E+03  0.00000000000E+00 0.  1.
         13    1    5    5    0    0 -0.93597361462E+02  0.29681433151E+03 -0.89870786888E+03  0.95107047428E+03  0.00000000000E+00 0. -1.
        -13    1    5    5    0    0 -0.69901336801E+02  0.62955238401E+02 -0.23530945466E+03  0.25341684707E+03  0.00000000000E+00 0.  1.
          4    1    6    6  503    0  0.45487033181E+03  0.41721999156E+02 -0.35864309831E+03  0.58075176792E+03  0.00000000000E+00 0. -1.
         -4    1    6    6    0  503  0.67220978756E+02  0.42078744745E+02 -0.57339381896E+02  0.97862584578E+02  0.00000000000E+00 0.  1.
<mgrwt>
<rscale>  0 0.16597441E+04</rscale>
<asrwt>0</asrwt>
<pdfrwt beam="1">  1        2 0.44093879E-01 0.16597441E+04</pdfrwt>
<pdfrwt beam="2">  1       -1 0.36967260E+00 0.16597441E+04</pdfrwt>
<totfact> 0.14556782E+00</totfact>
</mgrwt>
</event>
<event>
12    7  0.1572140E-007  0.1074558E+04  0.7818608E-02  0.9230350E-01
         -1   -1    0    0    0  501 -0.00000000000E+00  0.00000000000E+00  0.19333282657E+03  0.19333282657E+03  0.00000000000E+00 0.  1.
          2   -1    0    0  501    0  0.00000000000E+00 -0.00000000000E+00 -0.14931189328E+04  0.14931189328E+04  0.00000000000E+00 0. -1.
         24    2    1    2    0    0 -0.19286289506E+02 -0.13232924567E+03 -0.14644666831E+03  0.21415428181E+03  0.80823508550E+02 0.  0.
        254    2    1    2    0    0  0.19286289506E+02  0.13232924567E+03 -0.11533394379E+04  0.14722974776E+04  0.90530934667E+03 0.  0.
         23    2    4    4    0    0  0.11447070431E+03  0.14358821717E+02 -0.12578945176E+04  0.12664573216E+04  0.91136228222E+02 0.  0.
         23    2    4    4    0    0 -0.95184414802E+02  0.11797042396E+03  0.10455507974E+03  0.20584015592E+03  0.91985386567E+02 0.  0.
          2    1    3    3  502    0 -0.47309187398E+02 -0.11199985571E+03 -0.11166014877E+03  0.16507609068E+03  0.00000000000E+00 0. -1.
         -1    1    3    3    0  502  0.28022897892E+02 -0.20329389963E+02 -0.34786519545E+02  0.49078191129E+02  0.00000000000E+00 0.  1.
         13    1    5    5    0    0  0.34779876072E+02 -0.18976627507E+02 -0.14816503045E+03  0.15337088518E+03  0.00000000000E+00 0.  1.
        -13    1    5    5    0    0  0.79690828236E+02  0.33335449225E+02 -0.11097294872E+04  0.11130864365E+04  0.00000000000E+00 0. -1.
          2    1    6    6  503    0  0.18252620101E+02  0.11189313667E+02  0.15053284561E+02  0.26171745394E+02  0.00000000000E+00 0.  1.
         -2    1    6    6    0  503 -0.11343703490E+03  0.10678111029E+03  0.89501795176E+02  0.17966841053E+03  0.00000000000E+00 0. -1.
<mgrwt>
<rscale>  0 0.10745583E+04</rscale>
<asrwt>0</asrwt>
<pdfrwt beam="1">  1        2 0.22971060E+00 0.10745583E+04</pdfrwt>
<pdfrwt beam="2">  1       -1 0.29743512E-01 0.10745583E+04</pdfrwt>
<totfact> 0.15019772E+02</totfact>
</mgrwt>
</event>
<event>
12    7  0.1572140E-007  0.3053954E+04  0.7818608E-02  0.8228490E-01
         -1   -1    0    0    0  501 -0.00000000000E+00  0.00000000000E+00  0.11817464541E+04  0.11817464541E+04  0.00000000000E+00 0.  1.
          2   -1    0    0  501    0  0.00000000000E+00 -0.00000000000E+00 -0.19730615940E+04  0.19730615940E+04  0.00000000000E+00 0. -1.
         24    2    1    2    0    0 -0.97343606793E+02 -0.28194132896E+03  0.10434821823E+04  0.10881791340E+04  0.79448549752E+02 0.  0.
        254    2    1    2    0    0  0.97343606793E+02  0.28194132896E+03 -0.18347973222E+04  0.20666289142E+04  0.90305435306E+03 0.  0.
         23    2    4    4    0    0 -0.31886721762E+03 -0.12554613840E+03 -0.59100446666E+03  0.69017296809E+03  0.98052592635E+02 0.  0.
         23    2    4    4    0    0  0.41621082442E+03  0.40748746736E+03 -0.12437928556E+04  0.13764559461E+04  0.91284268144E+02 0.  0.
          4    1    3    3  502    0  0.95908397167E+01 -0.48805905378E+02  0.22577399490E+03  0.23118801306E+03  0.00000000000E+00 0. -1.
         -3    1    3    3    0  502 -0.10693444651E+03 -0.23313542359E+03  0.81770818739E+03  0.85699112091E+03  0.00000000000E+00 0.  1.
         13    1    5    5    0    0 -0.15099897132E+03 -0.20788358348E+02 -0.32176495312E+03  0.35604147264E+03  0.00000000000E+00 0.  1.
        -13    1    5    5    0    0 -0.16786824630E+03 -0.10475778005E+03 -0.26923951354E+03  0.33413149545E+03  0.00000000000E+00 0. -1.
          3    1    6    6  503    0  0.20600849361E+03  0.22928767825E+03 -0.75193387976E+03  0.81266038317E+03  0.00000000000E+00 0. -1.
         -3    1    6    6    0  503  0.21020233081E+03  0.17819978911E+03 -0.49185897580E+03  0.56379556294E+03  0.00000000000E+00 0.  1.
<mgrwt>
<rscale>  0 0.30539539E+04</rscale>
<asrwt>0</asrwt>
<pdfrwt beam="1">  1        2 0.30354794E+00 0.30539539E+04</pdfrwt>
<pdfrwt beam="2">  1       -1 0.18180715E+00 0.30539539E+04</pdfrwt>
<totfact> 0.13542963E+00</totfact>
</mgrwt>
</event>
<event>
12    7  0.2771277E-007  0.2662774E+04  0.7818608E-02  0.8347186E-01
          2   -1    0    0  501    0  0.00000000000E+00  0.00000000000E+00  0.26720246399E+04  0.26720246399E+04  0.00000000000E+00 0. -1.
         -1   -1    0    0    0  501 -0.00000000000E+00 -0.00000000000E+00 -0.66338886799E+03  0.66338886799E+03  0.00000000000E+00 0.  1.
         24    2    1    2    0    0  0.46893823067E+03 -0.75573626833E+03  0.18424302297E+04  0.20474757644E+04  0.81040010077E+02 0.  0.
        254    2    1    2    0    0 -0.46893823067E+03  0.75573626833E+03  0.16620554220E+03  0.12879377434E+04  0.91658004410E+03 0.  0.
         23    2    4    4    0    0 -0.20374801037E+03  0.53060887893E+01 -0.28909278926E+03  0.36569161920E+03  0.92813324703E+02 0.  0.
         23    2    4    4    0    0 -0.26519022030E+03  0.75043017954E+03  0.45529833146E+03  0.92224612423E+03  0.98843490994E+02 0.  0.
          2    1    3    3  502    0  0.42617992237E+03 -0.69621965221E+03  0.16343790947E+04  0.18268952229E+04  0.00000000000E+00 0. -1.
         -3    1    3    3    0  502  0.42758308302E+02 -0.59516616118E+02  0.20805113501E+03  0.22058054153E+03  0.00000000000E+00 0.  1.
         13    1    5    5    0    0 -0.10514573550E+03  0.38230947751E+02 -0.10071739550E+03  0.15053645676E+03  0.00000000000E+00 0.  1.
        -13    1    5    5    0    0 -0.98602274878E+02 -0.32924858961E+02 -0.18837539376E+03  0.21515516244E+03  0.00000000000E+00 0. -1.
          3    1    6    6  503    0 -0.26753542360E+03  0.67533526957E+03  0.42184204223E+03  0.84000216535E+03  0.00000000000E+00 0. -1.
         -3    1    6    6    0  503  0.23452032987E+01  0.75094909977E+02  0.33456289234E+02  0.82243958880E+02  0.00000000000E+00 0.  1.
<mgrwt>
<rscale>  0 0.26627740E+04</rscale>
<asrwt>0</asrwt>
<pdfrwt beam="1">  1        2 0.41108071E+00 0.26627740E+04</pdfrwt>
<pdfrwt beam="2">  1       -1 0.10205983E+00 0.26627740E+04</pdfrwt>
<totfact> 0.25098364E+00</totfact>
</mgrwt>
</event>
<event>
12    7  0.1572140E-007  0.3297202E+04  0.7818608E-02  0.8163608E-01
          2   -1    0    0  501    0  0.00000000000E+00  0.00000000000E+00  0.42009265848E+04  0.42009265848E+04  0.00000000000E+00 0. -1.
         -1   -1    0    0    0  501 -0.00000000000E+00 -0.00000000000E+00 -0.64697273052E+03  0.64697273052E+03  0.00000000000E+00 0.  1.
         24    2    1    2    0    0 -0.56320031661E+03 -0.13170681679E+04  0.24113892800E+04  0.28059006972E+04  0.80108098019E+02 0.  0.
        254    2    1    2    0    0  0.56320031661E+03  0.13170681679E+04  0.11425645743E+04  0.20419986182E+04  0.90135530987E+03 0.  0.
         23    2    4    4    0    0  0.85469393973E+02  0.75222347304E+03  0.10389969967E+04  0.12891310598E+04  0.95911205163E+02 0.  0.
         23    2    4    4    0    0  0.47773092264E+03  0.56484469484E+03  0.10356757760E+03  0.75286755843E+03  0.93845371039E+02 0.  0.
          2    1    3    3  502    0 -0.41675605965E+03 -0.10532358577E+04  0.18835080659E+04  0.21978612376E+04  0.00000000000E+00 0. -1.
         -1    1    3    3    0  502 -0.14644425696E+03 -0.26383231013E+03  0.52788121407E+03  0.60803945961E+03  0.00000000000E+00 0.  1.
         13    1    5    5    0    0  0.51503253929E+02  0.61041895908E+03  0.77872236128E+03  0.99079382655E+03  0.00000000000E+00 0.  1.
        -13    1    5    5    0    0  0.33966140044E+02  0.14180451396E+03  0.26027463547E+03  0.29833723321E+03  0.00000000000E+00 0. -1.
          1    1    6    6  503    0  0.12313562020E+03  0.21389707432E+03  0.34791724198E+02  0.24924847730E+03  0.00000000000E+00 0. -1.
         -1    1    6    6    0  503  0.35459530244E+03  0.35094762052E+03  0.68775853400E+02  0.50361908112E+03  0.00000000000E+00 0.  1.
<mgrwt>
<rscale>  0 0.32972018E+04</rscale>
<asrwt>0</asrwt>
<pdfrwt beam="1">  1        2 0.64629638E+00 0.32972018E+04</pdfrwt>
<pdfrwt beam="2">  1       -1 0.99534269E-01 0.32972018E+04</pdfrwt>
<totfact> 0.21154101E-01</totfact>
</mgrwt>
</event>
<event>
12    7  0.1572140E-007  0.3057967E+04  0.7818608E-02  0.8227369E-01
         -1   -1    0    0    0  501 -0.00000000000E+00  0.00000000000E+00  0.15365620285E+04  0.15365620285E+04  0.00000000000E+00 0.  1.
          2   -1    0    0  501    0  0.00000000000E+00 -0.00000000000E+00 -0.15214419716E+04  0.15214419716E+04  0.00000000000E+00 0. -1.
         24    2    1    2    0    0  0.49946366657E+02  0.12837740143E+04  0.54849250527E+03  0.13992266086E+04  0.80129362475E+02 0.  0.
        254    2    1    2    0    0 -0.49946366657E+02 -0.12837740143E+04 -0.53337244837E+03  0.16587773914E+04  0.90359609693E+03 0.  0.
         23    2    4    4    0    0  0.16855487667E+03 -0.25839135857E+03  0.19857149474E+03  0.37693183852E+03  0.86429923850E+02 0.  0.
         23    2    4    4    0    0 -0.21850124333E+03 -0.10253826557E+04 -0.73194394311E+03  0.12818455529E+04  0.90739747208E+02 0.  0.
          4    1    3    3  502    0 -0.82577849920E+01  0.49920353582E+03  0.24302906417E+03  0.55527964776E+03  0.00000000000E+00 0. -1.
         -3    1    3    3    0  502  0.58204151649E+02  0.78457047844E+03  0.30546344110E+03  0.84394696087E+03  0.00000000000E+00 0.  1.
         13    1    5    5    0    0  0.16481405964E+03 -0.22961799558E+03  0.20243421727E+03  0.34766033779E+03  0.00000000000E+00 0.  1.
        -13    1    5    5    0    0  0.37408170239E+01 -0.28773362990E+02 -0.38627225312E+01  0.29271500732E+02  0.00000000000E+00 0. -1.
          1    1    6    6  503    0 -0.13999835982E+02 -0.37600417710E+02 -0.98906182050E+01  0.41323251905E+02  0.00000000000E+00 0. -1.
         -1    1    6    6    0  503 -0.20450140734E+03 -0.98778223799E+03 -0.72205332491E+03  0.12405223010E+04  0.00000000000E+00 0.  1.
<mgrwt>
<rscale>  0 0.30579666E+04</rscale>
<asrwt>0</asrwt>
<pdfrwt beam="1">  1        2 0.23406800E+00 0.30579666E+04</pdfrwt>
<pdfrwt beam="2">  1       -1 0.23639416E+00 0.30579666E+04</pdfrwt>
<totfact> 0.10253967E+00</totfact>
</mgrwt>
</event>
<event>
12    7  0.1572140E-007  0.3542140E+04  0.7818608E-02  0.8103875E-01
          2   -1    0    0  501    0  0.00000000000E+00  0.00000000000E+00  0.23956534501E+04  0.23956534501E+04  0.00000000000E+00 0. -1.
         -1   -1    0    0    0  501 -0.00000000000E+00 -0.00000000000E+00 -0.13093252547E+04  0.13093252547E+04  0.00000000000E+00 0.  1.
         24    2    1    2    0    0  0.87805788923E+03  0.52021271168E+03  0.18759712587E+04  0.21370773941E+04  0.78896784817E+02 0.  0.
        254    2    1    2    0    0 -0.87805788923E+03 -0.52021271168E+03 -0.78964306331E+03  0.15679013108E+04  0.89060172390E+03 0.  0.
         23    2    4    4    0    0 -0.96144476051E+03 -0.64677638567E+03 -0.75894801272E+03  0.13879877600E+04  0.88386737224E+02 0.  0.
         23    2    4    4    0    0  0.83386871279E+02  0.12656367399E+03 -0.30695050584E+02  0.17991355076E+03  0.91950887659E+02 0.  0.
          2    1    3    3  502    0  0.83989022235E+03  0.48311159401E+03  0.17501301493E+04  0.20004419355E+04  0.00000000000E+00 0. -1.
         -1    1    3    3    0  502  0.38167666881E+02  0.37101117669E+02  0.12584110940E+03  0.13663545858E+03  0.00000000000E+00 0.  1.
         13    1    5    5    0    0 -0.48190256267E+03 -0.31347792550E+03 -0.32480513387E+03  0.66030058661E+03  0.00000000000E+00 0. -1.
        -13    1    5    5    0    0 -0.47954219783E+03 -0.33329846017E+03 -0.43414287885E+03  0.72768717339E+03  0.00000000000E+00 0.  1.
          3    1    6    6  503    0  0.85815662332E+02  0.12626375582E+03 -0.36000926899E+01  0.15270829906E+03  0.00000000000E+00 0. -1.
         -3    1    6    6    0  503 -0.24287910528E+01  0.29991817537E+00 -0.27094957894E+02  0.27205251702E+02  0.00000000000E+00 0.  1.
<mgrwt>
<rscale>  0 0.35421403E+04</rscale>
<asrwt>0</asrwt>
<pdfrwt beam="1">  1        2 0.36856207E+00 0.35421403E+04</pdfrwt>
<pdfrwt beam="2">  1       -1 0.20143465E+00 0.35421403E+04</pdfrwt>
<totfact> 0.54746759E-01</totfact>
</mgrwt>
</event>
<event>
12    7  0.1663093E-007  0.2514666E+04  0.7818608E-02  0.8397779E-01
          2   -1    0    0  501    0  0.00000000000E+00  0.00000000000E+00  0.16388797620E+04  0.16388797620E+04  0.00000000000E+00 0. -1.
         -1   -1    0    0    0  501 -0.00000000000E+00 -0.00000000000E+00 -0.96461401477E+03  0.96461401477E+03  0.00000000000E+00 0.  1.
         24    2    1    2    0    0  0.85594865433E+03 -0.65967624081E+03  0.14523018532E+03  0.10931512483E+04  0.77890971823E+02 0.  0.
        254    2    1    2    0    0 -0.85594865433E+03  0.65967624081E+03  0.52903556188E+03  0.15103425284E+04  0.91292665958E+03 0.  0.
         23    2    4    4    0    0 -0.49876640928E+03 -0.76879941096E+02 -0.29166957970E+02  0.51531921236E+03  0.10012353780E+03 0.  0.
         23    2    4    4    0    0 -0.35718224506E+03  0.73655618190E+03  0.55820251985E+03  0.99502331603E+03  0.91581553762E+02 0.  0.
          2    1    3    3  502    0  0.25670155995E+03 -0.17663876589E+03  0.10659730814E+02  0.31178610353E+03  0.00000000000E+00 0. -1.
         -1    1    3    3    0  502  0.59924709439E+03 -0.48303747492E+03  0.13457045450E+03  0.78136514482E+03  0.00000000000E+00 0.  1.
         13    1    5    5    0    0 -0.44009459981E+03 -0.10004029239E+03 -0.28814438321E+02  0.45224063146E+03  0.00000000000E+00 0.  1.
        -13    1    5    5    0    0 -0.58671809464E+02  0.23160351299E+02 -0.35251964835E+00  0.63078580898E+02  0.00000000000E+00 0. -1.
          2    1    6    6  503    0 -0.95019641667E+02  0.21400191841E+03  0.11191229016E+03  0.25951861990E+03  0.00000000000E+00 0. -1.
         -2    1    6    6    0  503 -0.26216260339E+03  0.52255426349E+03  0.44629022969E+03  0.73550469613E+03  0.00000000000E+00 0.  1.
<mgrwt>
<rscale>  0 0.25146661E+04</rscale>
<asrwt>0</asrwt>
<pdfrwt beam="1">  1        2 0.25213535E+00 0.25146661E+04</pdfrwt>
<pdfrwt beam="2">  1       -1 0.14840216E+00 0.25146661E+04</pdfrwt>
<totfact> 0.38638709E+00</totfact>
</mgrwt>
</event>
<event>
12    7  0.1572140E-007  0.1966047E+04  0.7818608E-02  0.8622661E-01
          2   -1    0    0  501    0  0.00000000000E+00  0.00000000000E+00  0.13780522080E+04  0.13780522080E+04  0.00000000000E+00 0. -1.
         -1   -1    0    0    0  501 -0.00000000000E+00 -0.00000000000E+00 -0.70123277187E+03  0.70123277187E+03  0.00000000000E+00 0.  1.
         24    2    1    2    0    0  0.37263939764E+03  0.67071360476E+03  0.20929662803E+03  0.79936221583E+03  0.80361765283E+02 0.  0.
        254    2    1    2    0    0 -0.37263939764E+03 -0.67071360476E+03  0.46752280811E+03  0.12799227641E+04  0.91154146672E+03 0.  0.
         23    2    4    4    0    0  0.12945467095E+03  0.15449664729E+03  0.75458106102E+02  0.23343491932E+03  0.90389213554E+02 0.  0.
         23    2    4    4    0    0 -0.50209406858E+03 -0.82521025205E+03  0.39206470201E+03  0.10464878447E+04  0.91387443344E+02 0.  0.
          2    1    3    3  502    0  0.19380925287E+03  0.33603374982E+03  0.64660214259E+02  0.39327045507E+03  0.00000000000E+00 0. -1.
         -1    1    3    3    0  502  0.17883014476E+03  0.33467985494E+03  0.14463641377E+03  0.40609176077E+03  0.00000000000E+00 0.  1.
         13    1    5    5    0    0  0.22259856664E+02  0.96386612044E+02  0.36183424981E+02  0.10533337763E+03  0.00000000000E+00 0. -1.
        -13    1    5    5    0    0  0.10719481428E+03  0.58110035249E+02  0.39274681121E+02  0.12810154169E+03  0.00000000000E+00 0.  1.
          4    1    6    6  503    0 -0.14657908696E+02 -0.53351579425E+02  0.39062141073E+02  0.67728104799E+02  0.00000000000E+00 0. -1.
         -4    1    6    6    0  503 -0.48743615989E+03 -0.77185867263E+03  0.35300256094E+03  0.97875973993E+03  0.00000000000E+00 0.  1.
<mgrwt>
<rscale>  0 0.19660472E+04</rscale>
<asrwt>0</asrwt>
<pdfrwt beam="1">  1        2 0.21200803E+00 0.19660472E+04</pdfrwt>
<pdfrwt beam="2">  1       -1 0.10788197E+00 0.19660472E+04</pdfrwt>
<totfact> 0.12638442E+01</totfact>
</mgrwt>
</event>
<event>
12    7  0.1572140E-007  0.1334051E+04  0.7818608E-02  0.9002990E-01
         -1   -1    0    0    0  501 -0.00000000000E+00  0.00000000000E+00  0.25900943132E+03  0.25900943132E+03  0.00000000000E+00 0.  1.
          2   -1    0    0  501    0  0.00000000000E+00 -0.00000000000E+00 -0.17177858803E+04  0.17177858803E+04  0.00000000000E+00 0. -1.
         24    2    1    2    0    0  0.27174740319E+03 -0.12082457413E+03 -0.56829240514E+03  0.64637252790E+03  0.79974734977E+02 0.  0.
        254    2    1    2    0    0 -0.27174740319E+03  0.12082457413E+03 -0.89048404387E+03  0.13304227838E+04  0.94266522281E+03 0.  0.
         23    2    4    4    0    0  0.22472204192E+03  0.32407495247E+03 -0.56766049459E+03  0.69770785045E+03  0.95043340179E+02 0.  0.
         23    2    4    4    0    0 -0.49646944511E+03 -0.20325037834E+03 -0.32282354928E+03  0.63271493331E+03  0.91216865985E+02 0.  0.
          4    1    3    3  502    0  0.26022836641E+03 -0.99039640080E+02 -0.54706856933E+03  0.61384987785E+03  0.00000000000E+00 0. -1.
         -3    1    3    3    0  502  0.11519036780E+02 -0.21784934047E+02 -0.21223835810E+02  0.32522650050E+02  0.00000000000E+00 0.  1.
         13    1    5    5    0    0  0.13499492783E+03  0.15105853140E+03 -0.35874789567E+03  0.41199801346E+03  0.00000000000E+00 0. -1.
        -13    1    5    5    0    0  0.89727114097E+02  0.17301642107E+03 -0.20891259893E+03  0.28570983699E+03  0.00000000000E+00 0.  1.
          3    1    6    6  503    0 -0.13702199301E+03 -0.50890769551E+02 -0.42921437489E+02  0.15233892080E+03  0.00000000000E+00 0. -1.
         -3    1    6    6    0  503 -0.35944745210E+03 -0.15235960879E+03 -0.27990211179E+03  0.48037601252E+03  0.00000000000E+00 0.  1.
<mgrwt>
<rscale>  0 0.13340506E+04</rscale>
<asrwt>0</asrwt>
<pdfrwt beam="1">  1        2 0.26427475E+00 0.13340506E+04</pdfrwt>
<pdfrwt beam="2">  1       -1 0.39847605E-01 0.13340506E+04</pdfrwt>
<totfact> 0.65499578E+01</totfact>
</mgrwt>
</event>
<event>
12    7  0.1572140E-007  0.2833559E+04  0.7818608E-02  0.8292925E-01
         -1   -1    0    0    0  501 -0.00000000000E+00  0.00000000000E+00  0.56985943316E+03  0.56985943316E+03  0.00000000000E+00 0.  1.
          2   -1    0    0  501    0  0.00000000000E+00 -0.00000000000E+00 -0.35223846709E+04  0.35223846709E+04  0.00000000000E+00 0. -1.
         24    2    1    2    0    0  0.10882432186E+04  0.64675699275E+03 -0.15267988055E+04  0.19851446121E+04  0.84360109274E+02 0.  0.
        254    2    1    2    0    0 -0.10882432186E+04 -0.64675699275E+03 -0.14257264322E+04  0.21070994919E+04  0.89699749089E+03 0.  0.
         23    2    4    4    0    0 -0.77935929933E+03 -0.23815560781E+03 -0.31110078354E+03  0.87704586688E+03  0.91141341385E+02 0.  0.
         23    2    4    4    0    0 -0.30888391931E+03 -0.40860138494E+03 -0.11146256487E+04  0.12300536250E+04  0.90979208351E+02 0.  0.
          4    1    3    3  502    0  0.79669896514E+03  0.51314074351E+03 -0.11194637897E+04  0.14667112327E+04  0.00000000000E+00 0. -1.
         -3    1    3    3    0  502  0.29154425350E+03  0.13361624924E+03 -0.40733501575E+03  0.51843337939E+03  0.00000000000E+00 0.  1.
         13    1    5    5    0    0 -0.39835688872E+03 -0.11073854072E+03 -0.11033967254E+03  0.42793232938E+03  0.00000000000E+00 0. -1.
        -13    1    5    5    0    0 -0.38100241060E+03 -0.12741706709E+03 -0.20076111100E+03  0.44911353750E+03  0.00000000000E+00 0.  1.
          1    1    6    6  503    0 -0.30069419212E+03 -0.36447002770E+03 -0.97629409903E+03  0.10846223149E+04  0.00000000000E+00 0. -1.
         -1    1    6    6    0  503 -0.81897271896E+01 -0.44131357233E+02 -0.13833154966E+03  0.14543131009E+03  0.00000000000E+00 0.  1.
<mgrwt>
<rscale>  0 0.28335590E+04</rscale>
<asrwt>0</asrwt>
<pdfrwt beam="1">  1        2 0.54190532E+00 0.28335590E+04</pdfrwt>
<pdfrwt beam="2">  1       -1 0.87670685E-01 0.28335590E+04</pdfrwt>
<totfact> 0.98922972E-01</totfact>
</mgrwt>
</event>
<event>
12    7  0.1572140E-007  0.1868328E+04  0.7818608E-02  0.8670784E-01
         -1   -1    0    0    0  501 -0.00000000000E+00  0.00000000000E+00  0.35011624563E+03  0.35011624563E+03  0.00000000000E+00 0.  1.
          2   -1    0    0  501    0  0.00000000000E+00 -0.00000000000E+00 -0.24924928766E+04  0.24924928766E+04  0.00000000000E+00 0. -1.
         24    2    1    2    0    0  0.60276531691E+02  0.71230368614E+03 -0.79397758050E+03  0.10712144346E+04  0.78039509134E+02 0.  0.
        254    2    1    2    0    0 -0.60276531691E+02 -0.71230368614E+03 -0.13483990505E+04  0.17713946877E+04  0.89924931945E+03 0.  0.
         23    2    4    4    0    0 -0.32934031520E+02 -0.57757717688E+03 -0.21219294452E+03  0.62322851520E+03  0.93316079889E+02 0.  0.
         23    2    4    4    0    0 -0.27342500171E+02 -0.13472650926E+03 -0.11362061060E+04  0.11481661725E+04  0.91773632970E+02 0.  0.
          4    1    3    3  502    0  0.79150619120E+02  0.58434042090E+03 -0.65692929923E+03  0.88276534379E+03  0.00000000000E+00 0. -1.
         -3    1    3    3    0  502 -0.18874087429E+02  0.12796326524E+03 -0.13704828127E+03  0.18844909081E+03  0.00000000000E+00 0.  1.
         13    1    5    5    0    0  0.23747020127E+02 -0.37161721269E+03 -0.13432017854E+03  0.39586005620E+03  0.00000000000E+00 0. -1.
        -13    1    5    5    0    0 -0.56681051646E+02 -0.20595996419E+03 -0.77872765983E+02  0.22736845900E+03  0.00000000000E+00 0.  1.
          1    1    6    6  503    0 -0.45230841657E+02 -0.62374695246E+02 -0.34712236713E+03  0.35557048444E+03  0.00000000000E+00 0. -1.
         -1    1    6    6    0  503  0.17888341486E+02 -0.72351814010E+02 -0.78908373885E+03  0.79259568802E+03  0.00000000000E+00 0.  1.
<mgrwt>
<rscale>  0 0.18683279E+04</rscale>
<asrwt>0</asrwt>
<pdfrwt beam="1">  1        2 0.38346043E+00 0.18683279E+04</pdfrwt>
<pdfrwt beam="2">  1       -1 0.53864040E-01 0.18683279E+04</pdfrwt>
<totfact> 0.13088893E+01</totfact>
</mgrwt>
</event>
<event>
12    7  0.1572140E-007  0.1672843E+04  0.7818608E-02  0.8777006E-01
         -1   -1    0    0    0  501 -0.00000000000E+00  0.00000000000E+00  0.12956272508E+04  0.12956272508E+04  0.00000000000E+00 0.  1.
          2   -1    0    0  501    0  0.00000000000E+00 -0.00000000000E+00 -0.53997105845E+03  0.53997105845E+03  0.00000000000E+00 0. -1.
         24    2    1    2    0    0  0.53150631949E+02 -0.16222241651E+03 -0.34912799817E+03  0.40036142896E+03  0.96217527502E+02 0.  0.
        254    2    1    2    0    0 -0.53150631949E+02  0.16222241651E+03  0.11047841905E+04  0.14352368803E+04  0.90011982137E+03 0.  0.
         23    2    4    4    0    0  0.30045150186E+03  0.25267868922E+03  0.18749609912E+03  0.44375279259E+03  0.87430708490E+02 0.  0.
         23    2    4    4    0    0 -0.35360213381E+03 -0.90456272708E+02  0.91728809137E+03  0.99148408768E+03  0.91686679752E+02 0.  0.
          2    1    3    3  502    0  0.21596599846E+02 -0.16286882046E+03 -0.28801147669E+03  0.33157695413E+03  0.00000000000E+00 0. -1.
         -1    1    3    3    0  502  0.31554032103E+02  0.64640395566E+00 -0.61116521485E+02  0.68784474836E+02  0.00000000000E+00 0.  1.
         13    1    5    5    0    0  0.23412544849E+03  0.23407704244E+03  0.13677986157E+03  0.35821155475E+03  0.00000000000E+00 0.  1.
        -13    1    5    5    0    0  0.66326053371E+02  0.18601646779E+02  0.50716237551E+02  0.85541237833E+02  0.00000000000E+00 0. -1.
          1    1    6    6  503    0 -0.22850775666E+03 -0.28359538849E+02  0.47876195575E+03  0.53125612332E+03  0.00000000000E+00 0. -1.
         -1    1    6    6    0  503 -0.12509437715E+03 -0.62096733859E+02  0.43852613563E+03  0.46022796436E+03  0.00000000000E+00 0.  1.
<mgrwt>
<rscale>  0 0.16728433E+04</rscale>
<asrwt>0</asrwt>
<pdfrwt beam="1">  1        2 0.83072471E-01 0.16728433E+04</pdfrwt>
<pdfrwt beam="2">  1       -1 0.19932727E+00 0.16728433E+04</pdfrwt>
<totfact> 0.93254147E+00</totfact>
</mgrwt>
</event>
<event>
12    7  0.1572140E-007  0.2487286E+04  0.7818608E-02  0.8407529E-01
         -1   -1    0    0    0  501 -0.00000000000E+00  0.00000000000E+00  0.48862893734E+03  0.48862893734E+03  0.00000000000E+00 0.  1.
          2   -1    0    0  501    0  0.00000000000E+00 -0.00000000000E+00 -0.31652803927E+04  0.31652803927E+04  0.00000000000E+00 0. -1.
         24    2    1    2    0    0 -0.74064227858E+02 -0.17226046385E+03  0.39842710141E+03  0.44759851134E+03  0.80256432505E+02 0.  0.
        254    2    1    2    0    0  0.74064227858E+02  0.17226046385E+03 -0.30750785568E+04  0.32063108187E+04  0.88834776892E+03 0.  0.
         23    2    4    4    0    0  0.36270322518E+02  0.24947639639E+02  0.23036124138E+02  0.10313532386E+03  0.90378708733E+02 0.  0.
         23    2    4    4    0    0  0.37793905340E+02  0.14731282421E+03 -0.30981146809E+04  0.31031754949E+04  0.90852233161E+02 0.  0.
          4    1    3    3  502    0  0.92324810471E+01 -0.44384551851E+02  0.51640658994E+02  0.68716699648E+02  0.00000000000E+00 0. -1.
         -3    1    3    3    0  502 -0.83296708905E+02 -0.12787591200E+03  0.34678644242E+03  0.37888181169E+03  0.00000000000E+00 0.  1.
         13    1    5    5    0    0 -0.13687818601E+02 -0.14398390463E+02  0.33245658900E+02  0.38729108713E+02  0.00000000000E+00 0. -1.
        -13    1    5    5    0    0  0.49958141119E+02  0.39346030102E+02 -0.10209534762E+02  0.64406215143E+02  0.00000000000E+00 0.  1.
          1    1    6    6  503    0 -0.16993718323E+02  0.93629495068E+01 -0.82047848026E+03  0.82070785780E+03  0.00000000000E+00 0. -1.
         -1    1    6    6    0  503  0.54787623663E+02  0.13794987471E+03 -0.22776362007E+04  0.22824676371E+04  0.00000000000E+00 0.  1.
<mgrwt>
<rscale>  0 0.24872857E+04</rscale>
<asrwt>0</asrwt>
<pdfrwt beam="1">  1        2 0.48696623E+00 0.24872857E+04</pdfrwt>
<pdfrwt beam="2">  1       -1 0.75173681E-01 0.24872857E+04</pdfrwt>
<totfact> 0.24690132E+00</totfact>
</mgrwt>
</event>
<event>
12    7  0.1572140E-007  0.1263229E+04  0.7818608E-02  0.9059244E-01
          2   -1    0    0  501    0  0.00000000000E+00  0.00000000000E+00  0.36452422164E+04  0.36452422164E+04  0.00000000000E+00 0. -1.
         -1   -1    0    0    0  501 -0.00000000000E+00 -0.00000000000E+00 -0.10944042983E+03  0.10944042983E+03  0.00000000000E+00 0.  1.
         24    2    1    2    0    0  0.64716274609E+02  0.39357408441E+02  0.17915655306E+04  0.17950778514E+04  0.82826567845E+02 0.  0.
        254    2    1    2    0    0 -0.64716274609E+02 -0.39357408441E+02  0.17442362560E+04  0.19596047948E+04  0.88991776784E+03 0.  0.
         23    2    4    4    0    0 -0.68062092989E+02  0.41262334104E+03  0.73941166135E+03  0.85408391915E+03  0.88539629218E+02 0.  0.
         23    2    4    4    0    0  0.33458183798E+01 -0.45198074948E+03  0.10048245946E+04  0.11055208757E+04  0.90587792959E+02 0.  0.
          2    1    3    3  502    0  0.55429972488E+02  0.59690535150E+02  0.16221524675E+04  0.16241964382E+04  0.00000000000E+00 0. -1.
         -1    1    3    3    0  502  0.92863021207E+01 -0.20333126709E+02  0.16941306304E+03  0.17088141320E+03  0.00000000000E+00 0.  1.
         13    1    5    5    0    0 -0.11898095182E+02  0.83043027893E+02  0.22938352355E+03  0.24424272768E+03  0.00000000000E+00 0.  1.
        -13    1    5    5    0    0 -0.56163997807E+02  0.32958031314E+03  0.51002813780E+03  0.60984119146E+03  0.00000000000E+00 0. -1.
          3    1    6    6  503    0 -0.22229467108E+01 -0.31955653347E+03  0.60365380591E+03  0.68302213505E+03  0.00000000000E+00 0. -1.
         -3    1    6    6    0  503  0.55687650906E+01 -0.13242421600E+03  0.40117078870E+03  0.42249874063E+03  0.00000000000E+00 0.  1.
<mgrwt>
<rscale>  0 0.12632290E+04</rscale>
<asrwt>0</asrwt>
<pdfrwt beam="1">  1        2 0.56080640E+00 0.12632290E+04</pdfrwt>
<pdfrwt beam="2">  1       -1 0.16836992E-01 0.12632290E+04</pdfrwt>
<totfact> 0.20024086E+01</totfact>
</mgrwt>
</event>
<event>
12    7  0.1572140E-007  0.1355713E+04  0.7818608E-02  0.8986515E-01
         -1   -1    0    0    0  501 -0.00000000000E+00  0.00000000000E+00  0.20113552859E+03  0.20113552859E+03  0.00000000000E+00 0.  1.
          2   -1    0    0  501    0  0.00000000000E+00 -0.00000000000E+00 -0.22844761500E+04  0.22844761500E+04  0.00000000000E+00 0. -1.
         24    2    1    2    0    0 -0.32392721068E+03 -0.15926192868E+03 -0.74992746126E+03  0.83608348444E+03  0.79694391605E+02 0.  0.
        254    2    1    2    0    0  0.32392721068E+03  0.15926192868E+03 -0.13334131602E+04  0.16495281942E+04  0.90147623813E+03 0.  0.
         23    2    4    4    0    0 -0.26770962126E+03 -0.87709354435E+02 -0.61568255280E+03  0.68311633144E+03  0.90672731808E+02 0.  0.
         23    2    4    4    0    0  0.59163683195E+03  0.24697128311E+03 -0.71773060736E+03  0.96641186272E+03  0.88236659429E+02 0.  0.
          4    1    3    3  502    0 -0.31074843337E+03 -0.14846964016E+03 -0.74037114323E+03  0.81655205138E+03  0.00000000000E+00 0. -1.
         -3    1    3    3    0  502 -0.13178777308E+02 -0.10792288524E+02 -0.95563180315E+01  0.19531433056E+02  0.00000000000E+00 0.  1.
         13    1    5    5    0    0 -0.20694767434E+02 -0.65586565480E+01 -0.13394169944E+03  0.13568960249E+03  0.00000000000E+00 0. -1.
        -13    1    5    5    0    0 -0.24701485383E+03 -0.81150697887E+02 -0.48174085336E+03  0.54742672896E+03  0.00000000000E+00 0.  1.
          3    1    6    6  503    0  0.81570613458E+02  0.11568824005E+02 -0.12551914277E+03  0.15014212557E+03  0.00000000000E+00 0. -1.
         -3    1    6    6    0  503  0.51006621849E+03  0.23540245911E+03 -0.59221146459E+03  0.81626973715E+03  0.00000000000E+00 0.  1.
<mgrwt>
<rscale>  0 0.13557128E+04</rscale>
<asrwt>0</asrwt>
<pdfrwt beam="1">  1        2 0.35145789E+00 0.13557128E+04</pdfrwt>
<pdfrwt beam="2">  1       -1 0.30943925E-01 0.13557128E+04</pdfrwt>
<totfact> 0.49828442E+01</totfact>
</mgrwt>
</event>
<event>
12    7  0.1572140E-007  0.1692033E+04  0.7818608E-02  0.8765922E-01
          2   -1    0    0  501    0  0.00000000000E+00  0.00000000000E+00  0.30704601441E+04  0.30704601441E+04  0.00000000000E+00 0. -1.
         -1   -1    0    0    0  501 -0.00000000000E+00 -0.00000000000E+00 -0.23310626516E+03  0.23310626516E+03  0.00000000000E+00 0.  1.
         24    2    1    2    0    0  0.14910054508E+03 -0.97539939441E+02 -0.10319769631E+03  0.22047231815E+03  0.78824274285E+02 0.  0.
        254    2    1    2    0    0 -0.14910054508E+03  0.97539939441E+02  0.29405515752E+04  0.30830940911E+04  0.90932975075E+03 0.  0.
         23    2    4    4    0    0 -0.28929765807E+03  0.40009288962E+03  0.10856001758E+04  0.11961822739E+04  0.92503164470E+02 0.  0.
         23    2    4    4    0    0  0.14019711299E+03 -0.30255295018E+03  0.18549513994E+04  0.18869118172E+04  0.91640566440E+02 0.  0.
          4    1    3    3  502    0  0.37006337943E+02 -0.19665618471E+02  0.10075962328E+02  0.43101399219E+02  0.00000000000E+00 0. -1.
         -3    1    3    3    0  502  0.11209420714E+03 -0.77874320971E+02 -0.11327365864E+03  0.17737091893E+03  0.00000000000E+00 0.  1.
         13    1    5    5    0    0 -0.19961014019E+03  0.32904467426E+03  0.77786469831E+03  0.86786409915E+03  0.00000000000E+00 0. -1.
        -13    1    5    5    0    0 -0.89687517878E+02  0.71048215357E+02  0.30773547752E+03  0.32831817479E+03  0.00000000000E+00 0.  1.
          4    1    6    6  503    0  0.43594692659E+02 -0.18656104102E+03  0.90664369969E+03  0.92666515929E+03  0.00000000000E+00 0. -1.
         -4    1    6    6    0  503  0.96602420329E+02 -0.11599190915E+03  0.94830769971E+03  0.96024665786E+03  0.00000000000E+00 0.  1.
<mgrwt>
<rscale>  0 0.16920325E+04</rscale>
<asrwt>0</asrwt>
<pdfrwt beam="1">  1        2 0.47237845E+00 0.16920325E+04</pdfrwt>
<pdfrwt beam="2">  1       -1 0.35862505E-01 0.16920325E+04</pdfrwt>
<totfact> 0.12724624E+01</totfact>
</mgrwt>
</event>
<event>
12    7  0.1572140E-007  0.1239203E+04  0.7818608E-02  0.9079218E-01
          2   -1    0    0  501    0  0.00000000000E+00  0.00000000000E+00  0.28439214630E+04  0.28439214630E+04  0.00000000000E+00 0. -1.
         -1   -1    0    0    0  501 -0.00000000000E+00 -0.00000000000E+00 -0.13499169062E+03  0.13499169062E+03  0.00000000000E+00 0.  1.
         24    2    1    2    0    0 -0.21356794626E+03 -0.20282042381E+03  0.62716353536E+03  0.69769640773E+03  0.81846107406E+02 0.  0.
        254    2    1    2    0    0  0.21356794626E+03  0.20282042381E+03  0.20817662370E+04  0.22812167459E+04  0.88512811736E+03 0.  0.
         23    2    4    4    0    0  0.22712187582E+03  0.51516841360E+03  0.99632773150E+03  0.11481148961E+04  0.92282312178E+02 0.  0.
         23    2    4    4    0    0 -0.13553929557E+02 -0.31234798979E+03  0.10854385055E+04  0.11331018498E+04  0.89431969163E+02 0.  0.
          2    1    3    3  502    0 -0.10053916330E+03 -0.10528273166E+03  0.21792749023E+03  0.26207817143E+03  0.00000000000E+00 0. -1.
         -1    1    3    3    0  502 -0.11302878296E+03 -0.97537692153E+02  0.40923604513E+03  0.43561823631E+03  0.00000000000E+00 0.  1.
         13    1    5    5    0    0  0.88057514857E+02  0.14583692161E+03  0.23097182615E+03  0.28700264476E+03  0.00000000000E+00 0.  1.
        -13    1    5    5    0    0  0.13906436096E+03  0.36933149198E+03  0.76535590535E+03  0.86111225129E+03  0.00000000000E+00 0. -1.
          4    1    6    6  503    0 -0.28419104698E+02 -0.22456255475E+03  0.89008181947E+03  0.91841256082E+03  0.00000000000E+00 0. -1.
         -4    1    6    6    0  503  0.14865175141E+02 -0.87785435037E+02  0.19535668602E+03  0.21468928899E+03  0.00000000000E+00 0.  1.
<mgrwt>
<rscale>  0 0.12392026E+04</rscale>
<asrwt>0</asrwt>
<pdfrwt beam="1">  1        2 0.43752634E+00 0.12392026E+04</pdfrwt>
<pdfrwt beam="2">  1       -1 0.20767954E-01 0.12392026E+04</pdfrwt>
<totfact> 0.47297853E+01</totfact>
</mgrwt>
</event>
<event>
12    7  0.1572140E-007  0.2351501E+04  0.7818608E-02  0.8457887E-01
          2   -1    0    0  501    0  0.00000000000E+00  0.00000000000E+00  0.22938050548E+04  0.22938050548E+04  0.00000000000E+00 0. -1.
         -1   -1    0    0    0  501 -0.00000000000E+00 -0.00000000000E+00 -0.60266226092E+03  0.60266226092E+03  0.00000000000E+00 0.  1.
         24    2    1    2    0    0  0.40269998712E+03  0.92178708681E+03  0.64875556725E+03  0.11996141099E+04  0.79570809168E+02 0.  0.
        254    2    1    2    0    0 -0.40269998712E+03 -0.92178708681E+03  0.10423872266E+04  0.16968532058E+04  0.88367469053E+03 0.  0.
         23    2    4    4    0    0 -0.48380499561E+03 -0.10309442121E+04  0.76464517323E+03  0.13745300087E+04  0.87961705299E+02 0.  0.
         23    2    4    4    0    0  0.81105008489E+02  0.10915712530E+03  0.27774205339E+03  0.32232319707E+03  0.90875160204E+02 0.  0.
          4    1    3    3  502    0  0.36061411139E+03  0.75818270069E+03  0.55464343661E+03  0.10062369933E+04  0.00000000000E+00 0. -1.
         -3    1    3    3    0  502  0.42085875731E+02  0.16360438612E+03  0.94112130636E+02  0.19337711660E+03  0.00000000000E+00 0.  1.
         13    1    5    5    0    0 -0.44200712413E+02 -0.13800993543E+03  0.12544666362E+03  0.19166979592E+03  0.00000000000E+00 0.  1.
        -13    1    5    5    0    0 -0.43960428320E+03 -0.89293427669E+03  0.63919850961E+03  0.11828602128E+04  0.00000000000E+00 0. -1.
          1    1    6    6  503    0  0.92640299486E+02  0.95836166338E+02  0.27341980447E+03  0.30417952815E+03  0.00000000000E+00 0. -1.
         -1    1    6    6    0  503 -0.11535290996E+02  0.13320958966E+02  0.43222489134E+01  0.18143668919E+02  0.00000000000E+00 0.  1.
<mgrwt>
<rscale>  0 0.23515014E+04</rscale>
<asrwt>0</asrwt>
<pdfrwt beam="1">  1        2 0.35289308E+00 0.23515014E+04</pdfrwt>
<pdfrwt beam="2">  1       -1 0.92717272E-01 0.23515014E+04</pdfrwt>
<totfact> 0.53077029E+00</totfact>
</mgrwt>
</event>
<event>
12    7  0.1572140E-007  0.1424826E+04  0.7818608E-02  0.8936042E-01
          2   -1    0    0  501    0  0.00000000000E+00  0.00000000000E+00  0.22188846118E+04  0.22188846118E+04  0.00000000000E+00 0. -1.
         -1   -1    0    0    0  501 -0.00000000000E+00 -0.00000000000E+00 -0.22873298217E+03  0.22873298217E+03  0.00000000000E+00 0.  1.
         24    2    1    2    0    0 -0.41127684201E+03  0.31886771895E+02  0.77893522936E+03  0.88446083410E+03  0.73249358524E+02 0.  0.
        254    2    1    2    0    0  0.41127684201E+03 -0.31886771895E+02  0.12112164003E+04  0.15631567599E+04  0.89791340375E+03 0.  0.
         23    2    4    4    0    0  0.22119647518E+03  0.24038202910E+03  0.39537449436E+02  0.34208259682E+03  0.93519477076E+02 0.  0.
         23    2    4    4    0    0  0.19008036684E+03 -0.27226880100E+03  0.11716789509E+04  0.12210741631E+04  0.89048874007E+02 0.  0.
          4    1    3    3  502    0 -0.38983502865E+03  0.47007757426E+02  0.73389349391E+03  0.83233451162E+03  0.00000000000E+00 0. -1.
         -3    1    3    3    0  502 -0.21441813360E+02 -0.15120985531E+02  0.45041735448E+02  0.52126322484E+02  0.00000000000E+00 0.  1.
         13    1    5    5    0    0  0.22577767375E+03  0.23822847940E+03  0.27914216482E+02  0.32940487222E+03  0.00000000000E+00 0.  1.
        -13    1    5    5    0    0 -0.45811985751E+01  0.21535497069E+01  0.11623232954E+02  0.12677724600E+02  0.00000000000E+00 0. -1.
          1    1    6    6  503    0 -0.61925881791E+01 -0.16677897212E+02  0.11436536976E+03  0.11574082342E+03  0.00000000000E+00 0. -1.
         -1    1    6    6    0  503  0.19627295501E+03 -0.25559090379E+03  0.10573135811E+04  0.11053333396E+04  0.00000000000E+00 0.  1.
<mgrwt>
<rscale>  0 0.14248257E+04</rscale>
<asrwt>0</asrwt>
<pdfrwt beam="1">  1        2 0.34136685E+00 0.14248257E+04</pdfrwt>
<pdfrwt beam="2">  1       -1 0.35189691E-01 0.14248257E+04</pdfrwt>
<totfact> 0.42916223E+01</totfact>
</mgrwt>
</event>
<event>
12    7  0.1572140E-007  0.1878019E+04  0.7818608E-02  0.8665876E-01
         -1   -1    0    0    0  501 -0.00000000000E+00  0.00000000000E+00  0.34168850524E+03  0.34168850524E+03  0.00000000000E+00 0.  1.
          2   -1    0    0  501    0  0.00000000000E+00 -0.00000000000E+00 -0.25805346826E+04  0.25805346826E+04  0.00000000000E+00 0. -1.
         24    2    1    2    0    0  0.68228292012E+03 -0.19564010591E+03 -0.10483740696E+04  0.12688957931E+04  0.84990057074E+02 0.  0.
        254    2    1    2    0    0 -0.68228292012E+03  0.19564010591E+03 -0.11904721078E+04  0.16533273948E+04  0.90137816747E+03 0.  0.
         23    2    4    4    0    0 -0.64138360232E+03  0.19844303773E+02 -0.12783157245E+04  0.14330571991E+04  0.88289991927E+02 0.  0.
         23    2    4    4    0    0 -0.40899317798E+02  0.17579580213E+03  0.87843616715E+02  0.22027019567E+03  0.90694762025E+02 0.  0.
          2    1    3    3  502    0  0.13789431013E+03 -0.61716895443E+02 -0.17641091598E+03  0.23225982698E+03  0.00000000000E+00 0. -1.
         -1    1    3    3    0  502  0.54438860999E+03 -0.13392321046E+03 -0.87196315357E+03  0.10366359661E+04  0.00000000000E+00 0.  1.
         13    1    5    5    0    0 -0.42295702985E+03  0.26961530451E+01 -0.74875879045E+03  0.85996490895E+03  0.00000000000E+00 0. -1.
        -13    1    5    5    0    0 -0.21842657247E+03  0.17148150728E+02 -0.52955693409E+03  0.57309229020E+03  0.00000000000E+00 0.  1.
          4    1    6    6  503    0  0.43544640922E+01  0.14789778266E+03  0.55417832717E+02  0.15799953055E+03  0.00000000000E+00 0. -1.
         -4    1    6    6    0  503 -0.45253781890E+02  0.27898019478E+02  0.32425783998E+02  0.62270665116E+02  0.00000000000E+00 0.  1.
<mgrwt>
<rscale>  0 0.18780192E+04</rscale>
<asrwt>0</asrwt>
<pdfrwt beam="1">  1        2 0.39700532E+00 0.18780192E+04</pdfrwt>
<pdfrwt beam="2">  1       -1 0.52567464E-01 0.18780192E+04</pdfrwt>
<totfact> 0.12183897E+01</totfact>
</mgrwt>
</event>
<event>
12    7  0.1572140E-007  0.1475805E+04  0.7818608E-02  0.8900703E-01
         -1   -1    0    0    0  501 -0.00000000000E+00  0.00000000000E+00  0.36582846722E+03  0.36582846722E+03  0.00000000000E+00 0.  1.
          2   -1    0    0  501    0  0.00000000000E+00 -0.00000000000E+00 -0.14884036710E+04  0.14884036710E+04  0.00000000000E+00 0. -1.
         24    2    1    2    0    0  0.17861864809E+03 -0.33727854369E+03 -0.67569407951E+03  0.78011693094E+03  0.79740199219E+02 0.  0.
        254    2    1    2    0    0 -0.17861864809E+03  0.33727854369E+03 -0.44688112422E+03  0.10741152072E+04  0.89908803893E+03 0.  0.
         23    2    4    4    0    0  0.18829803462E+03  0.47469486491E+03 -0.71823080175E+02  0.52482018490E+03  0.97397674601E+02 0.  0.
         23    2    4    4    0    0 -0.36691668271E+03 -0.13741632122E+03 -0.37505804404E+03  0.54929502234E+03  0.86864191550E+02 0.  0.
          2    1    3    3  502    0  0.14802718900E+03 -0.22129245310E+03 -0.51313975332E+03  0.57809584406E+03  0.00000000000E+00 0. -1.
         -1    1    3    3    0  502  0.30591459087E+02 -0.11598609060E+03 -0.16255432619E+03  0.20202108688E+03  0.00000000000E+00 0.  1.
         13    1    5    5    0    0  0.10213537736E+03  0.24603129291E+03 -0.86338544191E+02  0.28003102795E+03  0.00000000000E+00 0. -1.
        -13    1    5    5    0    0  0.86162657253E+02  0.22866357201E+03  0.14515464016E+02  0.24478915696E+03  0.00000000000E+00 0.  1.
          2    1    6    6  503    0 -0.37149726346E+03 -0.13800381337E+03 -0.36770974593E+03  0.54061606202E+03  0.00000000000E+00 0. -1.
         -2    1    6    6    0  503  0.45805807498E+01  0.58749214488E+00 -0.73482981139E+01  0.86789603177E+01  0.00000000000E+00 0.  1.
<mgrwt>
<rscale>  0 0.14758055E+04</rscale>
<asrwt>0</asrwt>
<pdfrwt beam="1">  1        2 0.22898517E+00 0.14758055E+04</pdfrwt>
<pdfrwt beam="2">  1       -1 0.56281304E-01 0.14758055E+04</pdfrwt>
<totfact> 0.45403591E+01</totfact>
</mgrwt>
</event>
<event>
12    7  0.1572140E-007  0.1331578E+04  0.7818608E-02  0.9004892E-01
          2   -1    0    0  501    0  0.00000000000E+00  0.00000000000E+00  0.18159108564E+04  0.18159108564E+04  0.00000000000E+00 0. -1.
         -1   -1    0    0    0  501 -0.00000000000E+00 -0.00000000000E+00 -0.24410615624E+03  0.24410615624E+03  0.00000000000E+00 0.  1.
         24    2    1    2    0    0  0.63418459667E+02 -0.45827742677E+02  0.96550632974E+03  0.97194162408E+03  0.79661564222E+02 0.  0.
        254    2    1    2    0    0 -0.63418459667E+02  0.45827742677E+02  0.60629837045E+03  0.10880753886E+04  0.90010457961E+03 0.  0.
         23    2    4    4    0    0  0.30768826567E+03 -0.61387844602E+02 -0.40362593868E+02  0.32924933683E+03  0.91298688486E+02 0.  0.
         23    2    4    4    0    0 -0.37110672534E+03  0.10721558728E+03  0.64666096432E+03  0.75882605177E+03  0.91821513400E+02 0.  0.
          2    1    3    3  502    0  0.75325739281E+02 -0.47090815805E+02  0.93435095224E+03  0.93856444311E+03  0.00000000000E+00 0. -1.
         -1    1    3    3    0  502 -0.11907279613E+02  0.12630731281E+01  0.31155377508E+02  0.33377180965E+02  0.00000000000E+00 0.  1.
         13    1    5    5    0    0  0.87468608131E+02 -0.59618746739E+02 -0.31538736277E+01  0.10590136586E+03  0.00000000000E+00 0.  1.
        -13    1    5    5    0    0  0.22021965754E+03 -0.17690978631E+01 -0.37208720240E+02  0.22334797097E+03  0.00000000000E+00 0. -1.
          2    1    6    6  503    0 -0.18611279364E+03  0.85261240865E+02  0.27223512654E+03  0.34061622872E+03  0.00000000000E+00 0.  1.
         -2    1    6    6    0  503 -0.18499393170E+03  0.21954346414E+02  0.37442583779E+03  0.41820982305E+03  0.00000000000E+00 0. -1.
<mgrwt>
<rscale>  0 0.13315780E+04</rscale>
<asrwt>0</asrwt>
<pdfrwt beam="1">  1        2 0.27937089E+00 0.13315780E+04</pdfrwt>
<pdfrwt beam="2">  1       -1 0.37554795E-01 0.13315780E+04</pdfrwt>
<totfact> 0.64383713E+01</totfact>
</mgrwt>
</event>
<event>
12    7  0.1572140E-007  0.1440469E+04  0.7818608E-02  0.8925035E-01
         -1   -1    0    0    0  501 -0.00000000000E+00  0.00000000000E+00  0.28256318782E+03  0.28256318782E+03  0.00000000000E+00 0.  1.
          2   -1    0    0  501    0  0.00000000000E+00 -0.00000000000E+00 -0.18358285374E+04  0.18358285374E+04  0.00000000000E+00 0. -1.
         24    2    1    2    0    0  0.20882718329E+03 -0.70949195375E+02  0.70437051248E+02  0.24480461148E+03  0.79531998645E+02 0.  0.
        254    2    1    2    0    0 -0.20882718329E+03  0.70949195375E+02 -0.16237024008E+04  0.18735871137E+04  0.90844735978E+03 0.  0.
         23    2    4    4    0    0 -0.18603713433E+03  0.11326632399E+03 -0.17178224270E+04  0.17342437124E+04  0.96168019100E+02 0.  0.
         23    2    4    4    0    0 -0.22790048962E+02 -0.42317128612E+02  0.94120026171E+02  0.13934340131E+03  0.90817831160E+02 0.  0.
          4    1    3    3  502    0  0.53367676383E+02 -0.14714935967E+02 -0.16838654194E+02  0.57863446995E+02  0.00000000000E+00 0. -1.
         -3    1    3    3    0  502  0.15545950691E+03 -0.56234259409E+02  0.87275705442E+02  0.18694116449E+03  0.00000000000E+00 0.  1.
         13    1    5    5    0    0 -0.59264276193E+02 -0.41533609975E+01 -0.29150543789E+03  0.29749777337E+03  0.00000000000E+00 0.  1.
        -13    1    5    5    0    0 -0.12677285814E+03  0.11741968498E+03 -0.14263169891E+04  0.14367459390E+04  0.00000000000E+00 0. -1.
          1    1    6    6  503    0 -0.55604582423E+02 -0.11465337748E+02  0.43056228221E+02  0.71254209313E+02  0.00000000000E+00 0. -1.
         -1    1    6    6    0  503  0.32814533462E+02 -0.30851790864E+02  0.51063797951E+02  0.68089191998E+02  0.00000000000E+00 0.  1.
<mgrwt>
<rscale>  0 0.14404688E+04</rscale>
<asrwt>0</asrwt>
<pdfrwt beam="1">  1        2 0.28243517E+00 0.14404688E+04</pdfrwt>
<pdfrwt beam="2">  1       -1 0.43471258E-01 0.14404688E+04</pdfrwt>
<totfact> 0.47603416E+01</totfact>
</mgrwt>
</event>
<event>
12    7  0.1572140E-007  0.1469046E+04  0.7818608E-02  0.8905302E-01
          2   -1    0    0  501    0  0.00000000000E+00  0.00000000000E+00  0.14072614505E+04  0.14072614505E+04  0.00000000000E+00 0. -1.
         -1   -1    0    0    0  501 -0.00000000000E+00 -0.00000000000E+00 -0.38338552878E+03  0.38338552878E+03  0.00000000000E+00 0.  1.
         24    2    1    2    0    0  0.30139645031E+03 -0.24265103129E+03  0.27025412147E+02  0.39500029529E+03  0.74669385501E+02 0.  0.
        254    2    1    2    0    0 -0.30139645031E+03  0.24265103129E+03  0.99685050953E+03  0.13956466839E+04  0.89688315003E+03 0.  0.
         23    2    4    4    0    0  0.18300076532E+03  0.24715584612E+02 -0.55366861615E+02  0.21339469126E+03  0.91496801397E+02 0.  0.
         23    2    4    4    0    0 -0.48439721562E+03  0.21793544668E+03  0.10522173711E+04  0.11822519927E+04  0.91770674130E+02 0.  0.
          4    1    3    3  502    0  0.39688620431E+02 -0.70162586480E+02  0.73905456974E+01  0.80948102504E+02  0.00000000000E+00 0. -1.
         -3    1    3    3    0  502  0.26170782987E+03 -0.17248844481E+03  0.19634866450E+02  0.31405219278E+03  0.00000000000E+00 0.  1.
         13    1    5    5    0    0  0.49183464561E+02  0.14983795885E+02  0.24815435200E+02  0.57090569708E+02  0.00000000000E+00 0. -1.
        -13    1    5    5    0    0  0.13381730075E+03  0.97317887267E+01 -0.80182296815E+02  0.15630412156E+03  0.00000000000E+00 0.  1.
          1    1    6    6  503    0 -0.14027450934E+02  0.28436642598E+02  0.54349243746E+02  0.62922589884E+02  0.00000000000E+00 0. -1.
         -1    1    6    6    0  503 -0.47036976469E+03  0.18949880408E+03  0.99786812740E+03  0.11193294028E+04  0.00000000000E+00 0.  1.
<mgrwt>
<rscale>  0 0.14690455E+04</rscale>
<asrwt>0</asrwt>
<pdfrwt beam="1">  1        2 0.21650176E+00 0.14690455E+04</pdfrwt>
<pdfrwt beam="2">  1       -1 0.58982390E-01 0.14690455E+04</pdfrwt>
<totfact> 0.46085813E+01</totfact>
</mgrwt>
</event>
<event>
12    7  0.1572140E-007  0.2159506E+04  0.7818608E-02  0.8535474E-01
         -1   -1    0    0    0  501 -0.00000000000E+00  0.00000000000E+00  0.92362211988E+03  0.92362211988E+03  0.00000000000E+00 0.  1.
          2   -1    0    0  501    0  0.00000000000E+00 -0.00000000000E+00 -0.12622768267E+04  0.12622768267E+04  0.00000000000E+00 0. -1.
         24    2    1    2    0    0 -0.15285350381E+03 -0.76029690064E+02  0.74176674838E+03  0.76528688836E+03  0.79381390066E+02 0.  0.
        254    2    1    2    0    0  0.15285350381E+03  0.76029690064E+02 -0.10804214552E+04  0.14206120582E+04  0.90646753484E+03 0.  0.
         23    2    4    4    0    0  0.36174589090E+03  0.38135176430E+03 -0.71945723758E+03  0.89558974133E+03  0.90404703074E+02 0.  0.
         23    2    4    4    0    0 -0.20889238709E+03 -0.30532207424E+03 -0.36096421758E+03  0.52502231686E+03  0.92171950342E+02 0.  0.
          4    1    3    3  502    0 -0.16792544183E+01 -0.18434853230E+02  0.29093705756E+02  0.34483436947E+02  0.00000000000E+00 0. -1.
         -3    1    3    3    0  502 -0.15117424939E+03 -0.57594836834E+02  0.71267304262E+03  0.73080345141E+03  0.00000000000E+00 0.  1.
         13    1    5    5    0    0  0.12465698580E+03  0.12738413952E+03 -0.31908061926E+03  0.36548395956E+03  0.00000000000E+00 0.  1.
        -13    1    5    5    0    0  0.23708890510E+03  0.25396762479E+03 -0.40037661832E+03  0.53010578177E+03  0.00000000000E+00 0. -1.
          3    1    6    6  503    0 -0.17031153858E+03 -0.19036378533E+03 -0.28113898974E+03  0.37984670920E+03  0.00000000000E+00 0. -1.
         -3    1    6    6    0  503 -0.38580848513E+02 -0.11495828891E+03 -0.79825227835E+02  0.14517560766E+03  0.00000000000E+00 0.  1.
<mgrwt>
<rscale>  0 0.21595062E+04</rscale>
<asrwt>0</asrwt>
<pdfrwt beam="1">  1        2 0.19419643E+00 0.21595062E+04</pdfrwt>
<pdfrwt beam="2">  1       -1 0.14209571E+00 0.21595062E+04</pdfrwt>
<totfact> 0.73306592E+00</totfact>
</mgrwt>
</event>
<event>
12    7  0.1572140E-007  0.1639627E+04  0.7818608E-02  0.8796567E-01
          2   -1    0    0  501    0  0.00000000000E+00  0.00000000000E+00  0.75953425962E+03  0.75953425962E+03  0.00000000000E+00 0. -1.
         -3   -1    0    0    0  501 -0.00000000000E+00 -0.00000000000E+00 -0.88487699971E+03  0.88487699971E+03  0.00000000000E+00 0.  1.
         24    2    1    2    0    0 -0.29309601937E+03  0.31702638201E+02  0.44376568791E+03  0.53938094384E+03  0.84222817427E+02 0.  0.
        254    2    1    2    0    0  0.29309601937E+03 -0.31702638201E+02 -0.56910842800E+03  0.11050303155E+04  0.90016513012E+03 0.  0.
         23    2    4    4    0    0  0.20689822453E+02 -0.34860461844E+03  0.37128862273E+02  0.36305034257E+03  0.92052974320E+02 0.  0.
         23    2    4    4    0    0  0.27240619691E+03  0.31690198023E+03 -0.60623729027E+03  0.74197997291E+03  0.91534839782E+02 0.  0.
          4    1    3    3  502    0 -0.11742627970E+03  0.54036106970E+02  0.19814637165E+03  0.23658152214E+03  0.00000000000E+00 0. -1.
         -3    1    3    3    0  502 -0.17566973967E+03 -0.22333468769E+02  0.24561931626E+03  0.30279942170E+03  0.00000000000E+00 0.  1.
         13    1    5    5    0    0  0.22622529838E+02 -0.27847628655E+03 -0.82198882694E+01  0.27951455703E+03  0.00000000000E+00 0.  1.
        -13    1    5    5    0    0 -0.19327073851E+01 -0.70128331881E+02  0.45348750543E+02  0.83535785541E+02  0.00000000000E+00 0. -1.
          1    1    6    6  503    0  0.12046819084E+03  0.74281564060E+02 -0.20072951739E+03  0.24560674851E+03  0.00000000000E+00 0. -1.
         -1    1    6    6    0  503  0.15193800608E+03  0.24262041617E+03 -0.40550777289E+03  0.49637322441E+03  0.00000000000E+00 0.  1.
<mgrwt>
<rscale>  0 0.16396273E+04</rscale>
<asrwt>0</asrwt>
<pdfrwt beam="1">  1        2 0.11685142E+00 0.16396273E+04</pdfrwt>
<pdfrwt beam="2">  1       -3 0.13613492E+00 0.16396273E+04</pdfrwt>
<totfact> 0.91938823E+00</totfact>
</mgrwt>
</event>
<event>
12    7  0.1572140E-007  0.3262417E+04  0.7818608E-02  0.8172525E-01
          2   -1    0    0  501    0  0.00000000000E+00  0.00000000000E+00  0.12759061784E+04  0.12759061784E+04  0.00000000000E+00 0. -1.
         -1   -1    0    0    0  501 -0.00000000000E+00 -0.00000000000E+00 -0.20854518510E+04  0.20854518510E+04  0.00000000000E+00 0.  1.
         24    2    1    2    0    0 -0.47149635533E+03 -0.95404617610E+02  0.10951156647E+04  0.11985755072E+04  0.76772867215E+02 0.  0.
        254    2    1    2    0    0  0.47149635533E+03  0.95404617610E+02 -0.19046613373E+04  0.21627825222E+04  0.90470026767E+03 0.  0.
         23    2    4    4    0    0 -0.93459230509E+02  0.44524105749E+02 -0.13734810190E+04  0.13804897255E+04  0.92653920768E+02 0.  0.
         23    2    4    4    0    0  0.56495558584E+03  0.50880511860E+02 -0.53118031836E+03  0.78229279669E+03  0.89810070080E+02 0.  0.
          2    1    3    3  502    0 -0.32165947559E+03 -0.66295693463E+02  0.83071074118E+03  0.89327502636E+03  0.00000000000E+00 0. -1.
         -1    1    3    3    0  502 -0.14983687974E+03 -0.29108924147E+02  0.26440492355E+03  0.30530048082E+03  0.00000000000E+00 0.  1.
         13    1    5    5    0    0 -0.88799510509E+02  0.27185509593E+02 -0.13326972684E+04  0.13359290453E+04  0.00000000000E+00 0. -1.
        -13    1    5    5    0    0 -0.46597200001E+01  0.17338596157E+02 -0.40783750599E+02  0.44560680202E+02  0.00000000000E+00 0.  1.
          4    1    6    6  503    0  0.54420565918E+03  0.43217776769E+02 -0.52881353923E+03  0.76004692946E+03  0.00000000000E+00 0. -1.
         -4    1    6    6    0  503  0.20749926662E+02  0.76627350915E+01 -0.23667791321E+01  0.22245867235E+02  0.00000000000E+00 0.  1.
<mgrwt>
<rscale>  0 0.32624168E+04</rscale>
<asrwt>0</asrwt>
<pdfrwt beam="1">  1        2 0.19629326E+00 0.32624168E+04</pdfrwt>
<pdfrwt beam="2">  1       -1 0.32083874E+00 0.32624168E+04</pdfrwt>
<totfact> 0.39374408E-01</totfact>
</mgrwt>
</event>
<event>
12    7  0.1572140E-007  0.1659747E+04  0.7818608E-02  0.8784661E-01
         -1   -1    0    0    0  501 -0.00000000000E+00  0.00000000000E+00  0.55404533548E+03  0.55404533548E+03  0.00000000000E+00 0.  1.
          2   -1    0    0  501    0  0.00000000000E+00 -0.00000000000E+00 -0.12430215003E+04  0.12430215003E+04  0.00000000000E+00 0. -1.
         24    2    1    2    0    0  0.25148782512E+03  0.13953958463E+02  0.32195791454E+03  0.41496450308E+03  0.71398886125E+02 0.  0.
        254    2    1    2    0    0 -0.25148782512E+03 -0.13953958463E+02 -0.10109340794E+04  0.13821023327E+04  0.90817305957E+03 0.  0.
         23    2    4    4    0    0 -0.18322594025E+03 -0.10305837154E+03 -0.11545322779E+04  0.11772558218E+04  0.93774816089E+02 0.  0.
         23    2    4    4    0    0 -0.68261884866E+02  0.89104413074E+02  0.14359819845E+03  0.20484651098E+03  0.93500636924E+02 0.  0.
          2    1    3    3  502    0  0.19679626206E+02  0.21952081616E+02  0.43659576640E+02  0.52681497770E+02  0.00000000000E+00 0. -1.
         -1    1    3    3    0  502  0.23180819891E+03 -0.79981231527E+01  0.27829833790E+03  0.36228300531E+03  0.00000000000E+00 0.  1.
         13    1    5    5    0    0 -0.87403615629E+02  0.26682498838E+01 -0.45124933550E+03  0.45964385601E+03  0.00000000000E+00 0. -1.
        -13    1    5    5    0    0 -0.95822324622E+02 -0.10572662142E+03 -0.70328294235E+03  0.71761196574E+03  0.00000000000E+00 0.  1.
          3    1    6    6  503    0  0.81246955309E+01 -0.14836155428E+01  0.58204810735E+02  0.58787854063E+02  0.00000000000E+00 0. -1.
         -3    1    6    6    0  503 -0.76386580397E+02  0.90588028617E+02  0.85393387719E+02  0.14605865691E+03  0.00000000000E+00 0.  1.
<mgrwt>
<rscale>  0 0.16597473E+04</rscale>
<asrwt>0</asrwt>
<pdfrwt beam="1">  1        2 0.19123408E+00 0.16597473E+04</pdfrwt>
<pdfrwt beam="2">  1       -1 0.85237745E-01 0.16597473E+04</pdfrwt>
<totfact> 0.26447897E+01</totfact>
</mgrwt>
</event>
<event>
12    7  0.1572140E-007  0.2625269E+04  0.7818608E-02  0.8359668E-01
          2   -1    0    0  501    0  0.00000000000E+00  0.00000000000E+00  0.41993498646E+04  0.41993498646E+04  0.00000000000E+00 0. -1.
         -1   -1    0    0    0  501 -0.00000000000E+00 -0.00000000000E+00 -0.41030388545E+03  0.41030388545E+03  0.00000000000E+00 0.  1.
         24    2    1    2    0    0 -0.93437847064E+03  0.49734894119E+03  0.25127429781E+04  0.27277938617E+04  0.81012233187E+02 0.  0.
        254    2    1    2    0    0  0.93437847064E+03 -0.49734894119E+03  0.12763030011E+04  0.18818598884E+04  0.88995965832E+03 0.  0.
         23    2    4    4    0    0  0.36389798097E+03 -0.52789163237E+03  0.11006961338E+04  0.12772979622E+04  0.94163630513E+02 0.  0.
         23    2    4    4    0    0  0.57048048967E+03  0.30542691175E+02  0.17560686727E+03  0.60456192618E+03  0.90975302592E+02 0.  0.
          2    1    3    3  502    0 -0.55896195905E+03  0.33477616576E+03  0.14871326973E+04  0.16236000777E+04  0.00000000000E+00 0. -1.
         -1    1    3    3    0  502 -0.37541651160E+03  0.16257277543E+03  0.10256102808E+04  0.11041937840E+04  0.00000000000E+00 0.  1.
         13    1    5    5    0    0  0.50962731687E+02 -0.48532584186E+02  0.17844436849E+03  0.19182023979E+03  0.00000000000E+00 0.  1.
        -13    1    5    5    0    0  0.31293524928E+03 -0.47935904818E+03  0.92225176531E+03  0.10854777224E+04  0.00000000000E+00 0. -1.
          2    1    6    6  503    0  0.70921721018E+02  0.25635793848E+02  0.46389440157E+02  0.88538492174E+02  0.00000000000E+00 0.  1.
         -2    1    6    6    0  503  0.49955876865E+03  0.49068973269E+01  0.12921742711E+03  0.51602343401E+03  0.00000000000E+00 0. -1.
<mgrwt>
<rscale>  0 0.26252692E+04</rscale>
<asrwt>0</asrwt>
<pdfrwt beam="1">  1        2 0.64605380E+00 0.26252692E+04</pdfrwt>
<pdfrwt beam="2">  1       -1 0.63123678E-01 0.26252692E+04</pdfrwt>
<totfact> 0.59652689E-01</totfact>
</mgrwt>
</event>
<event>
12    7  0.1572140E-007  0.1670312E+04  0.7818608E-02  0.8778480E-01
          2   -1    0    0  501    0  0.00000000000E+00  0.00000000000E+00  0.84135790471E+03  0.84135790471E+03  0.00000000000E+00 0. -1.
         -1   -1    0    0    0  501 -0.00000000000E+00 -0.00000000000E+00 -0.82899981520E+03  0.82899981520E+03  0.00000000000E+00 0.  1.
         24    2    1    2    0    0 -0.26680159701E+03  0.52332410311E+03  0.23762037768E+02  0.59322297914E+03  0.79357794048E+02 0.  0.
        254    2    1    2    0    0  0.26680159701E+03 -0.52332410311E+03 -0.11403948259E+02  0.10771347408E+04  0.90279454511E+03 0.  0.
         23    2    4    4    0    0  0.22583295745E+03 -0.73677407874E+03  0.15143974885E+03  0.79052169093E+03  0.90299382747E+02 0.  0.
         23    2    4    4    0    0  0.40968639568E+02  0.21344997562E+03 -0.16284369711E+03  0.28661304985E+03  0.91595027879E+02 0.  0.
          4    1    3    3  502    0 -0.19798946125E+03  0.33598472750E+03 -0.13416254574E+02  0.39021219838E+03  0.00000000000E+00 0. -1.
         -3    1    3    3    0  502 -0.68812135761E+02  0.18733937561E+03  0.37178292343E+02  0.20301078076E+03  0.00000000000E+00 0.  1.
         13    1    5    5    0    0  0.10484378242E+03 -0.48768522700E+03  0.10442915522E+03  0.50964158759E+03  0.00000000000E+00 0.  1.
        -13    1    5    5    0    0  0.12098917503E+03 -0.24908885174E+03  0.47010593629E+02  0.28088010333E+03  0.00000000000E+00 0. -1.
          4    1    6    6  503    0  0.29691780861E+02  0.21930216874E+02 -0.55843461789E+02  0.66940484667E+02  0.00000000000E+00 0. -1.
         -4    1    6    6    0  503  0.11276858706E+02  0.19151975875E+03 -0.10700023532E+03  0.21967256518E+03  0.00000000000E+00 0.  1.
<mgrwt>
<rscale>  0 0.16703120E+04</rscale>
<asrwt>0</asrwt>
<pdfrwt beam="1">  1        2 0.12943968E+00 0.16703120E+04</pdfrwt>
<pdfrwt beam="2">  1       -1 0.12753843E+00 0.16703120E+04</pdfrwt>
<totfact> 0.18650227E+01</totfact>
</mgrwt>
</event>
<event>
12    7  0.1572140E-007  0.1207828E+04  0.7818608E-02  0.9106032E-01
          2   -1    0    0  501    0  0.00000000000E+00  0.00000000000E+00  0.10846561731E+04  0.10846561731E+04  0.00000000000E+00 0. -1.
         -1   -1    0    0    0  501 -0.00000000000E+00 -0.00000000000E+00 -0.33624664917E+03  0.33624664917E+03  0.00000000000E+00 0.  1.
         24    2    1    2    0    0  0.69014508404E+02  0.75317698040E+02  0.44848185801E+03  0.46671781466E+03  0.79080867097E+02 0.  0.
        254    2    1    2    0    0 -0.69014508404E+02 -0.75317698040E+02  0.29992766589E+03  0.95418500758E+03  0.90004259117E+03 0.  0.
         23    2    4    4    0    0  0.11984402651E+03 -0.42603743545E+03  0.30541931048E+03  0.54542764661E+03  0.91322918165E+02 0.  0.
         23    2    4    4    0    0 -0.18885853491E+03  0.35071973741E+03 -0.54916445888E+01  0.40875736097E+03  0.91545297905E+02 0.  0.
          4    1    3    3  502    0  0.85508209239E+02  0.51565224636E+02  0.33130417634E+03  0.34602468626E+03  0.00000000000E+00 0. -1.
         -3    1    3    3    0  502 -0.16493700835E+02  0.23752473404E+02  0.11717768167E+03  0.12069312840E+03  0.00000000000E+00 0.  1.
         13    1    5    5    0    0 -0.42977683638E+01 -0.78052743369E+02  0.26638957776E+02  0.82585323344E+02  0.00000000000E+00 0. -1.
        -13    1    5    5    0    0  0.12414179487E+03 -0.34798469208E+03  0.27878035270E+03  0.46284232327E+03  0.00000000000E+00 0.  1.
          3    1    6    6  503    0 -0.12673902954E+03  0.30855210182E+03 -0.74851090788E+01  0.33365132699E+03  0.00000000000E+00 0. -1.
         -3    1    6    6    0  503 -0.62119505374E+02  0.42167635590E+02  0.19934644900E+01  0.75106033977E+02  0.00000000000E+00 0.  1.
<mgrwt>
<rscale>  0 0.12078278E+04</rscale>
<asrwt>0</asrwt>
<pdfrwt beam="1">  1        2 0.16687018E+00 0.12078278E+04</pdfrwt>
<pdfrwt beam="2">  1       -1 0.51730254E-01 0.12078278E+04</pdfrwt>
<totfact> 0.94170567E+01</totfact>
</mgrwt>
</event>
<event>
12    7  0.1572140E-007  0.2296186E+04  0.7818608E-02  0.8479426E-01
         -1   -1    0    0    0  501 -0.00000000000E+00  0.00000000000E+00  0.13313533112E+04  0.13313533112E+04  0.00000000000E+00 0.  1.
          2   -1    0    0  501    0  0.00000000000E+00 -0.00000000000E+00 -0.99005871308E+03  0.99005871308E+03  0.00000000000E+00 0. -1.
         24    2    1    2    0    0  0.63276352983E+03 -0.64954433514E+03  0.48940349192E+03  0.10335306229E+04  0.79826326943E+02 0.  0.
        254    2    1    2    0    0 -0.63276352983E+03  0.64954433514E+03 -0.14810889383E+03  0.12878814014E+04  0.90244375540E+03 0.  0.
         23    2    4    4    0    0 -0.36538920367E+03  0.21001452660E+03 -0.49820333566E+03  0.65867682073E+03  0.89628226368E+02 0.  0.
         23    2    4    4    0    0 -0.26737432616E+03  0.43952980854E+03  0.35009444184E+03  0.62920458067E+03  0.93041943499E+02 0.  0.
          4    1    3    3  502    0  0.17287542075E+03 -0.18643890354E+03  0.17812473123E+03  0.31044129192E+03  0.00000000000E+00 0. -1.
         -3    1    3    3    0  502  0.45988810908E+03 -0.46310543160E+03  0.31127876069E+03  0.72308933094E+03  0.00000000000E+00 0.  1.
         13    1    5    5    0    0 -0.32595761902E+03  0.18646419001E+03 -0.47959553595E+03  0.60912161484E+03  0.00000000000E+00 0. -1.
        -13    1    5    5    0    0 -0.39431584649E+02  0.23550336584E+02 -0.18607799709E+02  0.49555205893E+02  0.00000000000E+00 0.  1.
          1    1    6    6  503    0 -0.22347500223E+03  0.39327900580E+03  0.26987347489E+03  0.52672682244E+03  0.00000000000E+00 0. -1.
         -1    1    6    6    0  503 -0.43899323926E+02  0.46250802746E+02  0.80220966948E+02  0.10247775824E+03  0.00000000000E+00 0.  1.
<mgrwt>
<rscale>  0 0.22961864E+04</rscale>
<asrwt>0</asrwt>
<pdfrwt beam="1">  1        2 0.15231672E+00 0.22961864E+04</pdfrwt>
<pdfrwt beam="2">  1       -1 0.20482359E+00 0.22961864E+04</pdfrwt>
<totfact> 0.36862694E+00</totfact>
</mgrwt>
</event>
<event>
12    7  0.2952754E-007  0.2389172E+04  0.7818608E-02  0.8443568E-01
         -1   -1    0    0    0  501 -0.00000000000E+00  0.00000000000E+00  0.82672236691E+03  0.82672236691E+03  0.00000000000E+00 0.  1.
          2   -1    0    0  501    0  0.00000000000E+00 -0.00000000000E+00 -0.17261370335E+04  0.17261370335E+04  0.00000000000E+00 0. -1.
         24    2    1    2    0    0  0.62324466475E+03  0.22856048436E+03 -0.12272014364E+04  0.13976388149E+04  0.81835716135E+02 0.  0.
        254    2    1    2    0    0 -0.62324466475E+03 -0.22856048436E+03  0.32778676979E+03  0.11552205855E+04  0.88680134611E+03 0.  0.
         23    2    4    4    0    0 -0.11645389994E+03  0.31845749649E+03  0.50271747014E+02  0.35439420271E+03  0.89951734164E+02 0.  0.
         23    2    4    4    0    0 -0.50679076481E+03 -0.54701798085E+03  0.27751502278E+03  0.80082638275E+03  0.90789629160E+02 0.  0.
          2    1    3    3  502    0  0.44753611373E+03  0.13132383831E+03 -0.81186851505E+03  0.93630390863E+03  0.00000000000E+00 0. -1.
         -1    1    3    3    0  502  0.17570855102E+03  0.97236646047E+02 -0.41533292132E+03  0.46133490630E+03  0.00000000000E+00 0.  1.
         13    1    5    5    0    0 -0.11446103389E+03  0.23023649619E+03  0.97822933840E+01  0.25730500524E+03  0.00000000000E+00 0. -1.
        -13    1    5    5    0    0 -0.19928660518E+01  0.88221000300E+02  0.40489453630E+02  0.97089197465E+02  0.00000000000E+00 0.  1.
          1    1    6    6  503    0 -0.38946280601E+03 -0.43545675818E+03  0.25472665224E+03  0.63733000311E+03  0.00000000000E+00 0. -1.
         -1    1    6    6    0  503 -0.11732795880E+03 -0.11156122268E+03  0.22788370535E+02  0.16349637963E+03  0.00000000000E+00 0.  1.
<mgrwt>
<rscale>  0 0.23891723E+04</rscale>
<asrwt>0</asrwt>
<pdfrwt beam="1">  1        2 0.26555954E+00 0.23891723E+04</pdfrwt>
<pdfrwt beam="2">  1       -1 0.12718806E+00 0.23891723E+04</pdfrwt>
<totfact> 0.52077491E+00</totfact>
</mgrwt>
</event>
<event>
12    7  0.1572140E-007  0.1299388E+04  0.7818608E-02  0.9030051E-01
         -1   -1    0    0    0  501 -0.00000000000E+00  0.00000000000E+00  0.55471934581E+03  0.55471934581E+03  0.00000000000E+00 0.  1.
          2   -1    0    0  501    0  0.00000000000E+00 -0.00000000000E+00 -0.76092913777E+03  0.76092913777E+03  0.00000000000E+00 0. -1.
         24    2    1    2    0    0 -0.32702461483E+03  0.51769225700E+02 -0.71885598858E+02  0.34821331108E+03  0.80373000778E+02 0.  0.
        254    2    1    2    0    0  0.32702461483E+03 -0.51769225700E+02 -0.13432419310E+03  0.96743517250E+03  0.89903430007E+03 0.  0.
         23    2    4    4    0    0 -0.21716399954E+03 -0.15850420082E+03 -0.26752362573E+03  0.38999930070E+03  0.90811782526E+02 0.  0.
         23    2    4    4    0    0  0.54418861437E+03  0.10673497512E+03  0.13319943263E+03  0.57743587180E+03  0.90313311644E+02 0.  0.
          4    1    3    3  502    0 -0.22451441797E+03  0.27767705173E+02 -0.85935827045E+02  0.24199738779E+03  0.00000000000E+00 0. -1.
         -3    1    3    3    0  502 -0.10251019686E+03  0.24001520527E+02  0.14050228187E+02  0.10621592328E+03  0.00000000000E+00 0.  1.
         13    1    5    5    0    0 -0.19449339965E+03 -0.10929183859E+03 -0.24489922343E+03  0.33128238427E+03  0.00000000000E+00 0.  1.
        -13    1    5    5    0    0 -0.22670599894E+02 -0.49212362230E+02 -0.22624402305E+02  0.58716916433E+02  0.00000000000E+00 0. -1.
          3    1    6    6  503    0  0.23656612443E+03  0.56833303042E+02  0.10344324735E+03  0.26437484938E+03  0.00000000000E+00 0. -1.
         -3    1    6    6    0  503  0.30762248995E+03  0.49901672082E+02  0.29756185277E+02  0.31306102242E+03  0.00000000000E+00 0.  1.
<mgrwt>
<rscale>  0 0.12993877E+04</rscale>
<asrwt>0</asrwt>
<pdfrwt beam="1">  1        2 0.11706602E+00 0.12993877E+04</pdfrwt>
<pdfrwt beam="2">  1       -1 0.85341438E-01 0.12993877E+04</pdfrwt>
<totfact> 0.55929182E+01</totfact>
</mgrwt>
</event>
<event>
12    7  0.1572140E-007  0.2156427E+04  0.7818608E-02  0.8536786E-01
          2   -1    0    0  501    0  0.00000000000E+00  0.00000000000E+00  0.18001978938E+04  0.18001978938E+04  0.00000000000E+00 0. -1.
         -1   -1    0    0    0  501 -0.00000000000E+00 -0.00000000000E+00 -0.64578669223E+03  0.64578669223E+03  0.00000000000E+00 0.  1.
         24    2    1    2    0    0  0.29136986863E+02 -0.35048601102E+03 -0.44878015311E+03  0.57549478197E+03  0.78110244711E+02 0.  0.
        254    2    1    2    0    0 -0.29136986863E+02  0.35048601102E+03  0.16031913547E+04  0.18704898040E+04  0.89711770654E+03 0.  0.
         23    2    4    4    0    0 -0.20250415631E+02 -0.22459079715E+03  0.10904872272E+03  0.26680390427E+03  0.91878147055E+02 0.  0.
         23    2    4    4    0    0 -0.88865712321E+01  0.57507680817E+03  0.14941426319E+04  0.16036858998E+04  0.92487588795E+02 0.  0.
          2    1    3    3  502    0  0.52735785981E+02 -0.25998587090E+03 -0.30820164604E+03  0.40664723141E+03  0.00000000000E+00 0. -1.
         -1    1    3    3    0  502 -0.23598799118E+02 -0.90500140120E+02 -0.14057850707E+03  0.16884755057E+03  0.00000000000E+00 0.  1.
         13    1    5    5    0    0  0.28170780799E+02 -0.32080895131E+02  0.59053513201E+01  0.43100462845E+02  0.00000000000E+00 0. -1.
        -13    1    5    5    0    0 -0.48421196430E+02 -0.19250990202E+03  0.10314337140E+03  0.22370344142E+03  0.00000000000E+00 0.  1.
          4    1    6    6  503    0 -0.47477056322E+02  0.28925135022E+03  0.70627939808E+03  0.76469013504E+03  0.00000000000E+00 0.  1.
         -4    1    6    6    0  503  0.38590485090E+02  0.28582545795E+03  0.78786323385E+03  0.83899576472E+03  0.00000000000E+00 0. -1.
<mgrwt>
<rscale>  0 0.21564265E+04</rscale>
<asrwt>0</asrwt>
<pdfrwt beam="1">  1        2 0.27695352E+00 0.21564265E+04</pdfrwt>
<pdfrwt beam="2">  1       -1 0.99351800E-01 0.21564265E+04</pdfrwt>
<totfact> 0.87161216E+00</totfact>
</mgrwt>
</event>
<event>
12    7  0.1572140E-007  0.2196730E+04  0.7818608E-02  0.8519791E-01
         -1   -1    0    0    0  501 -0.00000000000E+00  0.00000000000E+00  0.86643799174E+03  0.86643799174E+03  0.00000000000E+00 0.  1.
          2   -1    0    0  501    0  0.00000000000E+00 -0.00000000000E+00 -0.13923733491E+04  0.13923733491E+04  0.00000000000E+00 0. -1.
         24    2    1    2    0    0  0.76393930939E+02 -0.12274661248E+03  0.71237976351E+03  0.73139815363E+03  0.80966462936E+02 0.  0.
        254    2    1    2    0    0 -0.76393930939E+02  0.12274661248E+03 -0.12383151209E+04  0.15274131872E+04  0.88241936874E+03 0.  0.
         23    2    4    4    0    0 -0.18850643604E+02  0.48051356419E+03 -0.50154786855E+03  0.70049339883E+03  0.88837521506E+02 0.  0.
         23    2    4    4    0    0 -0.57543287335E+02 -0.35776695171E+03 -0.73676725233E+03  0.82691978838E+03  0.98295120247E+02 0.  0.
          2    1    3    3  502    0  0.15878583818E+02  0.87933439685E+01  0.13138981350E+03  0.13263760935E+03  0.00000000000E+00 0. -1.
         -1    1    3    3    0  502  0.60515347120E+02 -0.13153995645E+03  0.58098995001E+03  0.59876054429E+03  0.00000000000E+00 0.  1.
         13    1    5    5    0    0  0.10676049481E+02  0.36387440374E+03 -0.41642626689E+03  0.55310884597E+03  0.00000000000E+00 0.  1.
        -13    1    5    5    0    0 -0.29526693085E+02  0.11663916044E+03 -0.85121601657E+02  0.14738455286E+03  0.00000000000E+00 0. -1.
          1    1    6    6  503    0  0.79469346287E+01 -0.18718353066E+03 -0.44263022883E+03  0.48064784135E+03  0.00000000000E+00 0. -1.
         -1    1    6    6    0  503 -0.65490221964E+02 -0.17058342105E+03 -0.29413702350E+03  0.34627194703E+03  0.00000000000E+00 0.  1.
<mgrwt>
<rscale>  0 0.21967295E+04</rscale>
<asrwt>0</asrwt>
<pdfrwt beam="1">  1        2 0.21421128E+00 0.21967295E+04</pdfrwt>
<pdfrwt beam="2">  1       -1 0.13329815E+00 0.21967295E+04</pdfrwt>
<totfact> 0.72469128E+00</totfact>
</mgrwt>
</event>
<event>
12    7  0.1572140E-007  0.1809888E+04  0.7818608E-02  0.8701059E-01
         -3   -1    0    0    0  501 -0.00000000000E+00  0.00000000000E+00  0.99759536867E+03  0.99759536867E+03  0.00000000000E+00 0.  1.
          2   -1    0    0  501    0  0.00000000000E+00 -0.00000000000E+00 -0.82089764575E+03  0.82089764575E+03  0.00000000000E+00 0. -1.
         24    2    1    2    0    0 -0.51367704505E+03  0.43447325230E+03  0.15524133287E+03  0.69487961902E+03  0.78273238820E+02 0.  0.
        254    2    1    2    0    0  0.51367704505E+03 -0.43447325230E+03  0.21456390050E+02  0.11236133954E+04  0.89967525924E+03 0.  0.
         23    2    4    4    0    0 -0.66135522399E+02  0.88787848237E+02  0.26376313768E+03  0.30057763446E+03  0.92296978389E+02 0.  0.
         23    2    4    4    0    0  0.57981256745E+03 -0.52326110054E+03 -0.24230674763E+03  0.82303576096E+03  0.93222911107E+02 0.  0.
          2    1    3    3  502    0 -0.10798625579E+03  0.12355165926E+03  0.61403386288E+02  0.17520393772E+03  0.00000000000E+00 0. -1.
         -1    1    3    3    0  502 -0.40569078926E+03  0.31092159305E+03  0.93837946582E+02  0.51967568130E+03  0.00000000000E+00 0.  1.
         13    1    5    5    0    0 -0.89768597250E+02  0.72859029527E+02  0.21373822419E+03  0.24300384301E+03  0.00000000000E+00 0. -1.
        -13    1    5    5    0    0  0.23633074851E+02  0.15928818710E+02  0.50024913486E+02  0.57573791448E+02  0.00000000000E+00 0.  1.
          3    1    6    6  503    0  0.57047105432E+03 -0.49020632791E+03 -0.23366638052E+03  0.78761630578E+03  0.00000000000E+00 0. -1.
         -3    1    6    6    0  503  0.93415131244E+01 -0.33054772634E+02 -0.86403671086E+01  0.35419455178E+02  0.00000000000E+00 0.  1.
<mgrwt>
<rscale>  0 0.18098881E+04</rscale>
<asrwt>0</asrwt>
<pdfrwt beam="1">  1        2 0.12629195E+00 0.18098881E+04</pdfrwt>
<pdfrwt beam="2">  1       -3 0.15347621E+00 0.18098881E+04</pdfrwt>
<totfact> 0.60103678E+00</totfact>
</mgrwt>
</event>
<event>
12    7  0.1572140E-007  0.1903980E+04  0.7818608E-02  0.8652878E-01
         -1   -1    0    0    0  501 -0.00000000000E+00  0.00000000000E+00  0.12181990469E+04  0.12181990469E+04  0.00000000000E+00 0.  1.
          2   -1    0    0  501    0  0.00000000000E+00 -0.00000000000E+00 -0.74395490566E+03  0.74395490566E+03  0.00000000000E+00 0. -1.
         24    2    1    2    0    0  0.28107248729E+03 -0.56034671093E+03  0.50885200461E+03  0.81074752914E+03  0.73423523787E+02 0.  0.
        254    2    1    2    0    0 -0.28107248729E+03  0.56034671093E+03 -0.34607863399E+02  0.11514064234E+04  0.96516779270E+03 0.  0.
         23    2    4    4    0    0  0.29461811567E+02  0.20576908780E+03  0.42806725251E+03  0.48461871959E+03  0.91677777445E+02 0.  0.
         23    2    4    4    0    0 -0.31053429885E+03  0.35457762313E+03 -0.46267511591E+03  0.66678770380E+03  0.91546367846E+02 0.  0.
          2    1    3    3  502    0  0.24618539949E+03 -0.52602602935E+03  0.45352637130E+03  0.73688316845E+03  0.00000000000E+00 0. -1.
         -1    1    3    3    0  502  0.34887087791E+02 -0.34320681582E+02  0.55325633311E+02  0.73864360690E+02  0.00000000000E+00 0.  1.
         13    1    5    5    0    0  0.17832588697E+02  0.75385621181E+02  0.26171658635E+03  0.27294058817E+03  0.00000000000E+00 0.  1.
        -13    1    5    5    0    0  0.11629222870E+02  0.13038346662E+03  0.16635066616E+03  0.21167813142E+03  0.00000000000E+00 0. -1.
          1    1    6    6  503    0 -0.19011624917E+03  0.15000854517E+03 -0.21708087914E+03  0.32522432244E+03  0.00000000000E+00 0. -1.
         -1    1    6    6    0  503 -0.12041804969E+03  0.20456907796E+03 -0.24559423677E+03  0.34156338135E+03  0.00000000000E+00 0.  1.
<mgrwt>
<rscale>  0 0.19039802E+04</rscale>
<asrwt>0</asrwt>
<pdfrwt beam="1">  1        2 0.11445460E+00 0.19039802E+04</pdfrwt>
<pdfrwt beam="2">  1       -1 0.18741524E+00 0.19039802E+04</pdfrwt>
<totfact> 0.74626222E+00</totfact>
</mgrwt>
</event>
<event>
12    7  0.1572140E-007  0.1270449E+04  0.7818608E-02  0.9053333E-01
         -1   -1    0    0    0  501 -0.00000000000E+00  0.00000000000E+00  0.11931311007E+04  0.11931311007E+04  0.00000000000E+00 0.  1.
          2   -1    0    0  501    0  0.00000000000E+00 -0.00000000000E+00 -0.33819424913E+03  0.33819424913E+03  0.00000000000E+00 0. -1.
         24    2    1    2    0    0 -0.12112743774E+03 -0.22944272848E+03  0.39136159935E+03  0.47632701446E+03  0.80048119443E+02 0.  0.
        254    2    1    2    0    0  0.12112743774E+03  0.22944272848E+03  0.46357525225E+03  0.10549983354E+04  0.91148431219E+03 0.  0.
         23    2    4    4    0    0  0.40097192675E+03  0.10679365566E+03  0.57876231502E+03  0.71787287291E+03  0.90511178536E+02 0.  0.
         23    2    4    4    0    0 -0.27984448901E+03  0.12264907282E+03 -0.11518706277E+03  0.33712546249E+03  0.83843812751E+02 0.  0.
          2    1    3    3  502    0 -0.58279402850E+02 -0.99375521470E+02  0.10630194035E+03  0.15675485825E+03  0.00000000000E+00 0. -1.
         -1    1    3    3    0  502 -0.62848034894E+02 -0.13006720701E+03  0.28505965900E+03  0.31957215620E+03  0.00000000000E+00 0.  1.
         13    1    5    5    0    0  0.30361561901E+02  0.17133845616E+02  0.99510446885E+02  0.10544060957E+03  0.00000000000E+00 0.  1.
        -13    1    5    5    0    0  0.37061036485E+03  0.89659810047E+02  0.47925186814E+03  0.61243226334E+03  0.00000000000E+00 0. -1.
          2    1    6    6  503    0  0.75819164195E+00  0.11380774596E+02 -0.15475559968E+02  0.19224719537E+02  0.00000000000E+00 0.  1.
         -2    1    6    6    0  503 -0.28060268065E+03  0.11126829822E+03 -0.99711502802E+02  0.31790074295E+03  0.00000000000E+00 0. -1.
<mgrwt>
<rscale>  0 0.12704489E+04</rscale>
<asrwt>0</asrwt>
<pdfrwt beam="1">  1        2 0.52029885E-01 0.12704489E+04</pdfrwt>
<pdfrwt beam="2">  1       -1 0.18355863E+00 0.12704489E+04</pdfrwt>
<totfact> 0.21195612E+01</totfact>
</mgrwt>
</event>
<event>
12    7  0.1572140E-007  0.1543618E+04  0.7818608E-02  0.8855955E-01
         -1   -1    0    0    0  501 -0.00000000000E+00  0.00000000000E+00  0.56420564549E+03  0.56420564549E+03  0.00000000000E+00 0.  1.
          2   -1    0    0  501    0  0.00000000000E+00 -0.00000000000E+00 -0.10558009836E+04  0.10558009836E+04  0.00000000000E+00 0. -1.
         24    2    1    2    0    0 -0.36242645381E+03  0.22192861995E+03  0.16098498451E+03  0.46143258806E+03  0.79991382748E+02 0.  0.
        254    2    1    2    0    0  0.36242645381E+03 -0.22192861995E+03 -0.65258032260E+03  0.11585740410E+04  0.85780387286E+03 0.  0.
         23    2    4    4    0    0  0.59915429988E+03 -0.53053951327E+01 -0.52384111796E+03  0.80108392447E+03  0.91169703845E+02 0.  0.
         23    2    4    4    0    0 -0.23672784607E+03 -0.21662322481E+03 -0.12873920465E+03  0.35749011654E+03  0.90882924567E+02 0.  0.
          2    1    3    3  502    0 -0.34435460377E+02  0.26585437484E+02 -0.75087018246E+01  0.44147106595E+02  0.00000000000E+00 0. -1.
         -1    1    3    3    0  502 -0.32799099343E+03  0.19534318246E+03  0.16849368633E+03  0.41728548146E+03  0.00000000000E+00 0.  1.
         13    1    5    5    0    0  0.28423960639E+03  0.41746775713E+02 -0.23441272971E+03  0.37078872013E+03  0.00000000000E+00 0.  1.
        -13    1    5    5    0    0  0.31491469349E+03 -0.47052170845E+02 -0.28942838825E+03  0.43029520434E+03  0.00000000000E+00 0. -1.
          3    1    6    6  503    0 -0.14821570142E+02 -0.14603591812E+02  0.14104172393E+02  0.25137054605E+02  0.00000000000E+00 0. -1.
         -3    1    6    6    0  503 -0.22190627593E+03 -0.20201963300E+03 -0.14284337704E+03  0.33235306194E+03  0.00000000000E+00 0.  1.
<mgrwt>
<rscale>  0 0.15436177E+04</rscale>
<asrwt>0</asrwt>
<pdfrwt beam="1">  1        2 0.16243092E+00 0.15436177E+04</pdfrwt>
<pdfrwt beam="2">  1       -1 0.86800869E-01 0.15436177E+04</pdfrwt>
<totfact> 0.33360312E+01</totfact>
</mgrwt>
</event>
<event>
12    7  0.1572140E-007  0.1863886E+04  0.7818608E-02  0.8673045E-01
          2   -1    0    0  501    0  0.00000000000E+00  0.00000000000E+00  0.14147706198E+04  0.14147706198E+04  0.00000000000E+00 0. -1.
         -1   -1    0    0    0  501 -0.00000000000E+00 -0.00000000000E+00 -0.61389280032E+03  0.61389280032E+03  0.00000000000E+00 0.  1.
         24    2    1    2    0    0  0.19011041712E+03 -0.22148155125E+03  0.97815379592E+03  0.10236490124E+04  0.76657706381E+02 0.  0.
        254    2    1    2    0    0 -0.19011041712E+03  0.22148155125E+03 -0.17727597647E+03  0.10050144076E+04  0.94521486420E+03 0.  0.
         23    2    4    4    0    0  0.25909327313E+03  0.31437831146E+03 -0.30838996248E+03  0.51908288443E+03  0.91540291937E+02 0.  0.
         23    2    4    4    0    0 -0.44920369025E+03 -0.92896760214E+02  0.13111398602E+03  0.48593152322E+03  0.92329868059E+02 0.  0.
          4    1    3    3  502    0  0.18607762530E+03 -0.21636948779E+03  0.87652081519E+03  0.92180766831E+03  0.00000000000E+00 0. -1.
         -3    1    3    3    0  502  0.40327918264E+01 -0.51120634582E+01  0.10163298072E+03  0.10184134413E+03  0.00000000000E+00 0.  1.
         13    1    5    5    0    0  0.32237812045E+02  0.78007481151E+02 -0.99748802411E+02  0.13066853953E+03  0.00000000000E+00 0. -1.
        -13    1    5    5    0    0  0.22685546108E+03  0.23637083031E+03 -0.20864116007E+03  0.38841434490E+03  0.00000000000E+00 0.  1.
          3    1    6    6  503    0 -0.15016915304E+03 -0.74550220530E+02  0.59436173533E+02  0.17787964647E+03  0.00000000000E+00 0. -1.
         -3    1    6    6    0  503 -0.29903453721E+03 -0.18346539685E+02  0.71677812483E+02  0.30805187674E+03  0.00000000000E+00 0.  1.
<mgrwt>
<rscale>  0 0.18638857E+04</rscale>
<asrwt>0</asrwt>
<pdfrwt beam="1">  1        2 0.21765702E+00 0.18638857E+04</pdfrwt>
<pdfrwt beam="2">  1       -1 0.94445047E-01 0.18638857E+04</pdfrwt>
<totfact> 0.16482230E+01</totfact>
</mgrwt>
</event>
<event>
12    7  0.1572140E-007  0.4272905E+04  0.7818608E-02  0.7951647E-01
         -1   -1    0    0    0  501 -0.00000000000E+00  0.00000000000E+00  0.28163699685E+04  0.28163699685E+04  0.00000000000E+00 0.  1.
          2   -1    0    0  501    0  0.00000000000E+00 -0.00000000000E+00 -0.16206782220E+04  0.16206782220E+04  0.00000000000E+00 0. -1.
         24    2    1    2    0    0 -0.18764433922E+04  0.10334126400E+03 -0.24851040637E+03  0.18972871344E+04  0.78878562042E+02 0.  0.
        254    2    1    2    0    0  0.18764433922E+04 -0.10334126400E+03  0.14442021529E+04  0.25397610561E+04  0.91265937925E+03 0.  0.
         23    2    4    4    0    0 -0.83702092774E+02 -0.68675171617E+00  0.94422107691E+02  0.15605651929E+03  0.91823694264E+02 0.  0.
         23    2    4    4    0    0  0.19601454849E+04 -0.10265451228E+03  0.13497800453E+04  0.23837045368E+04  0.86214135245E+02 0.  0.
          2    1    3    3  502    0 -0.66514856889E+03  0.30986446277E+02 -0.50481132552E+02  0.66778074492E+03  0.00000000000E+00 0. -1.
         -1    1    3    3    0  502 -0.12112948233E+04  0.72354817723E+02 -0.19802927382E+03  0.12295063895E+04  0.00000000000E+00 0.  1.
         13    1    5    5    0    0 -0.13197218814E+02  0.37583474339E+02  0.13370158959E+02  0.42017202173E+02  0.00000000000E+00 0. -1.
        -13    1    5    5    0    0 -0.70504873960E+02 -0.38270226056E+02  0.81051948732E+02  0.11403931711E+03  0.00000000000E+00 0.  1.
          1    1    6    6  503    0  0.17357251476E+04 -0.11623768284E+03  0.11823285024E+04  0.21033672229E+04  0.00000000000E+00 0. -1.
         -1    1    6    6    0  503  0.22442033729E+03  0.13583170556E+02  0.16745154288E+03  0.28033731383E+03  0.00000000000E+00 0.  1.
<mgrwt>
<rscale>  0 0.42729051E+04</rscale>
<asrwt>0</asrwt>
<pdfrwt beam="1">  1        2 0.24933511E+00 0.42729051E+04</pdfrwt>
<pdfrwt beam="2">  1       -1 0.43328769E+00 0.42729051E+04</pdfrwt>
<totfact> 0.40288075E-02</totfact>
</mgrwt>
</event>
<event>
12    7  0.1572140E-007  0.1369851E+04  0.7818608E-02  0.8975936E-01
         -1   -1    0    0    0  501 -0.00000000000E+00  0.00000000000E+00  0.15242838584E+03  0.15242838584E+03  0.00000000000E+00 0.  1.
          2   -1    0    0  501    0  0.00000000000E+00 -0.00000000000E+00 -0.30776624525E+04  0.30776624525E+04  0.00000000000E+00 0. -1.
         24    2    1    2    0    0  0.21507370574E+03 -0.20859783242E+03 -0.28714513149E+03  0.42309470726E+03  0.82383555275E+02 0.  0.
        254    2    1    2    0    0 -0.21507370574E+03  0.20859783242E+03 -0.26380889352E+04  0.28069961311E+04  0.91101278555E+03 0.  0.
         23    2    4    4    0    0  0.25527910442E+02  0.45280331325E+02  0.39816215900E+02  0.11192582641E+03  0.90774869605E+02 0.  0.
         23    2    4    4    0    0 -0.24060161618E+03  0.16331750109E+03 -0.26779051511E+04  0.26950703047E+04  0.87556868008E+02 0.  0.
          2    1    3    3  502    0 -0.13931311189E+01 -0.25543114867E+02 -0.37241824480E+02  0.45181246353E+02  0.00000000000E+00 0. -1.
         -1    1    3    3    0  502  0.21646683686E+03 -0.18305471755E+03 -0.24990330701E+03  0.37791346090E+03  0.00000000000E+00 0.  1.
         13    1    5    5    0    0  0.29110125885E+02  0.71631204680E+02  0.23883427994E+02  0.80924946992E+02  0.00000000000E+00 0.  1.
        -13    1    5    5    0    0 -0.35822154426E+01 -0.26350873355E+02  0.15932787906E+02  0.31000879415E+02  0.00000000000E+00 0. -1.
          3    1    6    6  503    0 -0.14778407740E+03  0.13057700158E+03 -0.14712815028E+04  0.14844392029E+04  0.00000000000E+00 0. -1.
         -3    1    6    6    0  503 -0.92817538783E+02  0.32740499513E+02 -0.12066236483E+04  0.12106311017E+04  0.00000000000E+00 0.  1.
<mgrwt>
<rscale>  0 0.13698513E+04</rscale>
<asrwt>0</asrwt>
<pdfrwt beam="1">  1        2 0.47348659E+00 0.13698513E+04</pdfrwt>
<pdfrwt beam="2">  1       -1 0.23450518E-01 0.13698513E+04</pdfrwt>
<totfact> 0.27293673E+01</totfact>
</mgrwt>
</event>
<event>
12    7  0.1572140E-007  0.2230664E+04  0.7818608E-02  0.8505773E-01
         -1   -1    0    0    0  501 -0.00000000000E+00  0.00000000000E+00  0.48690483216E+03  0.48690483216E+03  0.00000000000E+00 0.  1.
          2   -1    0    0  501    0  0.00000000000E+00 -0.00000000000E+00 -0.25548423329E+04  0.25548423329E+04  0.00000000000E+00 0. -1.
         24    2    1    2    0    0 -0.30849474226E+03  0.81297346657E+03 -0.13146982264E+04  0.15783221276E+04  0.81082974323E+02 0.  0.
        254    2    1    2    0    0  0.30849474226E+03 -0.81297346657E+03 -0.75323927436E+03  0.14634250374E+04  0.90451565627E+03 0.  0.
         23    2    4    4    0    0 -0.24983571151E+03 -0.49449269131E+03 -0.16013511235E+03  0.58390687140E+03  0.91449853764E+02 0.  0.
         23    2    4    4    0    0  0.55833045377E+03 -0.31848077526E+03 -0.59310416201E+03  0.87951816605E+03  0.92826491922E+02 0.  0.
          2    1    3    3  502    0 -0.17703708812E+03  0.40285617352E+03 -0.60355036360E+03  0.74693257293E+03  0.00000000000E+00 0. -1.
         -1    1    3    3    0  502 -0.13145765414E+03  0.41011729305E+03 -0.71114786280E+03  0.83138955470E+03  0.00000000000E+00 0.  1.
         13    1    5    5    0    0 -0.67206275952E+02 -0.63441630476E+02 -0.39234424440E+02  0.10040350624E+03  0.00000000000E+00 0.  1.
        -13    1    5    5    0    0 -0.18262943555E+03 -0.43105106084E+03 -0.12090068791E+03  0.48350336515E+03  0.00000000000E+00 0. -1.
          3    1    6    6  503    0  0.50390435761E+03 -0.29130172115E+03 -0.56935393461E+03  0.81421139590E+03  0.00000000000E+00 0. -1.
         -3    1    6    6    0  503  0.54426096162E+02 -0.27179054108E+02 -0.23750227401E+02  0.65306770148E+02  0.00000000000E+00 0.  1.
<mgrwt>
<rscale>  0 0.22306636E+04</rscale>
<asrwt>0</asrwt>
<pdfrwt beam="1">  1        2 0.39305267E+00 0.22306636E+04</pdfrwt>
<pdfrwt beam="2">  1       -1 0.74908435E-01 0.22306636E+04</pdfrwt>
<totfact> 0.60155349E+00</totfact>
</mgrwt>
</event>
<event>
12    7  0.1572140E-007  0.1888481E+04  0.7818608E-02  0.8660611E-01
         -1   -1    0    0    0  501 -0.00000000000E+00  0.00000000000E+00  0.58011806115E+03  0.58011806115E+03  0.00000000000E+00 0.  1.
          2   -1    0    0  501    0  0.00000000000E+00 -0.00000000000E+00 -0.15369122213E+04  0.15369122213E+04  0.00000000000E+00 0. -1.
         24    2    1    2    0    0 -0.29505848677E+03 -0.20877544228E+03  0.33549000527E+03  0.50074344616E+03  0.86854817500E+02 0.  0.
        254    2    1    2    0    0  0.29505848677E+03  0.20877544228E+03 -0.12922841654E+04  0.16162868362E+04  0.90096508091E+03 0.  0.
         23    2    4    4    0    0  0.25636011175E+03  0.52800047935E+03 -0.10392954303E+04  0.11971218934E+04  0.91982732110E+02 0.  0.
         23    2    4    4    0    0  0.38698375030E+02 -0.31922503707E+03 -0.25298873504E+03  0.41916494287E+03  0.91070086994E+02 0.  0.
          2    1    3    3  502    0 -0.16461498365E+03 -0.74542477899E+02  0.12887530406E+03  0.22195386424E+03  0.00000000000E+00 0. -1.
         -1    1    3    3    0  502 -0.13044350312E+03 -0.13423296438E+03  0.20661470121E+03  0.27878958192E+03  0.00000000000E+00 0.  1.
         13    1    5    5    0    0  0.15724074460E+03  0.25420084604E+03 -0.45685895294E+03  0.54595130256E+03  0.00000000000E+00 0. -1.
        -13    1    5    5    0    0  0.99119367149E+02  0.27379963331E+03 -0.58243647739E+03  0.65117059081E+03  0.00000000000E+00 0.  1.
          4    1    6    6  503    0  0.34553634609E+02 -0.20228406106E+03 -0.21232204288E+03  0.29528536183E+03  0.00000000000E+00 0. -1.
         -4    1    6    6    0  503  0.41447404210E+01 -0.11694097602E+03 -0.40666692165E+02  0.12387958103E+03  0.00000000000E+00 0.  1.
<mgrwt>
<rscale>  0 0.18884814E+04</rscale>
<asrwt>0</asrwt>
<pdfrwt beam="1">  1        2 0.23644803E+00 0.18884814E+04</pdfrwt>
<pdfrwt beam="2">  1       -1 0.89248933E-01 0.18884814E+04</pdfrwt>
<totfact> 0.15901628E+01</totfact>
</mgrwt>
</event>
<event>
12    7  0.1572140E-007  0.1280831E+04  0.7818608E-02  0.9044906E-01
         -1   -1    0    0    0  501 -0.00000000000E+00  0.00000000000E+00  0.43252072440E+03  0.43252072440E+03  0.00000000000E+00 0.  1.
          2   -1    0    0  501    0  0.00000000000E+00 -0.00000000000E+00 -0.94823674922E+03  0.94823674922E+03  0.00000000000E+00 0. -1.
         24    2    1    2    0    0  0.11183546952E+03 -0.17982718582E+03 -0.38308837423E+03  0.44496305221E+03  0.79940142342E+02 0.  0.
        254    2    1    2    0    0 -0.11183546952E+03  0.17982718582E+03 -0.13262765058E+03  0.93579442140E+03  0.90181822804E+03 0.  0.
         23    2    4    4    0    0  0.72652139012E+02 -0.18313606016E+03  0.27676635350E+03  0.35133352878E+03  0.89545989222E+02 0.  0.
         23    2    4    4    0    0 -0.18448760853E+03  0.36296324598E+03 -0.40939400408E+03  0.58446089262E+03  0.90626093333E+02 0.  0.
          2    1    3    3  502    0  0.11890251720E+03 -0.13705077111E+03 -0.28695979929E+03  0.33950942383E+03  0.00000000000E+00 0. -1.
         -1    1    3    3    0  502 -0.70670476873E+01 -0.42776414714E+02 -0.96128574941E+02  0.10545362838E+03  0.00000000000E+00 0.  1.
         13    1    5    5    0    0  0.67050288700E+02 -0.19123120718E+03  0.27455945628E+03  0.34124479608E+03  0.00000000000E+00 0. -1.
        -13    1    5    5    0    0  0.56018503117E+01  0.80951470251E+01  0.22068972128E+01  0.10088732704E+02  0.00000000000E+00 0.  1.
          4    1    6    6  503    0 -0.30605283690E+02  0.15479365612E+03 -0.16847146351E+03  0.23082546087E+03  0.00000000000E+00 0.  1.
         -4    1    6    6    0  503 -0.15388232484E+03  0.20816958986E+03 -0.24092254057E+03  0.35363543175E+03  0.00000000000E+00 0. -1.
<mgrwt>
<rscale>  0 0.12808311E+04</rscale>
<asrwt>0</asrwt>
<pdfrwt beam="1">  1        2 0.14588258E+00 0.12808311E+04</pdfrwt>
<pdfrwt beam="2">  1       -1 0.66541649E-01 0.12808311E+04</pdfrwt>
<totfact> 0.69774044E+01</totfact>
</mgrwt>
</event>
<event>
12    7  0.1572140E-007  0.1762144E+04  0.7818608E-02  0.8726694E-01
         -1   -1    0    0    0  501 -0.00000000000E+00  0.00000000000E+00  0.57941220900E+03  0.57941220900E+03  0.00000000000E+00 0.  1.
          2   -1    0    0  501    0  0.00000000000E+00 -0.00000000000E+00 -0.13397848821E+04  0.13397848821E+04  0.00000000000E+00 0. -1.
         24    2    1    2    0    0  0.58341096589E+03  0.81068158427E+01  0.31771165428E+02  0.58965494959E+03  0.79053633937E+02 0.  0.
        254    2    1    2    0    0 -0.58341096589E+03 -0.81068158427E+01 -0.79214383851E+03  0.13295421415E+04  0.89429098708E+03 0.  0.
         23    2    4    4    0    0  0.17181113350E+03 -0.19355468999E+03 -0.12828391164E+03  0.30220040492E+03  0.88802247379E+02 0.  0.
         23    2    4    4    0    0 -0.75522209938E+03  0.18544787415E+03 -0.66385992687E+03  0.10273417366E+04  0.99848424085E+02 0.  0.
          4    1    3    3  502    0  0.38660548618E+03 -0.32062718598E+02  0.20111984950E+02  0.38845374474E+03  0.00000000000E+00 0. -1.
         -3    1    3    3    0  502  0.19680547971E+03  0.40169534441E+02  0.11659180478E+02  0.20120120484E+03  0.00000000000E+00 0.  1.
         13    1    5    5    0    0  0.16349796528E+03 -0.18213699457E+03 -0.14162049935E+03  0.28277523809E+03  0.00000000000E+00 0.  1.
        -13    1    5    5    0    0  0.83131682135E+01 -0.11417695423E+02  0.13336587714E+02  0.19425166830E+02  0.00000000000E+00 0. -1.
          3    1    6    6  503    0 -0.91682544604E+02  0.23369793922E+02 -0.12805599548E+03  0.15921738043E+03  0.00000000000E+00 0. -1.
         -3    1    6    6    0  503 -0.66353955478E+03  0.16207808022E+03 -0.53580393140E+03  0.86812435615E+03  0.00000000000E+00 0.  1.
<mgrwt>
<rscale>  0 0.17621438E+04</rscale>
<asrwt>0</asrwt>
<pdfrwt beam="1">  1        2 0.20612075E+00 0.17621438E+04</pdfrwt>
<pdfrwt beam="2">  1       -1 0.89140341E-01 0.17621438E+04</pdfrwt>
<totfact> 0.20874202E+01</totfact>
</mgrwt>
</event>
<event>
12    7  0.1572140E-007  0.1717488E+04  0.7818608E-02  0.8751453E-01
         -1   -1    0    0    0  501 -0.00000000000E+00  0.00000000000E+00  0.97970094049E+03  0.97970094049E+03  0.00000000000E+00 0.  1.
          2   -1    0    0  501    0  0.00000000000E+00 -0.00000000000E+00 -0.75272104500E+03  0.75272104500E+03  0.00000000000E+00 0. -1.
         24    2    1    2    0    0  0.94188912649E+02  0.50036646827E+03  0.44278632588E+03  0.67944581553E+03  0.79678930891E+02 0.  0.
        254    2    1    2    0    0 -0.94188912649E+02 -0.50036646827E+03 -0.21580643040E+03  0.10529761700E+04  0.89607379454E+03 0.  0.
         23    2    4    4    0    0 -0.80604045211E+01 -0.69248417767E+03  0.50621485847E+02  0.70152598196E+03  0.99884243424E+02 0.  0.
         23    2    4    4    0    0 -0.86128508128E+02  0.19211770940E+03 -0.26642791624E+03  0.35145018800E+03  0.90587338595E+02 0.  0.
          4    1    3    3  502    0 -0.32556418822E+01  0.17668081330E+02  0.11854813024E+01  0.18004601297E+02  0.00000000000E+00 0. -1.
         -3    1    3    3    0  502  0.97444554531E+02  0.48269838694E+03  0.44160084458E+03  0.66144121424E+03  0.00000000000E+00 0.  1.
         13    1    5    5    0    0 -0.42145457361E+02 -0.59354407502E+03  0.41585062623E+02  0.59648983730E+03  0.00000000000E+00 0. -1.
        -13    1    5    5    0    0  0.34085052840E+02 -0.98940102647E+02  0.90364232233E+01  0.10503614465E+03  0.00000000000E+00 0.  1.
          3    1    6    6  503    0 -0.84872626902E+02  0.17269158517E+03 -0.27010823764E+03  0.33163866847E+03  0.00000000000E+00 0. -1.
         -3    1    6    6    0  503 -0.12558812254E+01  0.19426124233E+02  0.36803213979E+01  0.19811519527E+02  0.00000000000E+00 0.  1.
<mgrwt>
<rscale>  0 0.17174883E+04</rscale>
<asrwt>0</asrwt>
<pdfrwt beam="1">  1        2 0.11580324E+00 0.17174883E+04</pdfrwt>
<pdfrwt beam="2">  1       -1 0.15072322E+00 0.17174883E+04</pdfrwt>
<totfact> 0.13946880E+01</totfact>
</mgrwt>
</event>
<event>
12    7  0.1572140E-007  0.1855957E+04  0.7818608E-02  0.8677095E-01
         -1   -1    0    0    0  501 -0.00000000000E+00  0.00000000000E+00  0.36531594019E+03  0.36531594019E+03  0.00000000000E+00 0.  1.
          2   -1    0    0  501    0  0.00000000000E+00 -0.00000000000E+00 -0.23572579953E+04  0.23572579953E+04  0.00000000000E+00 0. -1.
         24    2    1    2    0    0  0.78467351904E+02 -0.22301837184E+03 -0.17446266473E+04  0.17623244659E+04  0.78556128152E+02 0.  0.
        254    2    1    2    0    0 -0.78467351904E+02  0.22301837184E+03 -0.24731540782E+03  0.96024946955E+03  0.89722896372E+03 0.  0.
         23    2    4    4    0    0 -0.19729696389E+03  0.53723955745E+03 -0.15771457339E+03  0.60047982215E+03  0.90275667326E+02 0.  0.
         23    2    4    4    0    0  0.11882961198E+03 -0.31422118560E+03 -0.89600834429E+02  0.35976964740E+03  0.92468694665E+02 0.  0.
          2    1    3    3  502    0  0.74947093908E+02 -0.21350434215E+03 -0.17286676877E+04  0.17434142208E+04  0.00000000000E+00 0. -1.
         -1    1    3    3    0  502  0.35202579964E+01 -0.95140296918E+01 -0.15958959616E+02  0.18910245090E+02  0.00000000000E+00 0.  1.
         13    1    5    5    0    0 -0.14518826096E+03  0.32562829354E+03 -0.59589226137E+02  0.36147516173E+03  0.00000000000E+00 0. -1.
        -13    1    5    5    0    0 -0.52108702931E+02  0.21161126390E+03 -0.98125347251E+02  0.23900466042E+03  0.00000000000E+00 0.  1.
          4    1    6    6  503    0  0.92985139011E+02 -0.15985851845E+03 -0.84105915060E+02  0.20316197219E+03  0.00000000000E+00 0. -1.
         -4    1    6    6    0  503  0.25844472973E+02 -0.15436266716E+03 -0.54949193693E+01  0.15660767521E+03  0.00000000000E+00 0.  1.
<mgrwt>
<rscale>  0 0.18559568E+04</rscale>
<asrwt>0</asrwt>
<pdfrwt beam="1">  1        2 0.36265508E+00 0.18559568E+04</pdfrwt>
<pdfrwt beam="2">  1       -1 0.56202452E-01 0.18559568E+04</pdfrwt>
<totfact> 0.14424377E+01</totfact>
</mgrwt>
</event>
<event>
12    7  0.1572140E-007  0.1441832E+04  0.7818608E-02  0.8924083E-01
         -3   -1    0    0    0  501 -0.00000000000E+00  0.00000000000E+00  0.17828835677E+04  0.17828835677E+04  0.00000000000E+00 0.  1.
          2   -1    0    0  501    0  0.00000000000E+00 -0.00000000000E+00 -0.29150533616E+03  0.29150533616E+03  0.00000000000E+00 0. -1.
         24    2    1    2    0    0 -0.41262433403E+03 -0.11374453427E+03  0.45110950773E+03  0.62663758295E+03  0.77318899990E+02 0.  0.
        254    2    1    2    0    0  0.41262433403E+03  0.11374453427E+03  0.10402687238E+04  0.14477513209E+04  0.91138806736E+03 0.  0.
         23    2    4    4    0    0 -0.17227986382E+03  0.32393570611E+03  0.37116583837E+03  0.53005748472E+03  0.92639971766E+02 0.  0.
         23    2    4    4    0    0  0.58490419785E+03 -0.21019117184E+03  0.66910288545E+03  0.91769383619E+03  0.90388363626E+02 0.  0.
          2    1    3    3  502    0 -0.40320864665E+03 -0.99605054684E+02  0.44468399007E+03  0.60847533284E+03  0.00000000000E+00 0. -1.
         -1    1    3    3    0  502 -0.94156873829E+01 -0.14139479590E+02  0.64255176553E+01  0.18162250112E+02  0.00000000000E+00 0.  1.
         13    1    5    5    0    0 -0.13783145124E+03  0.21646301998E+03  0.20146185339E+03  0.32625239668E+03  0.00000000000E+00 0.  1.
        -13    1    5    5    0    0 -0.34448412574E+02  0.10747268613E+03  0.16970398498E+03  0.20380508804E+03  0.00000000000E+00 0. -1.
          1    1    6    6  503    0  0.57033878904E+02  0.44566219150E+01  0.76973500066E+02  0.95904350966E+02  0.00000000000E+00 0. -1.
         -1    1    6    6    0  503  0.52787031895E+03 -0.21464779375E+03  0.59212938539E+03  0.82178948523E+03  0.00000000000E+00 0.  1.
<mgrwt>
<rscale>  0 0.14418323E+04</rscale>
<asrwt>0</asrwt>
<pdfrwt beam="1">  1        2 0.44846976E-01 0.14418323E+04</pdfrwt>
<pdfrwt beam="2">  1       -3 0.27428977E+00 0.14418323E+04</pdfrwt>
<totfact> 0.36360669E+00</totfact>
</mgrwt>
</event>
<event>
12    7  0.1572140E-007  0.2544365E+04  0.7818608E-02  0.8387349E-01
          2   -1    0    0  501    0  0.00000000000E+00  0.00000000000E+00  0.12202925554E+04  0.12202925554E+04  0.00000000000E+00 0. -1.
         -1   -1    0    0    0  501 -0.00000000000E+00 -0.00000000000E+00 -0.13262786815E+04  0.13262786815E+04  0.00000000000E+00 0.  1.
         24    2    1    2    0    0  0.86048144153E+03  0.13814116707E+03  0.63902728801E+03  0.10835436746E+04  0.78738342942E+02 0.  0.
        254    2    1    2    0    0 -0.86048144153E+03 -0.13814116707E+03 -0.74501341416E+03  0.14630275624E+04  0.90878675591E+03 0.  0.
         23    2    4    4    0    0 -0.67651133011E+02 -0.33522377456E+03 -0.48406132180E+03  0.60045316807E+03  0.96317127031E+02 0.  0.
         23    2    4    4    0    0 -0.79283030851E+03  0.19708260749E+03 -0.26095209236E+03  0.86257439430E+03  0.92288346582E+02 0.  0.
          2    1    3    3  502    0  0.61290998048E+03  0.13116019278E+03  0.47581592316E+03  0.78693229256E+03  0.00000000000E+00 0. -1.
         -1    1    3    3    0  502  0.24757146105E+03  0.69809742888E+01  0.16321136485E+03  0.29661138202E+03  0.00000000000E+00 0.  1.
         13    1    5    5    0    0  0.51233075090E+01  0.83705377156E+00 -0.32327099808E+02  0.32741263275E+02  0.00000000000E+00 0.  1.
        -13    1    5    5    0    0 -0.72774440520E+02 -0.33606082833E+03 -0.45173422199E+03  0.56771190480E+03  0.00000000000E+00 0. -1.
          1    1    6    6  503    0 -0.76586574808E+03  0.20501674467E+03 -0.24305034949E+03  0.82925007210E+03  0.00000000000E+00 0. -1.
         -1    1    6    6    0  503 -0.26964560430E+02 -0.79341371878E+01 -0.17901742877E+02  0.33324322201E+02  0.00000000000E+00 0.  1.
<mgrwt>
<rscale>  0 0.25443648E+04</rscale>
<asrwt>0</asrwt>
<pdfrwt beam="1">  1        2 0.18773732E+00 0.25443648E+04</pdfrwt>
<pdfrwt beam="2">  1       -1 0.20404288E+00 0.25443648E+04</pdfrwt>
<totfact> 0.26332817E+00</totfact>
</mgrwt>
</event>
<event>
12    7  0.1572140E-007  0.1070172E+04  0.7818608E-02  0.9234762E-01
          2   -1    0    0  501    0  0.00000000000E+00  0.00000000000E+00  0.36137770404E+03  0.36137770404E+03  0.00000000000E+00 0. -1.
         -1   -1    0    0    0  501 -0.00000000000E+00 -0.00000000000E+00 -0.79229346729E+03  0.79229346729E+03  0.00000000000E+00 0.  1.
         24    2    1    2    0    0 -0.29677508616E+02 -0.12630314655E+03 -0.82361401132E+02  0.17467107455E+03  0.83026167825E+02 0.  0.
        254    2    1    2    0    0  0.29677508616E+02  0.12630314655E+03 -0.34855436211E+03  0.97900009678E+03  0.90560355940E+03 0.  0.
         23    2    4    4    0    0 -0.30364854916E+03  0.37337785834E+03 -0.15163525935E+03  0.51117558853E+03  0.81815425902E+02 0.  0.
         23    2    4    4    0    0  0.33332605778E+03 -0.24707471180E+03 -0.19691910276E+03  0.46782450825E+03  0.89053149764E+02 0.  0.
          4    1    3    3  502    0  0.13671401153E+02 -0.13060491510E+01 -0.28862200210E+02  0.31963097078E+02  0.00000000000E+00 0. -1.
         -3    1    3    3    0  502 -0.43348909769E+02 -0.12499709740E+03 -0.53499200923E+02  0.14270797748E+03  0.00000000000E+00 0.  1.
         13    1    5    5    0    0 -0.24036139383E+02  0.68115022093E+02 -0.39332552457E+02  0.82246227354E+02  0.00000000000E+00 0.  1.
        -13    1    5    5    0    0 -0.27961240978E+03  0.30526283625E+03 -0.11230270689E+03  0.42892936117E+03  0.00000000000E+00 0. -1.
          1    1    6    6  503    0  0.17197276661E+03 -0.72486898963E+02 -0.87806213887E+02  0.20624964042E+03  0.00000000000E+00 0. -1.
         -1    1    6    6    0  503  0.16135329117E+03 -0.17458781283E+03 -0.10911288888E+03  0.26157486783E+03  0.00000000000E+00 0.  1.
<mgrwt>
<rscale>  0 0.10701723E+04</rscale>
<asrwt>0</asrwt>
<pdfrwt beam="1">  1        2 0.55596571E-01 0.10701723E+04</pdfrwt>
<pdfrwt beam="2">  1       -1 0.12189130E+00 0.10701723E+04</pdfrwt>
<totfact> 0.60507682E+01</totfact>
</mgrwt>
</event>
<event>
12    7  0.1572140E-007  0.1482158E+04  0.7818608E-02  0.8896405E-01
         -1   -1    0    0    0  501 -0.00000000000E+00  0.00000000000E+00  0.36428784249E+03  0.36428784249E+03  0.00000000000E+00 0.  1.
          2   -1    0    0  501    0  0.00000000000E+00 -0.00000000000E+00 -0.15075929675E+04  0.15075929675E+04  0.00000000000E+00 0. -1.
         24    2    1    2    0    0  0.43244736298E+03 -0.16814201697E+03 -0.33583653849E+03  0.57837772973E+03  0.80325326299E+02 0.  0.
        254    2    1    2    0    0 -0.43244736298E+03  0.16814201697E+03 -0.80746858655E+03  0.12935030803E+04  0.89769830166E+03 0.  0.
         23    2    4    4    0    0 -0.85144960010E+02  0.29526878381E+03 -0.85155984694E+03  0.90999093249E+03  0.92173778128E+02 0.  0.
         23    2    4    4    0    0 -0.34730240297E+03 -0.12712676684E+03  0.44091260386E+02  0.38351214780E+03  0.91418566552E+02 0.  0.
          4    1    3    3  502    0  0.24315597974E+03 -0.53469334489E+02 -0.16313623964E+03  0.29765287315E+03  0.00000000000E+00 0. -1.
         -3    1    3    3    0  502  0.18929138324E+03 -0.11467268249E+03 -0.17270029885E+03  0.28072485658E+03  0.00000000000E+00 0.  1.
         13    1    5    5    0    0  0.18874451130E+02  0.54984372252E+02 -0.18187403662E+03  0.19093897269E+03  0.00000000000E+00 0. -1.
        -13    1    5    5    0    0 -0.10401941114E+03  0.24028441156E+03 -0.66968581032E+03  0.71905195979E+03  0.00000000000E+00 0.  1.
          2    1    6    6  503    0 -0.28486237386E+03 -0.13687594889E+03  0.50272837526E+02  0.32001399285E+03  0.00000000000E+00 0.  1.
         -2    1    6    6    0  503 -0.62440029111E+02  0.97491820527E+01 -0.61815771401E+01  0.63498154950E+02  0.00000000000E+00 0. -1.
<mgrwt>
<rscale>  0 0.14821576E+04</rscale>
<asrwt>0</asrwt>
<pdfrwt beam="1">  1        2 0.23193738E+00 0.14821576E+04</pdfrwt>
<pdfrwt beam="2">  1       -1 0.56044284E-01 0.14821576E+04</pdfrwt>
<totfact> 0.44627390E+01</totfact>
</mgrwt>
</event>
<event>
12    7  0.1572140E-007  0.3796707E+04  0.7818608E-02  0.8046862E-01
         -1   -1    0    0    0  501 -0.00000000000E+00  0.00000000000E+00  0.10870193230E+04  0.10870193230E+04  0.00000000000E+00 0.  1.
          2   -1    0    0  501    0  0.00000000000E+00 -0.00000000000E+00 -0.33152544731E+04  0.33152544731E+04  0.00000000000E+00 0. -1.
         24    2    1    2    0    0 -0.13480304871E+04  0.11646434842E+04 -0.85221490003E+03  0.19766492608E+04  0.85389841108E+02 0.  0.
        254    2    1    2    0    0  0.13480304871E+04 -0.11646434842E+04 -0.13760202501E+04  0.24256245353E+04  0.90368247633E+03 0.  0.
         23    2    4    4    0    0  0.53559797272E+03 -0.10140858493E+04 -0.94645058845E+03  0.14898242547E+04  0.92586690764E+02 0.  0.
         23    2    4    4    0    0  0.81243251439E+03 -0.15055763490E+03 -0.42956966164E+03  0.93580028061E+03  0.92075399107E+02 0.  0.
          4    1    3    3  502    0 -0.30272145064E+03  0.21765434364E+03 -0.16704096561E+03  0.40855400399E+03  0.00000000000E+00 0. -1.
         -3    1    3    3    0  502 -0.10453090365E+04  0.94698914054E+03 -0.68517393442E+03  0.15680952568E+04  0.00000000000E+00 0.  1.
         13    1    5    5    0    0  0.52120149793E+03 -0.10015599589E+04 -0.91606058374E+03  0.14539395949E+04  0.00000000000E+00 0.  1.
        -13    1    5    5    0    0  0.14396474791E+02 -0.12525890410E+02 -0.30390004707E+02  0.35884659717E+02  0.00000000000E+00 0. -1.
          3    1    6    6  503    0  0.43381139927E+03 -0.99103388276E+02 -0.18360728804E+03  0.48137869493E+03  0.00000000000E+00 0. -1.
         -3    1    6    6    0  503  0.37862111512E+03 -0.51454246623E+02 -0.24596237360E+03  0.45442158568E+03  0.00000000000E+00 0.  1.
<mgrwt>
<rscale>  0 0.37967068E+04</rscale>
<asrwt>0</asrwt>
<pdfrwt beam="1">  1        2 0.51003915E+00 0.37967068E+04</pdfrwt>
<pdfrwt beam="2">  1       -1 0.16723374E+00 0.37967068E+04</pdfrwt>
<totfact> 0.25514282E-01</totfact>
</mgrwt>
</event>
<event>
12    7  0.1572140E-007  0.2344773E+04  0.7818608E-02  0.8460474E-01
         -1   -1    0    0    0  501 -0.00000000000E+00  0.00000000000E+00  0.41068163239E+03  0.41068163239E+03  0.00000000000E+00 0.  1.
          2   -1    0    0  501    0  0.00000000000E+00 -0.00000000000E+00 -0.33468503038E+04  0.33468503038E+04  0.00000000000E+00 0. -1.
         24    2    1    2    0    0  0.22998333113E+03 -0.65691453515E+02 -0.28116408299E+04  0.28229082424E+04  0.79240701953E+02 0.  0.
        254    2    1    2    0    0 -0.22998333113E+03  0.65691453515E+02 -0.12452784149E+03  0.93462369379E+03  0.89487796153E+03 0.  0.
         23    2    4    4    0    0 -0.21214892454E+03 -0.54595563822E+02 -0.48748351244E+03  0.54130927076E+03  0.85951788461E+02 0.  0.
         23    2    4    4    0    0 -0.17834406594E+02  0.12028701734E+03  0.36295567095E+03  0.39331442303E+03  0.90401237254E+02 0.  0.
          2    1    3    3  502    0  0.16917818673E+03 -0.11475564554E+02 -0.17818361660E+04  0.17898863287E+04  0.00000000000E+00 0. -1.
         -1    1    3    3    0  502  0.60805144405E+02 -0.54215888960E+02 -0.10298046639E+04  0.10330219137E+04  0.00000000000E+00 0.  1.
         13    1    5    5    0    0 -0.10586130973E+03 -0.45765301941E+02 -0.16246077717E+03  0.19923499662E+03  0.00000000000E+00 0.  1.
        -13    1    5    5    0    0 -0.10628761480E+03 -0.88302618817E+01 -0.32502273527E+03  0.34207427414E+03  0.00000000000E+00 0. -1.
          1    1    6    6  503    0 -0.35171747942E+02  0.17920433435E+02  0.16645243586E+03  0.17106901295E+03  0.00000000000E+00 0. -1.
         -1    1    6    6    0  503  0.17337341348E+02  0.10236658390E+03  0.19650323509E+03  0.22224541009E+03  0.00000000000E+00 0.  1.
<mgrwt>
<rscale>  0 0.23447729E+04</rscale>
<asrwt>0</asrwt>
<pdfrwt beam="1">  1        2 0.51490002E+00 0.23447729E+04</pdfrwt>
<pdfrwt beam="2">  1       -1 0.63181793E-01 0.23447729E+04</pdfrwt>
<totfact> 0.27095134E+00</totfact>
</mgrwt>
</event>
<event>
12    7  0.1572140E-007  0.1335726E+04  0.7818608E-02  0.9001704E-01
         -1   -1    0    0    0  501 -0.00000000000E+00  0.00000000000E+00  0.21230427209E+03  0.21230427209E+03  0.00000000000E+00 0.  1.
          2   -1    0    0  501    0  0.00000000000E+00 -0.00000000000E+00 -0.21009506950E+04  0.21009506950E+04  0.00000000000E+00 0. -1.
         24    2    1    2    0    0 -0.16866775513E+03  0.30025133532E+03 -0.34463134798E+03  0.49363367733E+03  0.79396255617E+02 0.  0.
        254    2    1    2    0    0  0.16866775513E+03 -0.30025133532E+03 -0.15440150749E+04  0.18196212897E+04  0.89913258786E+03 0.  0.
         23    2    4    4    0    0  0.49045485198E+03 -0.58627936965E+02 -0.11251488676E+04  0.12318309368E+04  0.86396098127E+02 0.  0.
         23    2    4    4    0    0 -0.32178709685E+03 -0.24162339836E+03 -0.41886620735E+03  0.58779035297E+03  0.90109916527E+02 0.  0.
          4    1    3    3  502    0 -0.81079983378E+02  0.16484053682E+03 -0.23652011427E+03  0.29947976683E+03  0.00000000000E+00 0. -1.
         -3    1    3    3    0  502 -0.87587771750E+02  0.13541079850E+03 -0.10811123370E+03  0.19415391051E+03  0.00000000000E+00 0.  1.
         13    1    5    5    0    0  0.28425342668E+03 -0.75665183545E+02 -0.68428639647E+03  0.74483092240E+03  0.00000000000E+00 0. -1.
        -13    1    5    5    0    0  0.20620142531E+03  0.17037246579E+02 -0.44086247108E+03  0.48700001435E+03  0.00000000000E+00 0.  1.
          2    1    6    6  503    0 -0.11594124221E+03 -0.14264709125E+03 -0.19447690956E+03  0.26760387262E+03  0.00000000000E+00 0.  1.
         -2    1    6    6    0  503 -0.20584585464E+03 -0.98976307107E+02 -0.22438929779E+03  0.32018648036E+03  0.00000000000E+00 0. -1.
<mgrwt>
<rscale>  0 0.13357257E+04</rscale>
<asrwt>0</asrwt>
<pdfrwt beam="1">  1        2 0.32322319E+00 0.13357257E+04</pdfrwt>
<pdfrwt beam="2">  1       -1 0.32662195E-01 0.13357257E+04</pdfrwt>
<totfact> 0.57460771E+01</totfact>
</mgrwt>
</event>
<event>
12    7  0.1572140E-007  0.1097614E+04  0.7818608E-02  0.9207521E-01
          2   -1    0    0  501    0  0.00000000000E+00  0.00000000000E+00  0.72342949185E+03  0.72342949185E+03  0.00000000000E+00 0. -1.
         -1   -1    0    0    0  501 -0.00000000000E+00 -0.00000000000E+00 -0.41633500201E+03  0.41633500201E+03  0.00000000000E+00 0.  1.
         24    2    1    2    0    0 -0.15123399977E+03  0.25109506852E+02  0.12989935605E+03  0.22017619236E+03  0.90008349400E+02 0.  0.
        254    2    1    2    0    0  0.15123399977E+03 -0.25109506852E+02  0.17719513379E+03  0.91958830150E+03  0.88923693063E+03 0.  0.
         23    2    4    4    0    0  0.32049111843E+03 -0.36957126501E+03  0.31726699508E+02  0.49882277687E+03  0.92304400508E+02 0.  0.
         23    2    4    4    0    0 -0.16925711866E+03  0.34446175816E+03  0.14546843428E+03  0.42076552463E+03  0.92631993887E+02 0.  0.
          2    1    3    3  502    0 -0.13272677313E+03 -0.12803239046E+02  0.82867158171E+02  0.15699453857E+03  0.00000000000E+00 0. -1.
         -1    1    3    3    0  502 -0.18507226634E+02  0.37912745898E+02  0.47032197879E+02  0.63181653797E+02  0.00000000000E+00 0.  1.
         13    1    5    5    0    0  0.21279196216E+03 -0.20050066450E+03 -0.15829920634E+02  0.29279945699E+03  0.00000000000E+00 0.  1.
        -13    1    5    5    0    0  0.10769915627E+03 -0.16907060051E+03  0.47556620142E+02  0.20602331989E+03  0.00000000000E+00 0. -1.
          1    1    6    6  503    0 -0.14732915323E+03  0.25253173873E+03  0.14478783539E+03  0.32625400493E+03  0.00000000000E+00 0. -1.
         -1    1    6    6    0  503 -0.21927965432E+02  0.91930019436E+02  0.68059889220E+00  0.94511519702E+02  0.00000000000E+00 0.  1.
<mgrwt>
<rscale>  0 0.10976138E+04</rscale>
<asrwt>0</asrwt>
<pdfrwt beam="1">  1        2 0.11129684E+00 0.10976138E+04</pdfrwt>
<pdfrwt beam="2">  1       -1 0.64051539E-01 0.10976138E+04</pdfrwt>
<totfact> 0.11014872E+02</totfact>
</mgrwt>
</event>
<event>
12    7  0.1572140E-007  0.1476818E+04  0.7818608E-02  0.8900016E-01
         -1   -1    0    0    0  501 -0.00000000000E+00  0.00000000000E+00  0.57182449667E+03  0.57182449667E+03  0.00000000000E+00 0.  1.
          2   -1    0    0  501    0  0.00000000000E+00 -0.00000000000E+00 -0.95352347667E+03  0.95352347667E+03  0.00000000000E+00 0. -1.
         24    2    1    2    0    0 -0.35033081593E+03 -0.18983515699E+02  0.19028660711E+03  0.40679337146E+03  0.78611702399E+02 0.  0.
        254    2    1    2    0    0  0.35033081593E+03  0.18983515699E+02 -0.57198558711E+03  0.11185546019E+04  0.89493286400E+03 0.  0.
         23    2    4    4    0    0 -0.12325507059E+03  0.34633314176E+03 -0.22133296806E+03  0.43800368449E+03  0.87866303955E+02 0.  0.
         23    2    4    4    0    0  0.47358588652E+03 -0.32734962606E+03 -0.35065261905E+03  0.68055091739E+03  0.93546364554E+02 0.  0.
          4    1    3    3  502    0 -0.76897470804E+02 -0.37350488584E+02  0.44250103589E+02  0.96261891115E+02  0.00000000000E+00 0. -1.
         -3    1    3    3    0  502 -0.27343334513E+03  0.18366972885E+02  0.14603650352E+03  0.31053148034E+03  0.00000000000E+00 0.  1.
         13    1    5    5    0    0 -0.51886280876E+02  0.22654985333E+03 -0.99411428685E+02  0.25278380949E+03  0.00000000000E+00 0.  1.
        -13    1    5    5    0    0 -0.71368789712E+02  0.11978328843E+03 -0.12192153937E+03  0.18521987500E+03  0.00000000000E+00 0. -1.
          3    1    6    6  503    0  0.43827589709E+03 -0.28123860514E+03 -0.33884100257E+03  0.62128426667E+03  0.00000000000E+00 0. -1.
         -3    1    6    6    0  503  0.35309989429E+02 -0.46111020917E+02 -0.11811616485E+02  0.59266650719E+02  0.00000000000E+00 0.  1.
<mgrwt>
<rscale>  0 0.14768183E+04</rscale>
<asrwt>0</asrwt>
<pdfrwt beam="1">  1        2 0.14669592E+00 0.14768183E+04</pdfrwt>
<pdfrwt beam="2">  1       -1 0.87973000E-01 0.14768183E+04</pdfrwt>
<totfact> 0.37891280E+01</totfact>
</mgrwt>
</event>
<event>
12    7  0.1572140E-007  0.2756859E+04  0.7818608E-02  0.8316788E-01
         -1   -1    0    0    0  501 -0.00000000000E+00  0.00000000000E+00  0.17385082644E+04  0.17385082644E+04  0.00000000000E+00 0.  1.
          2   -1    0    0  501    0  0.00000000000E+00 -0.00000000000E+00 -0.10929302279E+04  0.10929302279E+04  0.00000000000E+00 0. -1.
         24    2    1    2    0    0  0.53747063510E+03 -0.15328471709E+03  0.14255458527E+04  0.15330882527E+04  0.76208428279E+02 0.  0.
        254    2    1    2    0    0 -0.53747063510E+03  0.15328471709E+03 -0.77996781618E+03  0.12983502396E+04  0.87463858949E+03 0.  0.
         23    2    4    4    0    0 -0.53230806161E+03 -0.18029253538E+03 -0.76330800983E+03  0.95228420764E+03  0.91371896529E+02 0.  0.
         23    2    4    4    0    0 -0.51625734926E+01  0.33357725247E+03 -0.16659806348E+02  0.34606603193E+03  0.90463881062E+02 0.  0.
          2    1    3    3  502    0  0.88706836642E+02 -0.15592276156E+01  0.27030050945E+03  0.28448848741E+03  0.00000000000E+00 0. -1.
         -3    1    3    3    0  502  0.44876379846E+03 -0.15172548948E+03  0.11552453432E+04  0.12485997653E+04  0.00000000000E+00 0.  1.
         13    1    5    5    0    0 -0.51145932685E+03 -0.15145646603E+03 -0.70651302016E+03  0.88526287157E+03  0.00000000000E+00 0.  1.
        -13    1    5    5    0    0 -0.20848734757E+02 -0.28836069347E+02 -0.56794989671E+02  0.67021336066E+02  0.00000000000E+00 0. -1.
          2    1    6    6  503    0  0.24714338031E+02  0.18268838258E+03 -0.44744512698E+02  0.18970481030E+03  0.00000000000E+00 0. -1.
         -2    1    6    6    0  503 -0.29876911523E+02  0.15088886990E+03  0.28084706349E+02  0.15636122164E+03  0.00000000000E+00 0.  1.
<mgrwt>
<rscale>  0 0.27568593E+04</rscale>
<asrwt>0</asrwt>
<pdfrwt beam="1">  1        2 0.16814311E+00 0.27568593E+04</pdfrwt>
<pdfrwt beam="2">  1       -1 0.26746281E+00 0.27568593E+04</pdfrwt>
<totfact> 0.11752541E+00</totfact>
</mgrwt>
</event>
<event>
12    7  0.1572140E-007  0.3425886E+04  0.7818608E-02  0.8131582E-01
         -1   -1    0    0    0  501 -0.00000000000E+00  0.00000000000E+00  0.10103362605E+04  0.10103362605E+04  0.00000000000E+00 0.  1.
          2   -1    0    0  501    0  0.00000000000E+00 -0.00000000000E+00 -0.29041547767E+04  0.29041547767E+04  0.00000000000E+00 0. -1.
         24    2    1    2    0    0  0.98591690307E+03  0.23374001965E+03  0.52174723053E+03  0.11421309136E+04  0.74674726099E+02 0.  0.
        254    2    1    2    0    0 -0.98591690307E+03 -0.23374001965E+03 -0.24155657467E+04  0.27723601236E+04  0.90794065981E+03 0.  0.
         23    2    4    4    0    0 -0.18862632100E+03  0.28541914878E+03 -0.10295157944E+04  0.10887224814E+04  0.91487109237E+02 0.  0.
         23    2    4    4    0    0 -0.79729058207E+03 -0.51915916842E+03 -0.13860499523E+04  0.16836376422E+04  0.91119292643E+02 0.  0.
          4    1    3    3  502    0  0.54683747981E+03  0.16764565211E+03  0.29132428231E+03  0.64187703764E+03  0.00000000000E+00 0. -1.
         -3    1    3    3    0  502  0.43907942326E+03  0.66094367539E+02  0.23042294822E+03  0.50025387596E+03  0.00000000000E+00 0.  1.
         13    1    5    5    0    0 -0.67574912006E+02  0.10063783514E+03 -0.23986700799E+03  0.26875737035E+03  0.00000000000E+00 0. -1.
        -13    1    5    5    0    0 -0.12105140899E+03  0.18478131364E+03 -0.78964878639E+03  0.81996511105E+03  0.00000000000E+00 0.  1.
          4    1    6    6  503    0 -0.41255338489E+03 -0.27043992967E+03 -0.79856168380E+03  0.93863667827E+03  0.00000000000E+00 0. -1.
         -4    1    6    6    0  503 -0.38473719718E+03 -0.24871923875E+03 -0.58748826849E+03  0.74500096392E+03  0.00000000000E+00 0.  1.
<mgrwt>
<rscale>  0 0.34258855E+04</rscale>
<asrwt>0</asrwt>
<pdfrwt beam="1">  1        2 0.44679304E+00 0.34258855E+04</pdfrwt>
<pdfrwt beam="2">  1       -1 0.15543635E+00 0.34258855E+04</pdfrwt>
<totfact> 0.59350698E-01</totfact>
</mgrwt>
</event>
<event>
12    7  0.1572140E-007  0.1479876E+04  0.7818608E-02  0.8897947E-01
          2   -1    0    0  501    0  0.00000000000E+00  0.00000000000E+00  0.65825356209E+03  0.65825356209E+03  0.00000000000E+00 0. -1.
         -1   -1    0    0    0  501 -0.00000000000E+00 -0.00000000000E+00 -0.83175860271E+03  0.83175860271E+03  0.00000000000E+00 0.  1.
         24    2    1    2    0    0 -0.34245570823E+03 -0.96442504499E+02  0.23878428982E+03  0.43590175490E+03  0.80095780713E+02 0.  0.
        254    2    1    2    0    0  0.34245570823E+03  0.96442504499E+02 -0.41228933044E+03  0.10541104099E+04  0.90254595200E+03 0.  0.
         23    2    4    4    0    0  0.46577385043E+03 -0.27122283792E+03 -0.35480136175E+03  0.65141843246E+03  0.89190023503E+02 0.  0.
         23    2    4    4    0    0 -0.12331814220E+03  0.36766534242E+03 -0.57487968694E+02  0.40269197743E+03  0.92036916149E+02 0.  0.
          4    1    3    3  502    0 -0.27543851587E+03 -0.10862166982E+03  0.18516970022E+03  0.34921749821E+03  0.00000000000E+00 0. -1.
         -3    1    3    3    0  502 -0.67017192363E+02  0.12179165318E+02  0.53614589600E+02  0.86684256691E+02  0.00000000000E+00 0.  1.
         13    1    5    5    0    0  0.89430067921E+02 -0.26322784636E+02 -0.92892480820E+02  0.13160409960E+03  0.00000000000E+00 0. -1.
        -13    1    5    5    0    0  0.37634378251E+03 -0.24490005328E+03 -0.26190888093E+03  0.51981433286E+03  0.00000000000E+00 0.  1.
          2    1    6    6  503    0 -0.19521661810E+02  0.10470418401E+02  0.10573111474E+02  0.24546193749E+02  0.00000000000E+00 0. -1.
         -2    1    6    6    0  503 -0.10379648039E+03  0.35719492402E+03 -0.68061080168E+02  0.37814578369E+03  0.00000000000E+00 0.  1.
<mgrwt>
<rscale>  0 0.14798758E+04</rscale>
<asrwt>0</asrwt>
<pdfrwt beam="1">  1        2 0.10126978E+00 0.14798758E+04</pdfrwt>
<pdfrwt beam="2">  1       -1 0.12796286E+00 0.14798758E+04</pdfrwt>
<totfact> 0.25829624E+01</totfact>
</mgrwt>
</event>
<event>
12    7  0.1572140E-007  0.4337097E+04  0.7818608E-02  0.7939794E-01
         -1   -1    0    0    0  501 -0.00000000000E+00  0.00000000000E+00  0.14988088938E+04  0.14988088938E+04  0.00000000000E+00 0.  1.
          2   -1    0    0  501    0  0.00000000000E+00 -0.00000000000E+00 -0.31375591571E+04  0.31375591571E+04  0.00000000000E+00 0. -1.
         24    2    1    2    0    0 -0.60431389412E+02 -0.20667553441E+04 -0.96126387432E+03  0.22815445369E+04  0.79294594459E+02 0.  0.
        254    2    1    2    0    0  0.60431389412E+02  0.20667553441E+04 -0.67748638898E+03  0.23548235139E+04  0.90059778430E+03 0.  0.
         23    2    4    4    0    0 -0.92844707961E+02  0.20577039228E+04 -0.69258428515E+03  0.21746870319E+04  0.82614289928E+02 0.  0.
         23    2    4    4    0    0  0.15327609737E+03  0.90514212622E+01  0.15097896165E+02  0.18013648196E+03  0.92982339253E+02 0.  0.
          4    1    3    3  502    0 -0.68682824571E+02 -0.10557456831E+04 -0.47837109631E+03  0.11611008498E+04  0.00000000000E+00 0. -1.
         -3    1    3    3    0  502  0.82514351586E+01 -0.10110096610E+04 -0.48289277801E+03  0.11204436871E+04  0.00000000000E+00 0.  1.
         13    1    5    5    0    0  0.16967546053E+01  0.10789691310E+03 -0.54907722354E+02  0.12107634289E+03  0.00000000000E+00 0.  1.
        -13    1    5    5    0    0 -0.94541462567E+02  0.19498070098E+04 -0.63767656280E+03  0.20536106890E+04  0.00000000000E+00 0. -1.
          3    1    6    6  503    0  0.11352367015E+03 -0.31711588905E+02  0.29295317249E+02  0.12145560575E+03  0.00000000000E+00 0. -1.
         -3    1    6    6    0  503  0.39752427227E+02  0.40763010167E+02 -0.14197421084E+02  0.58680876218E+02  0.00000000000E+00 0.  1.
<mgrwt>
<rscale>  0 0.43370965E+04</rscale>
<asrwt>0</asrwt>
<pdfrwt beam="1">  1        2 0.48270141E+00 0.43370965E+04</pdfrwt>
<pdfrwt beam="2">  1       -1 0.23058599E+00 0.43370965E+04</pdfrwt>
<totfact> 0.11601454E-01</totfact>
</mgrwt>
</event>
<event>
12    7  0.1572140E-007  0.1768701E+04  0.7818608E-02  0.8723123E-01
          2   -1    0    0  501    0  0.00000000000E+00  0.00000000000E+00  0.29684098779E+04  0.29684098779E+04  0.00000000000E+00 0. -1.
         -1   -1    0    0    0  501 -0.00000000000E+00 -0.00000000000E+00 -0.26346624590E+03  0.26346624590E+03  0.00000000000E+00 0.  1.
         24    2    1    2    0    0  0.33938673864E+03 -0.53921836510E+03  0.95837235398E+03  0.11536237428E+04  0.80189572168E+02 0.  0.
        254    2    1    2    0    0 -0.33938673864E+03  0.53921836510E+03  0.17465712780E+04  0.20782523810E+04  0.92880672170E+03 0.  0.
         23    2    4    4    0    0 -0.44538567761E+03  0.29355379897E+03  0.17098492757E+04  0.17933527434E+04  0.89371593248E+02 0.  0.
         23    2    4    4    0    0  0.10599893897E+03  0.24566456612E+03  0.36722002285E+02  0.28489963763E+03  0.90732816327E+02 0.  0.
          4    1    3    3  502    0  0.17389687024E+03 -0.29079855203E+03  0.43852269885E+03  0.55417152286E+03  0.00000000000E+00 0. -1.
         -3    1    3    3    0  502  0.16548986840E+03 -0.24841981307E+03  0.51984965513E+03  0.59945221995E+03  0.00000000000E+00 0.  1.
         13    1    5    5    0    0 -0.37759948962E+03  0.21231245237E+03  0.14297508150E+04  0.14939361917E+04  0.00000000000E+00 0.  1.
        -13    1    5    5    0    0 -0.67786187985E+02  0.81241346605E+02  0.28009846077E+03  0.29941655165E+03  0.00000000000E+00 0. -1.
          2    1    6    6  503    0  0.12703044086E+02  0.29254925289E+02  0.37508081004E+02  0.49234887258E+02  0.00000000000E+00 0. -1.
         -2    1    6    6    0  503  0.93295894885E+02  0.21640964083E+03 -0.78607871914E+00  0.23566475037E+03  0.00000000000E+00 0.  1.
<mgrwt>
<rscale>  0 0.17687010E+04</rscale>
<asrwt>0</asrwt>
<pdfrwt beam="1">  1        2 0.45667842E+00 0.17687010E+04</pdfrwt>
<pdfrwt beam="2">  1       -1 0.40533271E-01 0.17687010E+04</pdfrwt>
<totfact> 0.11718048E+01</totfact>
</mgrwt>
</event>
<event>
12    7  0.1572140E-007  0.1900632E+04  0.7818608E-02  0.8654542E-01
          2   -1    0    0  501    0  0.00000000000E+00  0.00000000000E+00  0.70780911559E+03  0.70780911559E+03  0.00000000000E+00 0. -1.
         -1   -1    0    0    0  501 -0.00000000000E+00 -0.00000000000E+00 -0.12759096112E+04  0.12759096112E+04  0.00000000000E+00 0.  1.
         24    2    1    2    0    0 -0.43553446806E+03  0.60138538917E+03 -0.23125369339E+03  0.78187614166E+03  0.80606271548E+02 0.  0.
        254    2    1    2    0    0  0.43553446806E+03 -0.60138538917E+03 -0.33684680219E+03  0.12018425851E+04  0.88295253101E+03 0.  0.
         23    2    4    4    0    0  0.67725714086E+03 -0.55358637359E+03 -0.31623603066E+03  0.93440106148E+03  0.89246897732E+02 0.  0.
         23    2    4    4    0    0 -0.24172267280E+03 -0.47799015586E+02 -0.20610771538E+02  0.26744152361E+03  0.10190960805E+03 0.  0.
          2    1    3    3  502    0 -0.39030629197E+03  0.53746808209E+03 -0.23195463529E+03  0.70357223769E+03  0.00000000000E+00 0. -1.
         -1    1    3    3    0  502 -0.45228176094E+02  0.63917307085E+02  0.70094190343E+00  0.78303903973E+02  0.00000000000E+00 0.  1.
         13    1    5    5    0    0  0.55220851902E+03 -0.43478634643E+03 -0.21780252422E+03  0.73580660168E+03  0.00000000000E+00 0.  1.
        -13    1    5    5    0    0  0.12504862184E+03 -0.11880002716E+03 -0.98433506432E+02  0.19859445981E+03  0.00000000000E+00 0. -1.
          3    1    6    6  503    0 -0.47711582261E+01  0.12033694263E+02  0.15723101470E+02  0.20366385744E+02  0.00000000000E+00 0. -1.
         -3    1    6    6    0  503 -0.23695151457E+03 -0.59832709849E+02 -0.36333873008E+02  0.24707513787E+03  0.00000000000E+00 0.  1.
<mgrwt>
<rscale>  0 0.19006320E+04</rscale>
<asrwt>0</asrwt>
<pdfrwt beam="1">  1        2 0.10889371E+00 0.19006320E+04</pdfrwt>
<pdfrwt beam="2">  1       -1 0.19629379E+00 0.19006320E+04</pdfrwt>
<totfact> 0.68961472E+00</totfact>
</mgrwt>
</event>
<event>
12    7  0.1572140E-007  0.1442289E+04  0.7818608E-02  0.8923764E-01
          2   -1    0    0  501    0  0.00000000000E+00  0.00000000000E+00  0.94594322767E+03  0.94594322767E+03  0.00000000000E+00 0. -1.
         -1   -1    0    0    0  501 -0.00000000000E+00 -0.00000000000E+00 -0.54976803705E+03  0.54976803705E+03  0.00000000000E+00 0.  1.
         24    2    1    2    0    0  0.11541078884E+03 -0.19858982250E+03  0.51758280570E+03  0.57219342160E+03  0.82193571449E+02 0.  0.
        254    2    1    2    0    0 -0.11541078884E+03  0.19858982250E+03 -0.12140761508E+03  0.92351784313E+03  0.88622109532E+03 0.  0.
         23    2    4    4    0    0 -0.59015698696E+01 -0.18052707909E+03  0.28484643418E+03  0.35016513017E+03  0.94091830187E+02 0.  0.
         23    2    4    4    0    0 -0.10950921897E+03  0.37911690159E+03 -0.40625404926E+03  0.57335271295E+03  0.89269741771E+02 0.  0.
          2    1    3    3  502    0  0.80464645095E+02 -0.19063911174E+03  0.41928031755E+03  0.46756156250E+03  0.00000000000E+00 0. -1.
         -1    1    3    3    0  502  0.34946143747E+02 -0.79507107583E+01  0.98302488142E+02  0.10463185910E+03  0.00000000000E+00 0.  1.
         13    1    5    5    0    0 -0.43044181057E+02 -0.14396845368E+03  0.22780151782E+03  0.27289787229E+03  0.00000000000E+00 0. -1.
        -13    1    5    5    0    0  0.37142611188E+02 -0.36558625416E+02  0.57044916360E+02  0.77267257883E+02  0.00000000000E+00 0.  1.
          2    1    6    6  503    0 -0.87953666728E+02  0.32490192567E+03 -0.29431778602E+03  0.44712421983E+03  0.00000000000E+00 0. -1.
         -2    1    6    6    0  503 -0.21555552244E+02  0.54214975930E+02 -0.11193626324E+03  0.12622849312E+03  0.00000000000E+00 0.  1.
<mgrwt>
<rscale>  0 0.14422889E+04</rscale>
<asrwt>0</asrwt>
<pdfrwt beam="1">  1        2 0.14552973E+00 0.14422889E+04</pdfrwt>
<pdfrwt beam="2">  1       -1 0.84579698E-01 0.14422889E+04</pdfrwt>
<totfact> 0.41871924E+01</totfact>
</mgrwt>
</event>
<event>
12    7  0.1572140E-007  0.1753892E+04  0.7818608E-02  0.8731211E-01
          2   -1    0    0  501    0  0.00000000000E+00  0.00000000000E+00  0.26882441190E+04  0.26882441190E+04  0.00000000000E+00 0. -1.
         -1   -1    0    0    0  501 -0.00000000000E+00 -0.00000000000E+00 -0.28607304645E+03  0.28607304645E+03  0.00000000000E+00 0.  1.
         24    2    1    2    0    0  0.37153370405E+03  0.23980463850E+03  0.16910863208E+04  0.17497072384E+04  0.78478773842E+02 0.  0.
        254    2    1    2    0    0 -0.37153370405E+03 -0.23980463850E+03  0.71108475181E+03  0.12246099271E+04  0.89357953835E+03 0.  0.
         23    2    4    4    0    0 -0.24214502060E+02 -0.71379027297E+02  0.80807731778E+03  0.81657330933E+03  0.90120532371E+02 0.  0.
         23    2    4    4    0    0 -0.34731920199E+03 -0.16842561121E+03 -0.96992565972E+02  0.40803661775E+03  0.89936138401E+02 0.  0.
          2    1    3    3  502    0  0.35704813235E+03  0.21723040330E+03  0.16344816452E+04  0.16870692533E+04  0.00000000000E+00 0. -1.
         -1    1    3    3    0  502  0.14485571692E+02  0.22574235200E+02  0.56604675632E+02  0.62637985165E+02  0.00000000000E+00 0.  1.
         13    1    5    5    0    0 -0.15592982968E+02 -0.17746366833E+01  0.51431701566E+03  0.51455639443E+03  0.00000000000E+00 0.  1.
        -13    1    5    5    0    0 -0.86215190919E+01 -0.69604390614E+02  0.29376030212E+03  0.30201691490E+03  0.00000000000E+00 0. -1.
          1    1    6    6  503    0 -0.23476292361E+02 -0.30648886748E+01 -0.30134703908E+02  0.38322711612E+02  0.00000000000E+00 0. -1.
         -1    1    6    6    0  503 -0.32384290962E+03 -0.16536072253E+03 -0.66857862063E+02  0.36971390614E+03  0.00000000000E+00 0.  1.
<mgrwt>
<rscale>  0 0.17538919E+04</rscale>
<asrwt>0</asrwt>
<pdfrwt beam="1">  1        2 0.41357600E+00 0.17538919E+04</pdfrwt>
<pdfrwt beam="2">  1       -1 0.44011240E-01 0.17538919E+04</pdfrwt>
<totfact> 0.14896615E+01</totfact>
</mgrwt>
</event>
<event>
12    7  0.1572140E-007  0.1329236E+04  0.7818608E-02  0.9006697E-01
         -1   -1    0    0    0  501 -0.00000000000E+00  0.00000000000E+00  0.91280103104E+03  0.91280103104E+03  0.00000000000E+00 0.  1.
          2   -1    0    0  501    0  0.00000000000E+00 -0.00000000000E+00 -0.48391400344E+03  0.48391400344E+03  0.00000000000E+00 0. -1.
         24    2    1    2    0    0 -0.30856615654E+03  0.11397157359E+03  0.25068651387E+03  0.42101810064E+03  0.78803047411E+02 0.  0.
        254    2    1    2    0    0  0.30856615654E+03 -0.11397157359E+03  0.17820051373E+03  0.97569693384E+03  0.90112512508E+03 0.  0.
         23    2    4    4    0    0 -0.14743627689E+03  0.11580637963E+03  0.36840775421E+03  0.42333523127E+03  0.91322896177E+02 0.  0.
         23    2    4    4    0    0  0.45600243343E+03 -0.22977795323E+03 -0.19020724048E+03  0.55236170257E+03  0.90490491490E+02 0.  0.
          4    1    3    3  502    0 -0.45110947355E+02 -0.10374884434E+02  0.43598062794E+02  0.63587946009E+02  0.00000000000E+00 0. -1.
         -3    1    3    3    0  502 -0.26345520919E+03  0.12434645803E+03  0.20708845108E+03  0.35743015464E+03  0.00000000000E+00 0.  1.
         13    1    5    5    0    0 -0.32534823673E+02  0.75022471284E+02  0.19405359034E+03  0.21057939565E+03  0.00000000000E+00 0. -1.
        -13    1    5    5    0    0 -0.11490145321E+03  0.40783908350E+02  0.17435416387E+03  0.21275583562E+03  0.00000000000E+00 0.  1.
          2    1    6    6  503    0  0.33584910453E+03 -0.21179377289E+03 -0.14293734101E+03  0.42199799372E+03  0.00000000000E+00 0. -1.
         -2    1    6    6    0  503  0.12015332891E+03 -0.17984180331E+02 -0.47269899463E+02  0.13036370885E+03  0.00000000000E+00 0.  1.
<mgrwt>
<rscale>  0 0.13292362E+04</rscale>
<asrwt>0</asrwt>
<pdfrwt beam="1">  1        2 0.74448308E-01 0.13292362E+04</pdfrwt>
<pdfrwt beam="2">  1       -1 0.14043093E+00 0.13292362E+04</pdfrwt>
<totfact> 0.29758043E+01</totfact>
</mgrwt>
</event>
<event>
12    7  0.1572140E-007  0.1214140E+04  0.7818608E-02  0.9100569E-01
          2   -1    0    0  501    0  0.00000000000E+00  0.00000000000E+00  0.17304535989E+04  0.17304535989E+04  0.00000000000E+00 0. -1.
         -1   -1    0    0    0  501 -0.00000000000E+00 -0.00000000000E+00 -0.21296958816E+03  0.21296958816E+03  0.00000000000E+00 0.  1.
         24    2    1    2    0    0  0.56459034927E+02 -0.18975711035E+02 -0.65813341863E+02  0.12475302241E+03  0.87659685137E+02 0.  0.
        254    2    1    2    0    0 -0.56459034927E+02  0.18975711035E+02  0.15832973526E+04  0.18186701646E+04  0.89285102947E+03 0.  0.
         23    2    4    4    0    0 -0.63231623352E+02 -0.86590514636E+02  0.16553874292E+04  0.16613933744E+04  0.91783702285E+02 0.  0.
         23    2    4    4    0    0  0.67725884245E+01  0.10556622567E+03 -0.72090076669E+02  0.15727679029E+03  0.91372389990E+02 0.  0.
          2    1    3    3  502    0  0.11921064953E+02 -0.19331922918E+02  0.18569464905E+02  0.29337008372E+02  0.00000000000E+00 0. -1.
         -1    1    3    3    0  502  0.44537969974E+02  0.35621188339E+00 -0.84382806768E+02  0.95416014035E+02  0.00000000000E+00 0.  1.
         13    1    5    5    0    0  0.17308648496E+02 -0.34005982317E+02  0.27163908512E+03  0.27430601290E+03  0.00000000000E+00 0. -1.
        -13    1    5    5    0    0 -0.80540271848E+02 -0.52584532319E+02  0.13837483441E+04  0.13870873615E+04  0.00000000000E+00 0.  1.
          1    1    6    6  503    0  0.12878785740E+02 -0.17949526270E+01  0.14307669609E+02  0.19333762870E+02  0.00000000000E+00 0. -1.
         -1    1    6    6    0  503 -0.61061973157E+01  0.10736117830E+03 -0.86397746278E+02  0.13794302742E+03  0.00000000000E+00 0.  1.
<mgrwt>
<rscale>  0 0.12141400E+04</rscale>
<asrwt>0</asrwt>
<pdfrwt beam="1">  1        2 0.26622362E+00 0.12141400E+04</pdfrwt>
<pdfrwt beam="2">  1       -1 0.32764553E-01 0.12141400E+04</pdfrwt>
<totfact> 0.92486032E+01</totfact>
</mgrwt>
</event>
<event>
12    7  0.1572140E-007  0.1478259E+04  0.7818608E-02  0.8899041E-01
          2   -1    0    0  501    0  0.00000000000E+00  0.00000000000E+00  0.10340233635E+04  0.10340233635E+04  0.00000000000E+00 0. -1.
         -1   -1    0    0    0  501 -0.00000000000E+00 -0.00000000000E+00 -0.52833643165E+03  0.52833643165E+03  0.00000000000E+00 0.  1.
         24    2    1    2    0    0  0.25749415298E+03 -0.37653385581E+03  0.10528834524E+03  0.47494612647E+03  0.80045012387E+02 0.  0.
        254    2    1    2    0    0 -0.25749415298E+03  0.37653385581E+03  0.40039858662E+03  0.10874136687E+04  0.90225743294E+03 0.  0.
         23    2    4    4    0    0  0.16239369300E+03  0.19236600491E+03  0.53781582658E+03  0.60038436217E+03  0.88538848201E+02 0.  0.
         23    2    4    4    0    0 -0.41988784598E+03  0.18416785090E+03 -0.13741723996E+03  0.48702930653E+03  0.89946912518E+02 0.  0.
          2    1    3    3  502    0  0.26160537897E+02 -0.51849255834E+02  0.41094292113E+02  0.71143938026E+02  0.00000000000E+00 0. -1.
         -1    1    3    3    0  502  0.23133361508E+03 -0.32468459998E+03  0.64194053130E+02  0.40380218844E+03  0.00000000000E+00 0.  1.
         13    1    5    5    0    0  0.49099130106E+02  0.75210757325E+02  0.29157307450E+03  0.30509382224E+03  0.00000000000E+00 0. -1.
        -13    1    5    5    0    0  0.11329456289E+03  0.11715524759E+03  0.24624275208E+03  0.29529053993E+03  0.00000000000E+00 0.  1.
          1    1    6    6  503    0 -0.82727681213E+02  0.75173395983E+02 -0.18720865180E+02  0.11333745848E+03  0.00000000000E+00 0. -1.
         -1    1    6    6    0  503 -0.33716016477E+03  0.10899445492E+03 -0.11869637478E+03  0.37369184804E+03  0.00000000000E+00 0.  1.
<mgrwt>
<rscale>  0 0.14782587E+04</rscale>
<asrwt>0</asrwt>
<pdfrwt beam="1">  1        2 0.15908052E+00 0.14782587E+04</pdfrwt>
<pdfrwt beam="2">  1       -1 0.81282528E-01 0.14782587E+04</pdfrwt>
<totfact> 0.39890059E+01</totfact>
</mgrwt>
</event>
<event>
12    7  0.1572140E-007  0.1824652E+04  0.7818608E-02  0.8693299E-01
         -1   -1    0    0    0  501 -0.00000000000E+00  0.00000000000E+00  0.32809327617E+03  0.32809327617E+03  0.00000000000E+00 0.  1.
          2   -1    0    0  501    0  0.00000000000E+00 -0.00000000000E+00 -0.25368952558E+04  0.25368952558E+04  0.00000000000E+00 0. -1.
         24    2    1    2    0    0  0.36585839371E+02  0.30082802453E+03 -0.18050101658E+04  0.18319977282E+04  0.79485553957E+02 0.  0.
        254    2    1    2    0    0 -0.36585839371E+02 -0.30082802453E+03 -0.40379181383E+03  0.10329908038E+04  0.90121370822E+03 0.  0.
         23    2    4    4    0    0 -0.43865592682E+03 -0.78043062069E+02 -0.32134620748E+03  0.55691149336E+03  0.91527507924E+02 0.  0.
         23    2    4    4    0    0  0.40207008745E+03 -0.22278496246E+03 -0.82445606350E+02  0.47607931046E+03  0.92524251565E+02 0.  0.
          2    1    3    3  502    0  0.57222168252E+02  0.24437890797E+03 -0.15345151165E+04  0.15549058074E+04  0.00000000000E+00 0. -1.
         -1    1    3    3    0  502 -0.20636328881E+02  0.56449116562E+02 -0.27049504937E+03  0.27709192078E+03  0.00000000000E+00 0.  1.
         13    1    5    5    0    0 -0.41081511362E+03 -0.51706266139E+02 -0.27635279738E+03  0.49780866220E+03  0.00000000000E+00 0. -1.
        -13    1    5    5    0    0 -0.27840813195E+02 -0.26336795929E+02 -0.44993410100E+02  0.59102831164E+02  0.00000000000E+00 0.  1.
          3    1    6    6  503    0  0.12053114178E+03 -0.11742863934E+03 -0.30350922022E+02  0.17099245581E+03  0.00000000000E+00 0. -1.
         -3    1    6    6    0  503  0.28153894567E+03 -0.10535632312E+03 -0.52094684328E+02  0.30508685466E+03  0.00000000000E+00 0.  1.
<mgrwt>
<rscale>  0 0.18246515E+04</rscale>
<asrwt>0</asrwt>
<pdfrwt beam="1">  1        2 0.39029157E+00 0.18246515E+04</pdfrwt>
<pdfrwt beam="2">  1       -1 0.50475889E-01 0.18246515E+04</pdfrwt>
<totfact> 0.14028444E+01</totfact>
</mgrwt>
</event>
<event>
12    7  0.1964150E-007  0.2155542E+04  0.7818608E-02  0.8537164E-01
          2   -1    0    0  501    0  0.00000000000E+00  0.00000000000E+00  0.14915647044E+04  0.14915647044E+04  0.00000000000E+00 0. -1.
         -1   -1    0    0    0  501 -0.00000000000E+00 -0.00000000000E+00 -0.77877310318E+03  0.77877310318E+03  0.00000000000E+00 0.  1.
         24    2    1    2    0    0 -0.57797521345E+03  0.54220174776E+03 -0.10459344628E+01  0.79646422668E+03  0.79473818119E+02 0.  0.
        254    2    1    2    0    0  0.57797521345E+03 -0.54220174776E+03  0.71383753569E+03  0.14738735809E+04  0.10172026457E+04 0.  0.
         23    2    4    4    0    0 -0.17897013235E+03  0.80634025520E+02  0.37600515185E+03  0.43327864644E+03  0.88421473093E+02 0.  0.
         23    2    4    4    0    0  0.75694534580E+03 -0.62283577328E+03  0.33783238385E+03  0.10405949345E+04  0.88410638744E+02 0.  0.
          2    1    3    3  502    0 -0.48410256145E+01  0.17842128954E+02 -0.66089045907E+01  0.19633000650E+02  0.00000000000E+00 0. -1.
         -1    1    3    3    0  502 -0.57313418784E+03  0.52435961881E+03  0.55629701279E+01  0.77683122603E+03  0.00000000000E+00 0.  1.
         13    1    5    5    0    0 -0.81010131914E+02  0.71202884161E+02  0.25790793767E+03  0.27955142013E+03  0.00000000000E+00 0. -1.
        -13    1    5    5    0    0 -0.97960000438E+02  0.94311413589E+01  0.11809721418E+03  0.15372722631E+03  0.00000000000E+00 0.  1.
          4    1    6    6  503    0  0.41236875452E+03 -0.33921545576E+03  0.13735101885E+03  0.55134419151E+03  0.00000000000E+00 0. -1.
         -4    1    6    6    0  503  0.34457659128E+03 -0.28362031752E+03  0.20048136500E+03  0.48925074296E+03  0.00000000000E+00 0.  1.
<mgrwt>
<rscale>  0 0.21555421E+04</rscale>
<asrwt>0</asrwt>
<pdfrwt beam="1">  1        2 0.22947149E+00 0.21555421E+04</pdfrwt>
<pdfrwt beam="2">  1       -1 0.11981125E+00 0.21555421E+04</pdfrwt>
<totfact> 0.83364722E+00</totfact>
</mgrwt>
</event>
<event>
12    7  0.1572140E-007  0.2493295E+04  0.7818608E-02  0.8405378E-01
          2   -1    0    0  501    0  0.00000000000E+00  0.00000000000E+00  0.79567624370E+03  0.79567624370E+03  0.00000000000E+00 0. -1.
         -1   -1    0    0    0  501 -0.00000000000E+00 -0.00000000000E+00 -0.19532191651E+04  0.19532191651E+04  0.00000000000E+00 0.  1.
         24    2    1    2    0    0 -0.38392112010E+03  0.11591316491E+03 -0.16164618139E+04  0.16682380894E+04  0.96115757574E+02 0.  0.
        254    2    1    2    0    0  0.38392112010E+03 -0.11591316491E+03  0.45891889246E+03  0.10806573195E+04  0.89240260196E+03 0.  0.
         23    2    4    4    0    0  0.61145722828E+03  0.12460810578E+03  0.24964804628E+03  0.67836667786E+03  0.91924319774E+02 0.  0.
         23    2    4    4    0    0 -0.22753610819E+03 -0.24052127069E+03  0.20927084617E+03  0.40229064160E+03  0.91762253004E+02 0.  0.
          4    1    3    3  502    0 -0.27286717490E+03  0.39937395595E+02 -0.11619324238E+04  0.11942103869E+04  0.00000000000E+00 0. -1.
         -3    1    3    3    0  502 -0.11105394520E+03  0.75975769314E+02 -0.45452939011E+03  0.47402770251E+03  0.00000000000E+00 0.  1.
         13    1    5    5    0    0  0.52066795778E+03  0.10127877393E+03  0.24563587384E+03  0.58454212408E+03  0.00000000000E+00 0. -1.
        -13    1    5    5    0    0  0.90789270500E+02  0.23329331855E+02  0.40121724393E+01  0.93824553772E+02  0.00000000000E+00 0.  1.
          4    1    6    6  503    0 -0.18612921419E+03 -0.13434557511E+03  0.14340913765E+03  0.27066399592E+03  0.00000000000E+00 0. -1.
         -4    1    6    6    0  503 -0.41406893994E+02 -0.10617569558E+03  0.65861708529E+02  0.13162664568E+03  0.00000000000E+00 0.  1.
<mgrwt>
<rscale>  0 0.24932951E+04</rscale>
<asrwt>0</asrwt>
<pdfrwt beam="1">  1        2 0.12241173E+00 0.24932951E+04</pdfrwt>
<pdfrwt beam="2">  1       -1 0.30049525E+00 0.24932951E+04</pdfrwt>
<totfact> 0.11577687E+00</totfact>
</mgrwt>
</event>
<event>
12    7  0.1665821E-007  0.2878314E+04  0.7818608E-02  0.8279359E-01
          2   -1    0    0  501    0  0.00000000000E+00  0.00000000000E+00  0.21436299023E+04  0.21436299023E+04  0.00000000000E+00 0. -1.
         -1   -1    0    0    0  501 -0.00000000000E+00 -0.00000000000E+00 -0.96619889092E+03  0.96619889092E+03  0.00000000000E+00 0.  1.
         24    2    1    2    0    0  0.17396049409E+03  0.11733095176E+04 -0.32858218717E+02  0.11892815778E+04  0.79959558752E+02 0.  0.
        254    2    1    2    0    0 -0.17396049409E+03 -0.11733095176E+04  0.12102892301E+04  0.19205472155E+04  0.90376109043E+03 0.  0.
         23    2    4    4    0    0 -0.21908128754E+03 -0.41482462589E+02 -0.24670802781E+02  0.24237659867E+03  0.91762529481E+02 0.  0.
         23    2    4    4    0    0  0.45120793455E+02 -0.11318270550E+04  0.12349600329E+04  0.16781706168E+04  0.89788460637E+02 0.  0.
          4    1    3    3  502    0  0.61818163072E+02  0.50559474378E+03 -0.51513808201E+02  0.51195820401E+03  0.00000000000E+00 0. -1.
         -3    1    3    3    0  502  0.11214233102E+03  0.66771477386E+03  0.18655589484E+02  0.67732337377E+03  0.00000000000E+00 0.  1.
         13    1    5    5    0    0 -0.13391218656E+03 -0.61082535202E+02 -0.42463601996E+02  0.15318846990E+03  0.00000000000E+00 0.  1.
        -13    1    5    5    0    0 -0.85169100983E+02  0.19600072613E+02  0.17792799215E+02  0.89188128765E+02  0.00000000000E+00 0. -1.
          2    1    6    6  503    0  0.17921675804E+01 -0.17302606520E+03  0.14400896749E+03  0.22512177553E+03  0.00000000000E+00 0. -1.
         -2    1    6    6    0  503  0.43328625874E+02 -0.95880098985E+03  0.10909510654E+04  0.14530488413E+04  0.00000000000E+00 0.  1.
<mgrwt>
<rscale>  0 0.28783140E+04</rscale>
<asrwt>0</asrwt>
<pdfrwt beam="1">  1        2 0.32978921E+00 0.28783140E+04</pdfrwt>
<pdfrwt beam="2">  1       -1 0.14864598E+00 0.28783140E+04</pdfrwt>
<totfact> 0.19526050E+00</totfact>
</mgrwt>
</event>
<event>
12    7  0.1572140E-007  0.1326831E+04  0.7818608E-02  0.9008554E-01
          2   -1    0    0  501    0  0.00000000000E+00  0.00000000000E+00  0.22439982414E+04  0.22439982414E+04  0.00000000000E+00 0. -1.
         -1   -1    0    0    0  501 -0.00000000000E+00 -0.00000000000E+00 -0.19613216237E+03  0.19613216237E+03  0.00000000000E+00 0.  1.
         24    2    1    2    0    0  0.63856704417E+02  0.15983713669E+03  0.11257402335E+04  0.11416012479E+04  0.79603686974E+02 0.  0.
        254    2    1    2    0    0 -0.63856704417E+02 -0.15983713669E+03  0.92212584556E+03  0.12985291559E+04  0.89790662358E+03 0.  0.
         23    2    4    4    0    0  0.38910577731E+03 -0.21076087218E+03  0.44167144841E+03  0.63022617207E+03  0.79296333123E+02 0.  0.
         23    2    4    4    0    0 -0.45296248172E+03  0.50923735489E+02  0.48045439715E+03  0.66830298382E+03  0.89577975783E+02 0.  0.
          2    1    3    3  502    0  0.20035602404E+02  0.65622632357E+02  0.70041641767E+03  0.70376907674E+03  0.00000000000E+00 0. -1.
         -1    1    3    3    0  502  0.43821102013E+02  0.94214504334E+02  0.42532381585E+03  0.43783217120E+03  0.00000000000E+00 0.  1.
         13    1    5    5    0    0  0.30405349532E+03 -0.19464508460E+03  0.37847127064E+03  0.52304468229E+03  0.00000000000E+00 0. -1.
        -13    1    5    5    0    0  0.85052281991E+02 -0.16115787578E+02  0.63200177768E+02  0.10718148978E+03  0.00000000000E+00 0.  1.
          2    1    6    6  503    0 -0.40553643724E+03  0.60339487442E+02  0.45886074729E+03  0.61534855251E+03  0.00000000000E+00 0. -1.
         -2    1    6    6    0  503 -0.47426044482E+02 -0.94157519529E+01  0.21593649862E+02  0.52954431301E+02  0.00000000000E+00 0.  1.
<mgrwt>
<rscale>  0 0.13268312E+04</rscale>
<asrwt>0</asrwt>
<pdfrwt beam="1">  1        2 0.34523048E+00 0.13268312E+04</pdfrwt>
<pdfrwt beam="2">  1       -1 0.30174180E-01 0.13268312E+04</pdfrwt>
<totfact> 0.55018683E+01</totfact>
</mgrwt>
</event>
<event>
12    7  0.2566146E-007  0.1851240E+04  0.7818608E-02  0.8679516E-01
          2   -1    0    0  501    0  0.00000000000E+00  0.00000000000E+00  0.26112530315E+04  0.26112530315E+04  0.00000000000E+00 0. -1.
         -1   -1    0    0    0  501 -0.00000000000E+00 -0.00000000000E+00 -0.32810765063E+03  0.32810765063E+03  0.00000000000E+00 0.  1.
         24    2    1    2    0    0 -0.28273291103E+03  0.25947621677E+03 -0.65143067067E+02  0.39716662603E+03  0.78942406836E+02 0.  0.
        254    2    1    2    0    0  0.28273291103E+03 -0.25947621677E+03  0.23482884480E+04  0.25421940561E+04  0.89500065816E+03 0.  0.
         23    2    4    4    0    0 -0.18454589773E+03 -0.42256288235E+03  0.11529041915E+04  0.12450965839E+04  0.91982882160E+02 0.  0.
         23    2    4    4    0    0  0.46727880876E+03  0.16308666557E+03  0.11953842564E+04  0.12970974722E+04  0.92582861219E+02 0.  0.
          2    1    3    3  502    0  0.48016772397E+01  0.18616414216E+01  0.15745218193E+01  0.53852513456E+01  0.00000000000E+00 0. -1.
         -1    1    3    3    0  502 -0.28753458827E+03  0.25761457535E+03 -0.66717588887E+02  0.39178137469E+03  0.00000000000E+00 0.  1.
         13    1    5    5    0    0 -0.20201302922E+02 -0.12883398036E+03  0.39058215118E+03  0.41177749325E+03  0.00000000000E+00 0. -1.
        -13    1    5    5    0    0 -0.16434459481E+03 -0.29372890199E+03  0.76232204034E+03  0.83331909068E+03  0.00000000000E+00 0.  1.
          2    1    6    6  503    0  0.18338438233E+03  0.97706886066E+02  0.41511371397E+03  0.46421531943E+03  0.00000000000E+00 0. -1.
         -2    1    6    6    0  503  0.28389442643E+03  0.65379779508E+02  0.78027054247E+03  0.83288215275E+03  0.00000000000E+00 0.  1.
<mgrwt>
<rscale>  0 0.18512397E+04</rscale>
<asrwt>0</asrwt>
<pdfrwt beam="1">  1        2 0.40173122E+00 0.18512397E+04</pdfrwt>
<pdfrwt beam="2">  1       -1 0.50478102E-01 0.18512397E+04</pdfrwt>
<totfact> 0.12663625E+01</totfact>
</mgrwt>
</event>
<event>
12    7  0.1572140E-007  0.3359509E+04  0.7818608E-02  0.8147916E-01
         -1   -1    0    0    0  501 -0.00000000000E+00  0.00000000000E+00  0.11742417602E+04  0.11742417602E+04  0.00000000000E+00 0.  1.
          2   -1    0    0  501    0  0.00000000000E+00 -0.00000000000E+00 -0.24028911149E+04  0.24028911149E+04  0.00000000000E+00 0. -1.
         24    2    1    2    0    0 -0.24519070289E+03 -0.12900758141E+04 -0.14570724346E+04  0.19631873779E+04  0.81427969410E+02 0.  0.
        254    2    1    2    0    0  0.24519070289E+03  0.12900758141E+04  0.22842307992E+03  0.16139454971E+04  0.91007080896E+03 0.  0.
         23    2    4    4    0    0  0.26560750039E+03  0.13959497026E+04  0.10691159539E+03  0.14278294131E+04  0.89687385402E+02 0.  0.
         23    2    4    4    0    0 -0.20416797496E+02 -0.10587388850E+03  0.12151148453E+03  0.18611608406E+03  0.90818665408E+02 0.  0.
          2    1    3    3  502    0 -0.21485457417E+03 -0.10177315622E+04 -0.11903735920E+04  0.15808002117E+04  0.00000000000E+00 0. -1.
         -1    1    3    3    0  502 -0.30336128717E+02 -0.27234425190E+03 -0.26669884264E+03  0.38238716625E+03  0.00000000000E+00 0.  1.
         13    1    5    5    0    0  0.22162815932E+03  0.10669537360E+04  0.11521715216E+03  0.10958030425E+04  0.00000000000E+00 0.  1.
        -13    1    5    5    0    0  0.43979341068E+02  0.32899596657E+03 -0.83055567701E+01  0.33202637054E+03  0.00000000000E+00 0. -1.
          3    1    6    6  503    0 -0.33371783181E+02 -0.40561057554E+01  0.52825713071E+02  0.62615364473E+02  0.00000000000E+00 0. -1.
         -3    1    6    6    0  503  0.12954985685E+02 -0.10181778275E+03  0.68685771462E+02  0.12350071959E+03  0.00000000000E+00 0.  1.
<mgrwt>
<rscale>  0 0.33595089E+04</rscale>
<asrwt>0</asrwt>
<pdfrwt beam="1">  1        2 0.36967556E+00 0.33595089E+04</pdfrwt>
<pdfrwt beam="2">  1       -1 0.18065258E+00 0.33595089E+04</pdfrwt>
<totfact> 0.77017827E-01</totfact>
</mgrwt>
</event>
<event>
12    7  0.1572140E-007  0.1862751E+04  0.7818608E-02  0.8673623E-01
         -1   -1    0    0    0  501 -0.00000000000E+00  0.00000000000E+00  0.93435626854E+03  0.93435626854E+03  0.00000000000E+00 0.  1.
          2   -1    0    0  501    0  0.00000000000E+00 -0.00000000000E+00 -0.92840389164E+03  0.92840389164E+03  0.00000000000E+00 0. -1.
         24    2    1    2    0    0 -0.48340634329E+03  0.24243962230E+02 -0.51823284410E+03  0.71420953449E+03  0.85208661681E+02 0.  0.
        254    2    1    2    0    0  0.48340634329E+03 -0.24243962230E+02  0.52418522099E+03  0.11485506257E+04  0.90007162572E+03 0.  0.
         23    2    4    4    0    0 -0.35185416959E+02  0.31849101082E+03  0.13981436230E+01  0.33121968623E+03  0.83845024899E+02 0.  0.
         23    2    4    4    0    0  0.51859176024E+03 -0.34273497305E+03  0.52278707737E+03  0.81733093946E+03  0.91207789068E+02 0.  0.
          4    1    3    3  502    0 -0.38853761041E+03 -0.11950530497E+02 -0.38994966628E+03  0.55060424273E+03  0.00000000000E+00 0. -1.
         -3    1    3    3    0  502 -0.94868732877E+02  0.36194492727E+02 -0.12828317782E+03  0.16360529177E+03  0.00000000000E+00 0.  1.
         13    1    5    5    0    0 -0.14144861021E+02  0.30665009871E+03  0.33815460084E+01  0.30699478006E+03  0.00000000000E+00 0.  1.
        -13    1    5    5    0    0 -0.21040555938E+02  0.11840912110E+02 -0.19834023855E+01  0.24224906167E+02  0.00000000000E+00 0. -1.
          1    1    6    6  503    0  0.71071773699E+02 -0.71136917336E+02  0.51624577270E+02  0.11303430896E+03  0.00000000000E+00 0. -1.
         -1    1    6    6    0  503  0.44751998654E+03 -0.27159805571E+03  0.47116250010E+03  0.70429663049E+03  0.00000000000E+00 0.  1.
<mgrwt>
<rscale>  0 0.18627506E+04</rscale>
<asrwt>0</asrwt>
<pdfrwt beam="1">  1        2 0.14283137E+00 0.18627506E+04</pdfrwt>
<pdfrwt beam="2">  1       -1 0.14374712E+00 0.18627506E+04</pdfrwt>
<totfact> 0.11760110E+01</totfact>
</mgrwt>
</event>
<event>
12    7  0.1572140E-007  0.1674357E+04  0.7818608E-02  0.8776126E-01
          2   -1    0    0  501    0  0.00000000000E+00  0.00000000000E+00  0.32166262050E+04  0.32166262050E+04  0.00000000000E+00 0. -1.
         -1   -1    0    0    0  501 -0.00000000000E+00 -0.00000000000E+00 -0.21788905106E+03  0.21788905106E+03  0.00000000000E+00 0.  1.
         24    2    1    2    0    0 -0.40880421522E+02 -0.22217128731E+03  0.21829655777E+04  0.21960564022E+04  0.79332959423E+02 0.  0.
        254    2    1    2    0    0  0.40880421522E+02  0.22217128731E+03  0.81577157631E+03  0.12384588539E+04  0.90402753188E+03 0.  0.
         23    2    4    4    0    0  0.12929500003E+03 -0.13237665606E+03  0.83710201233E+03  0.86242736142E+03  0.93810439611E+02 0.  0.
         23    2    4    4    0    0 -0.88414578505E+02  0.35454794336E+03 -0.21330436013E+02  0.37603149251E+03  0.86158656123E+02 0.  0.
          2    1    3    3  502    0 -0.34873980305E+02 -0.17984661349E+03  0.19898834391E+04  0.19982985513E+04  0.00000000000E+00 0. -1.
         -1    1    3    3    0  502 -0.60064412164E+01 -0.42324673815E+02  0.19308213859E+03  0.19775785090E+03  0.00000000000E+00 0.  1.
         13    1    5    5    0    0  0.13530695599E+03 -0.13430891968E+03  0.70946481586E+03  0.73463404712E+03  0.00000000000E+00 0. -1.
        -13    1    5    5    0    0 -0.60119559631E+01  0.19322636243E+01  0.12763719647E+03  0.12779331430E+03  0.00000000000E+00 0.  1.
          2    1    6    6  503    0 -0.90928664078E+02  0.34825040223E+03 -0.34136804916E+02  0.36154071147E+03  0.00000000000E+00 0. -1.
         -2    1    6    6    0  503  0.25140855734E+01  0.62975411361E+01  0.12806368903E+02  0.14490781039E+02  0.00000000000E+00 0.  1.
<mgrwt>
<rscale>  0 0.16743567E+04</rscale>
<asrwt>0</asrwt>
<pdfrwt beam="1">  1        2 0.49486554E+00 0.16743567E+04</pdfrwt>
<pdfrwt beam="2">  1       -1 0.33521395E-01 0.16743567E+04</pdfrwt>
<totfact> 0.11592125E+01</totfact>
</mgrwt>
</event>
<event>
12    7  0.1572140E-007  0.2617685E+04  0.7818608E-02  0.8362219E-01
         -1   -1    0    0    0  501 -0.00000000000E+00  0.00000000000E+00  0.10848165266E+04  0.10848165266E+04  0.00000000000E+00 0.  1.
          2   -1    0    0  501    0  0.00000000000E+00 -0.00000000000E+00 -0.15791318967E+04  0.15791318967E+04  0.00000000000E+00 0. -1.
         24    2    1    2    0    0  0.47737868486E+03 -0.12550789786E+03  0.84241025458E+03  0.97968086242E+03  0.80479276733E+02 0.  0.
        254    2    1    2    0    0 -0.47737868486E+03  0.12550789786E+03 -0.13367256246E+04  0.16842675609E+04  0.89793049835E+03 0.  0.
         23    2    4    4    0    0 -0.31367774924E+03  0.24631255145E+03 -0.90921654624E+02  0.41866824820E+03  0.89178200223E+02 0.  0.
         23    2    4    4    0    0 -0.16370093561E+03 -0.12080465359E+03 -0.12458039700E+04  0.12655993127E+04  0.91226793714E+02 0.  0.
          4    1    3    3  502    0  0.54829673002E+02 -0.42779275821E+02  0.11854401644E+03  0.13743741599E+03  0.00000000000E+00 0. -1.
         -3    1    3    3    0  502  0.42254901185E+03 -0.82728622040E+02  0.72386623814E+03  0.84224344642E+03  0.00000000000E+00 0.  1.
         13    1    5    5    0    0 -0.19412263578E+03  0.17952762189E+03 -0.21910541950E+02  0.26531836837E+03  0.00000000000E+00 0.  1.
        -13    1    5    5    0    0 -0.11955511346E+03  0.66784929566E+02 -0.69011112674E+02  0.15334987983E+03  0.00000000000E+00 0. -1.
          2    1    6    6  503    0 -0.99184820999E+02 -0.17948603326E+02 -0.51366844189E+03  0.52346446801E+03  0.00000000000E+00 0.  1.
         -2    1    6    6    0  503 -0.64516114613E+02 -0.10285605027E+03 -0.73213552812E+03  0.74213484466E+03  0.00000000000E+00 0. -1.
<mgrwt>
<rscale>  0 0.26176848E+04</rscale>
<asrwt>0</asrwt>
<pdfrwt beam="1">  1        2 0.24294337E+00 0.26176848E+04</pdfrwt>
<pdfrwt beam="2">  1       -1 0.16689485E+00 0.26176848E+04</pdfrwt>
<totfact> 0.29893255E+00</totfact>
</mgrwt>
</event>
<event>
12    7  0.1572140E-007  0.2079265E+04  0.7818608E-02  0.8570433E-01
         -1   -1    0    0    0  501 -0.00000000000E+00  0.00000000000E+00  0.14520775684E+04  0.14520775684E+04  0.00000000000E+00 0.  1.
          2   -1    0    0  501    0  0.00000000000E+00 -0.00000000000E+00 -0.74433741000E+03  0.74433741000E+03  0.00000000000E+00 0. -1.
         24    2    1    2    0    0 -0.28359910729E+03 -0.44101105300E+03 -0.40468699059E+03  0.66712388739E+03  0.79771663202E+02 0.  0.
        254    2    1    2    0    0  0.28359910729E+03  0.44101105300E+03  0.11124271490E+04  0.15292910910E+04  0.90902028396E+03 0.  0.
         23    2    4    4    0    0  0.24266959841E+03  0.63609260486E+03  0.42562821884E+03  0.80826647098E+03  0.92913785217E+02 0.  0.
         23    2    4    4    0    0  0.40929508883E+02 -0.19508155187E+03  0.68679893012E+03  0.72102461999E+03  0.91933104164E+02 0.  0.
          4    1    3    3  502    0 -0.24903627377E+03 -0.32769548302E+03 -0.30468198090E+03  0.51208837590E+03  0.00000000000E+00 0. -1.
         -3    1    3    3    0  502 -0.34562833523E+02 -0.11331556997E+03 -0.10000500970E+03  0.15503551149E+03  0.00000000000E+00 0.  1.
         13    1    5    5    0    0  0.20171362392E+03  0.54178114240E+03  0.31961824532E+03  0.66058384409E+03  0.00000000000E+00 0.  1.
        -13    1    5    5    0    0  0.40955974484E+02  0.94311462462E+02  0.10600997352E+03  0.14768262688E+03  0.00000000000E+00 0. -1.
          1    1    6    6  503    0  0.40606698293E+02 -0.10125564506E+03  0.22833588428E+03  0.25305905566E+03  0.00000000000E+00 0. -1.
         -1    1    6    6    0  503  0.32281059017E+00 -0.93825906805E+02  0.45846304584E+03  0.46796556433E+03  0.00000000000E+00 0.  1.
<mgrwt>
<rscale>  0 0.20792649E+04</rscale>
<asrwt>0</asrwt>
<pdfrwt beam="1">  1        2 0.11451345E+00 0.20792649E+04</pdfrwt>
<pdfrwt beam="2">  1       -1 0.22339655E+00 0.20792649E+04</pdfrwt>
<totfact> 0.41665773E+00</totfact>
</mgrwt>
</event>
<event>
12    7  0.1572140E-007  0.2643349E+04  0.7818608E-02  0.8353624E-01
         -1   -1    0    0    0  501 -0.00000000000E+00  0.00000000000E+00  0.10532133460E+04  0.10532133460E+04  0.00000000000E+00 0.  1.
          2   -1    0    0  501    0  0.00000000000E+00 -0.00000000000E+00 -0.16585656230E+04  0.16585656230E+04  0.00000000000E+00 0. -1.
         24    2    1    2    0    0 -0.56817444449E+03 -0.94528146877E+03 -0.64902850040E+03  0.12821354414E+04  0.79082495771E+02 0.  0.
        254    2    1    2    0    0  0.56817444449E+03  0.94528146877E+03  0.43676223486E+02  0.14296435276E+04  0.90862189548E+03 0.  0.
         23    2    4    4    0    0  0.28400246801E+03 -0.76279542971E+02 -0.15848547898E+03  0.34624198545E+03  0.91048860136E+02 0.  0.
         23    2    4    4    0    0  0.28417197649E+03  0.10215610117E+04  0.20216170246E+03  0.10834015422E+04  0.92460449226E+02 0.  0.
          4    1    3    3  502    0 -0.17987272320E+03 -0.33209029268E+03 -0.18370898390E+03  0.41998470187E+03  0.00000000000E+00 0. -1.
         -3    1    3    3    0  502 -0.38830172130E+03 -0.61319117610E+03 -0.46531951650E+03  0.86215073951E+03  0.00000000000E+00 0.  1.
         13    1    5    5    0    0  0.54328010138E+00 -0.12312348223E+02  0.44366350995E+01  0.13098580192E+02  0.00000000000E+00 0. -1.
        -13    1    5    5    0    0  0.28345918790E+03 -0.63967194748E+02 -0.16292211408E+03  0.33314340526E+03  0.00000000000E+00 0.  1.
          2    1    6    6  503    0  0.98747777980E+02  0.36828128167E+03  0.27874740396E+02  0.38230776507E+03  0.00000000000E+00 0. -1.
         -2    1    6    6    0  503  0.18542419851E+03  0.65327973007E+03  0.17428696207E+03  0.70109377708E+03  0.00000000000E+00 0.  1.
<mgrwt>
<rscale>  0 0.26433490E+04</rscale>
<asrwt>0</asrwt>
<pdfrwt beam="1">  1        2 0.25516394E+00 0.26433490E+04</pdfrwt>
<pdfrwt beam="2">  1       -1 0.16203282E+00 0.26433490E+04</pdfrwt>
<totfact> 0.29276429E+00</totfact>
</mgrwt>
</event>
<event>
12    7  0.1572140E-007  0.1284448E+04  0.7818608E-02  0.9041989E-01
          2   -1    0    0  501    0  0.00000000000E+00  0.00000000000E+00  0.43904704333E+03  0.43904704333E+03  0.00000000000E+00 0. -1.
         -1   -1    0    0    0  501 -0.00000000000E+00 -0.00000000000E+00 -0.93942541081E+03  0.93942541081E+03  0.00000000000E+00 0.  1.
         24    2    1    2    0    0 -0.36968129146E+02  0.30757485615E+03 -0.60436013672E+02  0.32546358130E+03  0.79404636509E+02 0.  0.
        254    2    1    2    0    0  0.36968129146E+02 -0.30757485615E+03 -0.43994235381E+03  0.10530088728E+04  0.90515715592E+03 0.  0.
         23    2    4    4    0    0 -0.36623168464E+03 -0.37976841594E+03 -0.28114719884E+03  0.60480020644E+03  0.91596100995E+02 0.  0.
         23    2    4    4    0    0  0.40319981378E+03  0.72193559790E+02 -0.15879515497E+03  0.44820866640E+03  0.88843162304E+02 0.  0.
          4    1    3    3  502    0  0.11422580400E+02  0.63318573550E+02  0.13445513153E+02  0.65730502229E+02  0.00000000000E+00 0. -1.
         -3    1    3    3    0  502 -0.48390709547E+02  0.24425628260E+03 -0.73881526825E+02  0.25973307907E+03  0.00000000000E+00 0.  1.
         13    1    5    5    0    0 -0.21963826638E+03 -0.16486091993E+03 -0.15992728904E+03  0.31779998231E+03  0.00000000000E+00 0.  1.
        -13    1    5    5    0    0 -0.14659341826E+03 -0.21490749601E+03 -0.12121990980E+03  0.28700022413E+03  0.00000000000E+00 0. -1.
          2    1    6    6  503    0  0.19451908739E+03  0.72773100295E+02 -0.10492465516E+03  0.23268601751E+03  0.00000000000E+00 0. -1.
         -2    1    6    6    0  503  0.20868072639E+03 -0.57954050547E+00 -0.53870499809E+02  0.21552264889E+03  0.00000000000E+00 0.  1.
<mgrwt>
<rscale>  0 0.12844484E+04</rscale>
<asrwt>0</asrwt>
<pdfrwt beam="1">  1        2 0.67545700E-01 0.12844484E+04</pdfrwt>
<pdfrwt beam="2">  1       -1 0.14452698E+00 0.12844484E+04</pdfrwt>
<totfact> 0.30954381E+01</totfact>
</mgrwt>
</event>
<event>
12    7  0.1572140E-007  0.1572274E+04  0.7818608E-02  0.8837765E-01
          2   -1    0    0  501    0  0.00000000000E+00  0.00000000000E+00  0.28532949473E+04  0.28532949473E+04  0.00000000000E+00 0. -1.
         -1   -1    0    0    0  501 -0.00000000000E+00 -0.00000000000E+00 -0.21659567971E+03  0.21659567971E+03  0.00000000000E+00 0.  1.
         24    2    1    2    0    0  0.61966756660E+02 -0.15862456680E+03 -0.78465641407E+02  0.20396761464E+03  0.80276390165E+02 0.  0.
        254    2    1    2    0    0 -0.61966756660E+02  0.15862456680E+03  0.27151649090E+04  0.28659230124E+04  0.90132824079E+03 0.  0.
         23    2    4    4    0    0  0.39693391624E+03  0.14305388449E+03  0.10228406103E+04  0.11100905249E+04  0.89872752680E+02 0.  0.
         23    2    4    4    0    0 -0.45890067290E+03  0.15570682310E+02  0.16923242987E+04  0.17558324874E+04  0.90299049549E+02 0.  0.
          2    1    3    3  502    0 -0.16025465879E+02 -0.11395825013E+02  0.32321530192E+00  0.19666846531E+02  0.00000000000E+00 0. -1.
         -1    1    3    3    0  502  0.77992222539E+02 -0.14722874179E+03 -0.78788856709E+02  0.18430076811E+03  0.00000000000E+00 0.  1.
         13    1    5    5    0    0  0.71755943370E+02  0.65304306274E+02  0.23493720343E+03  0.25418311781E+03  0.00000000000E+00 0. -1.
        -13    1    5    5    0    0  0.32517797287E+03  0.77749578216E+02  0.78790340689E+03  0.85590740711E+03  0.00000000000E+00 0.  1.
          4    1    6    6  503    0 -0.16196036636E+03  0.42051540231E+02  0.52374562170E+03  0.54982630763E+03  0.00000000000E+00 0. -1.
         -4    1    6    6    0  503 -0.29694030653E+03 -0.26480857922E+02  0.11685786770E+04  0.12060061798E+04  0.00000000000E+00 0.  1.
<mgrwt>
<rscale>  0 0.15722740E+04</rscale>
<asrwt>0</asrwt>
<pdfrwt beam="1">  1        2 0.43896843E+00 0.15722740E+04</pdfrwt>
<pdfrwt beam="2">  1       -1 0.33322414E-01 0.15722740E+04</pdfrwt>
<totfact> 0.19995161E+01</totfact>
</mgrwt>
</event>
<event>
12    7  0.1572140E-007  0.1491387E+04  0.7818608E-02  0.8890201E-01
          2   -1    0    0  501    0  0.00000000000E+00  0.00000000000E+00  0.12881138503E+04  0.12881138503E+04  0.00000000000E+00 0. -1.
         -1   -1    0    0    0  501 -0.00000000000E+00 -0.00000000000E+00 -0.43168453901E+03  0.43168453901E+03  0.00000000000E+00 0.  1.
         24    2    1    2    0    0 -0.31772913190E+03 -0.12338492819E+03  0.63460547635E+03  0.72470907277E+03  0.79394507196E+02 0.  0.
        254    2    1    2    0    0  0.31772913190E+03  0.12338492819E+03  0.22182383493E+03  0.99508931655E+03  0.90819672561E+03 0.  0.
         23    2    4    4    0    0  0.49383154225E+03 -0.12101112600E+03 -0.11969291214E+03  0.52991498063E+03  0.89276025591E+02 0.  0.
         23    2    4    4    0    0 -0.17610241036E+03  0.24439605418E+03  0.34151674707E+03  0.46517433591E+03  0.94931470151E+02 0.  0.
          4    1    3    3  502    0 -0.25738334912E+03 -0.11768810016E+03  0.46226455468E+03  0.54201955301E+03  0.00000000000E+00 0. -1.
         -3    1    3    3    0  502 -0.60345782776E+02 -0.56968280268E+01  0.17234092167E+03  0.18268951976E+03  0.00000000000E+00 0.  1.
         13    1    5    5    0    0  0.49670020024E+03 -0.11589548088E+03 -0.11627912608E+03  0.52312874760E+03  0.00000000000E+00 0.  1.
        -13    1    5    5    0    0 -0.28686579822E+01 -0.51156451158E+01 -0.34137860553E+01  0.67862330347E+01  0.00000000000E+00 0. -1.
          3    1    6    6  503    0  0.70201241177E+01  0.64815219695E+01  0.34345481140E+02  0.35649745362E+02  0.00000000000E+00 0. -1.
         -3    1    6    6    0  503 -0.18312253448E+03  0.23791453222E+03  0.30717126593E+03  0.42952459055E+03  0.00000000000E+00 0.  1.
<mgrwt>
<rscale>  0 0.14913871E+04</rscale>
<asrwt>0</asrwt>
<pdfrwt beam="1">  1        2 0.19817136E+00 0.14913871E+04</pdfrwt>
<pdfrwt beam="2">  1       -1 0.66413006E-01 0.14913871E+04</pdfrwt>
<totfact> 0.42535539E+01</totfact>
</mgrwt>
</event>
<event>
12    7  0.1572140E-007  0.3627941E+04  0.7818608E-02  0.8084121E-01
          2   -1    0    0  501    0  0.00000000000E+00  0.00000000000E+00  0.18708432947E+04  0.18708432947E+04  0.00000000000E+00 0. -1.
         -3   -1    0    0    0  501 -0.00000000000E+00 -0.00000000000E+00 -0.17588270455E+04  0.17588270455E+04  0.00000000000E+00 0.  1.
         24    2    1    2    0    0  0.12416932010E+04 -0.76985008296E+02 -0.11078818157E+04  0.16677126302E+04  0.78323704175E+02 0.  0.
        254    2    1    2    0    0 -0.12416932010E+04  0.76985008296E+02  0.12198980649E+04  0.19619577099E+04  0.90188584093E+03 0.  0.
         23    2    4    4    0    0 -0.94149426994E+03 -0.17212027055E+03  0.38604323589E+03  0.10363603795E+04  0.94744964704E+02 0.  0.
         23    2    4    4    0    0 -0.30019893102E+03  0.24910527884E+03  0.83385482899E+03  0.92559733045E+03  0.96144184233E+02 0.  0.
          2    1    3    3  502    0  0.15967174577E+03 -0.21668486288E+02 -0.17626584331E+03  0.23881841892E+03  0.00000000000E+00 0. -1.
         -1    1    3    3    0  502  0.10820214552E+04 -0.55316522008E+02 -0.93161597241E+03  0.14288942113E+04  0.00000000000E+00 0.  1.
         13    1    5    5    0    0 -0.61286296577E+03 -0.68224649429E+02  0.26302015840E+03  0.67039929992E+03  0.00000000000E+00 0.  1.
        -13    1    5    5    0    0 -0.32863130417E+03 -0.10389562112E+03  0.12302307749E+03  0.36596107957E+03  0.00000000000E+00 0. -1.
          1    1    6    6  503    0  0.20873833162E+01  0.25253909151E+02  0.61555523727E+02  0.66567256199E+02  0.00000000000E+00 0. -1.
         -1    1    6    6    0  503 -0.30228631434E+03  0.22385136969E+03  0.77229930527E+03  0.85903007425E+03  0.00000000000E+00 0.  1.
<mgrwt>
<rscale>  0 0.36279414E+04</rscale>
<asrwt>0</asrwt>
<pdfrwt beam="1">  1        2 0.28782204E+00 0.36279414E+04</pdfrwt>
<pdfrwt beam="2">  1       -3 0.27058878E+00 0.36279414E+04</pdfrwt>
<totfact> 0.22464856E-01</totfact>
</mgrwt>
</event>
<event>
12    7  0.1572140E-007  0.1861524E+04  0.7818608E-02  0.8674249E-01
         -1   -1    0    0    0  501 -0.00000000000E+00  0.00000000000E+00  0.26030142935E+03  0.26030142935E+03  0.00000000000E+00 0.  1.
          2   -1    0    0  501    0  0.00000000000E+00 -0.00000000000E+00 -0.33281319527E+04  0.33281319527E+04  0.00000000000E+00 0. -1.
         24    2    1    2    0    0  0.52158944695E+03  0.75365999871E+01 -0.21065575338E+04  0.21716324981E+04  0.79314009827E+02 0.  0.
        254    2    1    2    0    0 -0.52158944695E+03 -0.75365999871E+01 -0.96127298962E+03  0.14168008840E+04  0.90064789615E+03 0.  0.
         23    2    4    4    0    0 -0.49494242255E+03 -0.90251122955E+02 -0.69081329676E+02  0.51575234258E+03  0.90083194498E+02 0.  0.
         23    2    4    4    0    0 -0.26647024405E+02  0.82714522968E+02 -0.89219165995E+03  0.90104854143E+03  0.91272995593E+02 0.  0.
          2    1    3    3  502    0  0.47608168951E+03  0.27981147715E+02 -0.18682032322E+04  0.19281130767E+04  0.00000000000E+00 0. -1.
         -1    1    3    3    0  502  0.45507757443E+02 -0.20444547728E+02 -0.23835430154E+03  0.24351942137E+03  0.00000000000E+00 0.  1.
         13    1    5    5    0    0 -0.38886755525E+03 -0.10439120463E+03 -0.38594429083E+02  0.40448118508E+03  0.00000000000E+00 0. -1.
        -13    1    5    5    0    0 -0.10607486730E+03  0.14140081675E+02 -0.30486900593E+02  0.11127115749E+03  0.00000000000E+00 0.  1.
          1    1    6    6  503    0  0.12228049077E+02  0.35486602004E+02 -0.65571936575E+03  0.65679274564E+03  0.00000000000E+00 0. -1.
         -1    1    6    6    0  503 -0.38875073482E+02  0.47227920963E+02 -0.23647229419E+03  0.24425579579E+03  0.00000000000E+00 0.  1.
<mgrwt>
<rscale>  0 0.18615236E+04</rscale>
<asrwt>0</asrwt>
<pdfrwt beam="1">  1        2 0.51202028E+00 0.18615236E+04</pdfrwt>
<pdfrwt beam="2">  1       -1 0.40046375E-01 0.18615236E+04</pdfrwt>
<totfact> 0.69727695E+00</totfact>
</mgrwt>
</event>
<event>
12    7  0.1572140E-007  0.2001090E+04  0.7818608E-02  0.8606111E-01
         -1   -1    0    0    0  501 -0.00000000000E+00  0.00000000000E+00  0.14232238819E+04  0.14232238819E+04  0.00000000000E+00 0.  1.
          2   -1    0    0  501    0  0.00000000000E+00 -0.00000000000E+00 -0.70339637339E+03  0.70339637339E+03  0.00000000000E+00 0. -1.
         24    2    1    2    0    0  0.10227932949E+03 -0.43262256875E+02  0.11254484804E+04  0.11335973321E+04  0.77948348923E+02 0.  0.
        254    2    1    2    0    0 -0.10227932949E+03  0.43262256875E+02 -0.40562097198E+03  0.99302292315E+03  0.89957404858E+03 0.  0.
         23    2    4    4    0    0 -0.31793051607E+03  0.36918957845E+03 -0.29688399556E+03  0.57750126202E+03  0.89369138598E+02 0.  0.
         23    2    4    4    0    0  0.21565118657E+03 -0.32592732157E+03 -0.10873697643E+03  0.41552166113E+03  0.90002597796E+02 0.  0.
          2    1    3    3  502    0 -0.35854865113E-01  0.12132110822E+02  0.27006004833E+03  0.27033242332E+03  0.00000000000E+00 0. -1.
         -1    1    3    3    0  502  0.10231518436E+03 -0.55394367697E+02  0.85538843212E+03  0.86326490878E+03  0.00000000000E+00 0.  1.
         13    1    5    5    0    0 -0.19604251079E+03  0.24137493731E+03 -0.23710984648E+03  0.39104425030E+03  0.00000000000E+00 0. -1.
        -13    1    5    5    0    0 -0.12188800528E+03  0.12781464114E+03 -0.59774149079E+02  0.18645701172E+03  0.00000000000E+00 0.  1.
          2    1    6    6  503    0  0.19953872372E+03 -0.32833117685E+03 -0.99884875226E+02  0.39698117367E+03  0.00000000000E+00 0. -1.
         -2    1    6    6    0  503  0.16112462858E+02  0.24038552757E+01 -0.88521012012E+01  0.18540487459E+02  0.00000000000E+00 0.  1.
<mgrwt>
<rscale>  0 0.20010902E+04</rscale>
<asrwt>0</asrwt>
<pdfrwt beam="1">  1        2 0.10821483E+00 0.20010902E+04</pdfrwt>
<pdfrwt beam="2">  1       -1 0.21895752E+00 0.20010902E+04</pdfrwt>
<totfact> 0.48290882E+00</totfact>
</mgrwt>
</event>
<event>
12    7  0.1572140E-007  0.1407730E+04  0.7818608E-02  0.8948242E-01
          2   -1    0    0  501    0  0.00000000000E+00  0.00000000000E+00  0.18503184957E+04  0.18503184957E+04  0.00000000000E+00 0. -1.
         -1   -1    0    0    0  501 -0.00000000000E+00 -0.00000000000E+00 -0.26775187873E+03  0.26775187873E+03  0.00000000000E+00 0.  1.
         24    2    1    2    0    0 -0.38592255319E+03 -0.14545846372E+03  0.48137782482E+03  0.63906759444E+03  0.81168949109E+02 0.  0.
        254    2    1    2    0    0  0.38592255319E+03  0.14545846372E+03  0.11011887921E+04  0.14790027800E+04  0.89707195115E+03 0.  0.
         23    2    4    4    0    0 -0.19597508591E+03 -0.11258592812E+03  0.59047910242E+02  0.25454619117E+03  0.10112013761E+03 0.  0.
         23    2    4    4    0    0  0.58189763910E+03  0.25804439184E+03  0.10421408819E+04  0.12244565888E+04  0.89691413296E+02 0.  0.
          4    1    3    3  502    0 -0.34087753474E+03 -0.14612317872E+03  0.45446844209E+03  0.58659273939E+03  0.00000000000E+00 0. -1.
         -3    1    3    3    0  502 -0.45045018450E+02  0.66471499549E+00  0.26909382732E+02  0.52474855047E+02  0.00000000000E+00 0.  1.
         13    1    5    5    0    0 -0.63072769829E+02  0.51660378224E+01 -0.99255810685E+01  0.64057625621E+02  0.00000000000E+00 0. -1.
        -13    1    5    5    0    0 -0.13290231608E+03 -0.11775196594E+03  0.68973491310E+02  0.19048856555E+03  0.00000000000E+00 0.  1.
          2    1    6    6  503    0  0.24522763465E+03  0.95388547472E+02  0.51294988545E+03  0.57650078298E+03  0.00000000000E+00 0. -1.
         -2    1    6    6    0  503  0.33667000444E+03  0.16265584437E+03  0.52919099644E+03  0.64795580583E+03  0.00000000000E+00 0.  1.
<mgrwt>
<rscale>  0 0.14077304E+04</rscale>
<asrwt>0</asrwt>
<pdfrwt beam="1">  1        2 0.28466438E+00 0.14077304E+04</pdfrwt>
<pdfrwt beam="2">  1       -1 0.41192598E-01 0.14077304E+04</pdfrwt>
<totfact> 0.51752060E+01</totfact>
</mgrwt>
</event>
<event>
12    7  0.1572140E-007  0.1132368E+04  0.7818608E-02  0.9174206E-01
          2   -1    0    0  501    0  0.00000000000E+00  0.00000000000E+00  0.95892068564E+03  0.95892068564E+03  0.00000000000E+00 0. -1.
         -1   -1    0    0    0  501 -0.00000000000E+00 -0.00000000000E+00 -0.33429701953E+03  0.33429701953E+03  0.00000000000E+00 0.  1.
         24    2    1    2    0    0  0.11481880836E+03  0.78985932196E+02 -0.44550992654E+02  0.16707492319E+03  0.80666614995E+02 0.  0.
        254    2    1    2    0    0 -0.11481880836E+03 -0.78985932196E+02  0.66917465876E+03  0.11261427820E+04  0.89497525398E+03 0.  0.
         23    2    4    4    0    0 -0.38740636482E+03 -0.16955301843E+03  0.44808893407E+02  0.43335052773E+03  0.83384203509E+02 0.  0.
         23    2    4    4    0    0  0.27258755646E+03  0.90567086231E+02  0.62436576536E+03  0.69279225425E+03  0.87304785385E+02 0.  0.
          4    1    3    3  502    0  0.20548468025E+02  0.26979425651E+02  0.22072857503E+02  0.40464057940E+02  0.00000000000E+00 0. -1.
         -3    1    3    3    0  502  0.94270340338E+02  0.52006506545E+02 -0.66623850157E+02  0.12661086525E+03  0.00000000000E+00 0.  1.
         13    1    5    5    0    0 -0.38564335733E+03 -0.15678708864E+03  0.36232604846E+02  0.41787054439E+03  0.00000000000E+00 0. -1.
        -13    1    5    5    0    0 -0.17630074941E+01 -0.12765929788E+02  0.85762885607E+01  0.15479983342E+02  0.00000000000E+00 0.  1.
          2    1    6    6  503    0  0.60150147407E+02  0.34905359912E+02  0.81197711459E+02  0.10690880567E+03  0.00000000000E+00 0.  1.
         -2    1    6    6    0  503  0.21243740905E+03  0.55661726318E+02  0.54316805390E+03  0.58588344858E+03  0.00000000000E+00 0. -1.
<mgrwt>
<rscale>  0 0.11323680E+04</rscale>
<asrwt>0</asrwt>
<pdfrwt beam="1">  1        2 0.14752626E+00 0.11323680E+04</pdfrwt>
<pdfrwt beam="2">  1       -1 0.51430311E-01 0.11323680E+04</pdfrwt>
<totfact> 0.11512311E+02</totfact>
</mgrwt>
</event>
<event>
12    7  0.1572140E-007  0.1877385E+04  0.7818608E-02  0.8666196E-01
          2   -1    0    0  501    0  0.00000000000E+00  0.00000000000E+00  0.25764357645E+04  0.25764357645E+04  0.00000000000E+00 0. -1.
         -1   -1    0    0    0  501 -0.00000000000E+00 -0.00000000000E+00 -0.34200108921E+03  0.34200108921E+03  0.00000000000E+00 0.  1.
         24    2    1    2    0    0  0.68852942500E+03  0.82899726150E+02  0.10513110057E+04  0.12619765682E+04  0.79905533966E+02 0.  0.
        254    2    1    2    0    0 -0.68852942500E+03 -0.82899726150E+02  0.11831236696E+04  0.16564602855E+04  0.92905001275E+03 0.  0.
         23    2    4    4    0    0  0.41989595221E+02 -0.32801940926E+03  0.17776735324E+03  0.38645380935E+03  0.91572135094E+02 0.  0.
         23    2    4    4    0    0 -0.73051902022E+03  0.24511968311E+03  0.10053563164E+04  0.12700064762E+04  0.91833701040E+02 0.  0.
          2    1    3    3  502    0  0.76459479723E+02 -0.15500022669E+02  0.10953928030E+03  0.13448106436E+03  0.00000000000E+00 0. -1.
         -1    1    3    3    0  502  0.61206994528E+03  0.98399748819E+02  0.94177172537E+03  0.11274955038E+04  0.00000000000E+00 0.  1.
         13    1    5    5    0    0  0.85624975829E+01 -0.29647691816E+03  0.14602706570E+03  0.33059912777E+03  0.00000000000E+00 0.  1.
        -13    1    5    5    0    0  0.33427097638E+02 -0.31542491106E+02  0.31740287544E+02  0.55854681586E+02  0.00000000000E+00 0. -1.
          2    1    6    6  503    0 -0.63697440790E+03  0.24495983946E+03  0.88323029193E+03  0.11161708954E+04  0.00000000000E+00 0. -1.
         -2    1    6    6    0  503 -0.93544612322E+02  0.15984365787E+00  0.12212602447E+03  0.15383558073E+03  0.00000000000E+00 0.  1.
<mgrwt>
<rscale>  0 0.18773852E+04</rscale>
<asrwt>0</asrwt>
<pdfrwt beam="1">  1        2 0.39637472E+00 0.18773852E+04</pdfrwt>
<pdfrwt beam="2">  1       -1 0.52615554E-01 0.18773852E+04</pdfrwt>
<totfact> 0.12230395E+01</totfact>
</mgrwt>
</event>
<event>
12    7  0.1572140E-007  0.3201926E+04  0.7818608E-02  0.8188309E-01
          2   -1    0    0  501    0  0.00000000000E+00  0.00000000000E+00  0.19785403336E+04  0.19785403336E+04  0.00000000000E+00 0. -1.
         -1   -1    0    0    0  501 -0.00000000000E+00 -0.00000000000E+00 -0.12954409701E+04  0.12954409701E+04  0.00000000000E+00 0.  1.
         24    2    1    2    0    0  0.77423423408E+03  0.99050408061E+03 -0.46939934431E+03  0.13443232635E+04  0.79575809457E+02 0.  0.
        254    2    1    2    0    0 -0.77423423408E+03 -0.99050408061E+03  0.11524987078E+04  0.19296580402E+04  0.90265713194E+03 0.  0.
         23    2    4    4    0    0  0.43696573011E+02 -0.50644215586E+03  0.13516709052E+03  0.53403306616E+03  0.92347851447E+02 0.  0.
         23    2    4    4    0    0 -0.81793080709E+03 -0.48406192474E+03  0.10173316172E+04  0.13956249741E+04  0.97358597871E+02 0.  0.
          2    1    3    3  502    0  0.34813501484E+03  0.46654797285E+03 -0.25735548733E+03  0.63647218823E+03  0.00000000000E+00 0. -1.
         -1    1    3    3    0  502  0.42609921924E+03  0.52395610775E+03 -0.21204385697E+03  0.70785107528E+03  0.00000000000E+00 0.  1.
         13    1    5    5    0    0  0.72764114716E+01 -0.36850615769E+03  0.62188736166E+02  0.37378760457E+03  0.00000000000E+00 0.  1.
        -13    1    5    5    0    0  0.36420161539E+02 -0.13793599817E+03  0.72978354357E+02  0.16024546160E+03  0.00000000000E+00 0. -1.
          2    1    6    6  503    0 -0.27813888360E+03 -0.11216586276E+03  0.31767522316E+03  0.43687523019E+03  0.00000000000E+00 0. -1.
         -2    1    6    6    0  503 -0.53979192350E+03 -0.37189606198E+03  0.69965639407E+03  0.95874974387E+03  0.00000000000E+00 0.  1.
<mgrwt>
<rscale>  0 0.32019258E+04</rscale>
<asrwt>0</asrwt>
<pdfrwt beam="1">  1        2 0.30439082E+00 0.32019258E+04</pdfrwt>
<pdfrwt beam="2">  1       -1 0.19929861E+00 0.32019258E+04</pdfrwt>
<totfact> 0.10009871E+00</totfact>
</mgrwt>
</event>
<event>
12    7  0.1572140E-007  0.1467171E+04  0.7818608E-02  0.8906582E-01
         -1   -1    0    0    0  501 -0.00000000000E+00  0.00000000000E+00  0.53412137384E+03  0.53412137384E+03  0.00000000000E+00 0.  1.
          2   -1    0    0  501    0  0.00000000000E+00 -0.00000000000E+00 -0.10075380026E+04  0.10075380026E+04  0.00000000000E+00 0. -1.
         24    2    1    2    0    0 -0.40868822040E+03 -0.58415053631E+02 -0.30763779728E+03  0.52119159221E+03  0.81001737587E+02 0.  0.
        254    2    1    2    0    0  0.40868822040E+03  0.58415053631E+02 -0.16577883150E+03  0.10204677843E+04  0.91838635537E+03 0.  0.
         23    2    4    4    0    0 -0.16511465125E+03  0.27666256956E+03  0.93398626733E+02  0.34784055160E+03  0.92003915173E+02 0.  0.
         23    2    4    4    0    0  0.57380287165E+03 -0.21824751593E+03 -0.25917745823E+03  0.67262723265E+03  0.91502598478E+02 0.  0.
          2    1    3    3  502    0 -0.31914854957E+03 -0.32622006550E+02 -0.27473183938E+03  0.42237137163E+03  0.00000000000E+00 0. -1.
         -1    1    3    3    0  502 -0.89539670832E+02 -0.25793047081E+02 -0.32905957897E+02  0.98820220580E+02  0.00000000000E+00 0.  1.
         13    1    5    5    0    0 -0.15689674914E+03  0.20063954125E+03  0.48848500880E+02  0.25934338519E+03  0.00000000000E+00 0. -1.
        -13    1    5    5    0    0 -0.82179021092E+01  0.76023028308E+02  0.44550125853E+02  0.88497166405E+02  0.00000000000E+00 0.  1.
          1    1    6    6  503    0  0.37313148231E+03 -0.94603638792E+02 -0.16472455880E+03  0.41870172179E+03  0.00000000000E+00 0. -1.
         -1    1    6    6    0  503  0.20067138934E+03 -0.12364387713E+03 -0.94452899434E+02  0.25392551086E+03  0.00000000000E+00 0.  1.
<mgrwt>
<rscale>  0 0.14671709E+04</rscale>
<asrwt>0</asrwt>
<pdfrwt beam="1">  1        2 0.15500585E+00 0.14671709E+04</pdfrwt>
<pdfrwt beam="2">  1       -1 0.82172520E-01 0.14671709E+04</pdfrwt>
<totfact> 0.40551334E+01</totfact>
</mgrwt>
</event>
<event>
12    7  0.1572140E-007  0.1114345E+04  0.7818608E-02  0.9191322E-01
          2   -1    0    0  501    0  0.00000000000E+00  0.00000000000E+00  0.32328670445E+03  0.32328670445E+03  0.00000000000E+00 0. -1.
         -1   -1    0    0    0  501 -0.00000000000E+00 -0.00000000000E+00 -0.96026626742E+03  0.96026626742E+03  0.00000000000E+00 0.  1.
         24    2    1    2    0    0  0.16000760252E+03  0.42674402338E+00 -0.17433646218E+02  0.17985207928E+03  0.80251002644E+02 0.  0.
        254    2    1    2    0    0 -0.16000760252E+03 -0.42674402338E+00 -0.61954591676E+03  0.11037008926E+04  0.89928632946E+03 0.  0.
         23    2    4    4    0    0 -0.20923839684E+03  0.42130119852E+03 -0.30740810927E+03  0.56864245302E+03  0.87057952836E+02 0.  0.
         23    2    4    4    0    0  0.49230794315E+02 -0.42172794255E+03 -0.31213780749E+03  0.53505843956E+03  0.92625019552E+02 0.  0.
          4    1    3    3  502    0  0.15068984434E+03 -0.75304743827E+01  0.85544791463E+01  0.15112020496E+03  0.00000000000E+00 0. -1.
         -3    1    3    3    0  502  0.93177581805E+01  0.79572184061E+01 -0.25988125364E+02  0.28731874325E+02  0.00000000000E+00 0.  1.
         13    1    5    5    0    0 -0.28359166890E+02  0.12288172931E+03 -0.11218117626E+03  0.16878619035E+03  0.00000000000E+00 0. -1.
        -13    1    5    5    0    0 -0.18087922995E+03  0.29841946921E+03 -0.19522693301E+03  0.39985626267E+03  0.00000000000E+00 0.  1.
          4    1    6    6  503    0 -0.27417202713E+02 -0.11643106262E+03 -0.78940667361E+02  0.14331616905E+03  0.00000000000E+00 0. -1.
         -4    1    6    6    0  503  0.76647997028E+02 -0.30529687993E+03 -0.23319714013E+03  0.39174227051E+03  0.00000000000E+00 0.  1.
<mgrwt>
<rscale>  0 0.11143452E+04</rscale>
<asrwt>0</asrwt>
<pdfrwt beam="1">  1        2 0.49736416E-01 0.11143452E+04</pdfrwt>
<pdfrwt beam="2">  1       -1 0.14773327E+00 0.11143452E+04</pdfrwt>
<totfact> 0.41726868E+01</totfact>
</mgrwt>
</event>
<event>
12    7  0.1572140E-007  0.3136988E+04  0.7818608E-02  0.8205659E-01
         -1   -1    0    0    0  501 -0.00000000000E+00  0.00000000000E+00  0.89037273780E+03  0.89037273780E+03  0.00000000000E+00 0.  1.
          2   -1    0    0  501    0  0.00000000000E+00 -0.00000000000E+00 -0.27630831769E+04  0.27630831769E+04  0.00000000000E+00 0. -1.
         24    2    1    2    0    0 -0.85133454058E+03  0.58744946535E+03 -0.20246897500E+04  0.22749266242E+04  0.77815085363E+02 0.  0.
        254    2    1    2    0    0  0.85133454058E+03 -0.58744946535E+03  0.15197931086E+03  0.13785292905E+04  0.89854210785E+03 0.  0.
         23    2    4    4    0    0 -0.16070602556E+03 -0.64713733264E+02  0.12836687504E+03  0.23555284988E+03  0.94830356712E+02 0.  0.
         23    2    4    4    0    0  0.10120405661E+04 -0.52273573208E+03  0.23612435819E+02  0.11429764406E+04  0.91426711822E+02 0.  0.
          2    1    3    3  502    0 -0.80217794416E+03  0.56364162143E+03 -0.18801520622E+04  0.21204134287E+04  0.00000000000E+00 0. -1.
         -1    1    3    3    0  502 -0.49156596420E+02  0.23807843912E+02 -0.14453768778E+03  0.15451319553E+03  0.00000000000E+00 0.  1.
         13    1    5    5    0    0 -0.50566242064E+02 -0.33164973693E+02 -0.38606612162E+01  0.60595090738E+02  0.00000000000E+00 0.  1.
        -13    1    5    5    0    0 -0.11013978350E+03 -0.31548759571E+02  0.13222753626E+03  0.17495775914E+03  0.00000000000E+00 0. -1.
          4    1    6    6  503    0  0.15957998856E+03 -0.12121787632E+03  0.21609897534E+00  0.20039858529E+03  0.00000000000E+00 0. -1.
         -4    1    6    6    0  503  0.85246057758E+03 -0.40151785577E+03  0.23396336843E+02  0.94257785535E+03  0.00000000000E+00 0.  1.
<mgrwt>
<rscale>  0 0.31369883E+04</rscale>
<asrwt>0</asrwt>
<pdfrwt beam="1">  1        2 0.42508971E+00 0.31369883E+04</pdfrwt>
<pdfrwt beam="2">  1       -1 0.13698042E+00 0.31369883E+04</pdfrwt>
<totfact> 0.10381780E+00</totfact>
</mgrwt>
</event>
<event>
12    7  0.1572140E-007  0.1797382E+04  0.7818608E-02  0.8707693E-01
         -1   -1    0    0    0  501 -0.00000000000E+00  0.00000000000E+00  0.43542623389E+03  0.43542623389E+03  0.00000000000E+00 0.  1.
          2   -1    0    0  501    0  0.00000000000E+00 -0.00000000000E+00 -0.18548380023E+04  0.18548380023E+04  0.00000000000E+00 0. -1.
         24    2    1    2    0    0  0.27591007980E+02  0.66890540119E+03 -0.50575233981E+03  0.84279327079E+03  0.79494456405E+02 0.  0.
        254    2    1    2    0    0 -0.27591007980E+02 -0.66890540119E+03 -0.91365942857E+03  0.14474709654E+04  0.90122302717E+03 0.  0.
         23    2    4    4    0    0 -0.27902759974E+03 -0.34249328584E+03 -0.11530855600E+02  0.45142955670E+03  0.92182600147E+02 0.  0.
         23    2    4    4    0    0  0.25143659176E+03 -0.32641211535E+03 -0.90212857297E+03  0.99604140867E+03  0.92180783689E+02 0.  0.
          2    1    3    3  502    0  0.22430348328E+02  0.55236198132E+03 -0.45321977358E+03  0.71485316122E+03  0.00000000000E+00 0. -1.
         -1    1    3    3    0  502  0.51606596520E+01  0.11654341987E+03 -0.52532566229E+02  0.12794010957E+03  0.00000000000E+00 0.  1.
         13    1    5    5    0    0 -0.13176436450E+03 -0.93503384738E+02 -0.13622375874E+02  0.16214283775E+03  0.00000000000E+00 0.  1.
        -13    1    5    5    0    0 -0.14726323524E+03 -0.24898990110E+03  0.20915202741E+01  0.28928671895E+03  0.00000000000E+00 0. -1.
          3    1    6    6  503    0  0.25170143174E+03 -0.30635777009E+03 -0.88464091048E+03  0.96943191330E+03  0.00000000000E+00 0. -1.
         -3    1    6    6    0  503 -0.26483997706E+00 -0.20054345266E+02 -0.17487662496E+02  0.26609495370E+02  0.00000000000E+00 0.  1.
<mgrwt>
<rscale>  0 0.17973816E+04</rscale>
<asrwt>0</asrwt>
<pdfrwt beam="1">  1        2 0.28535969E+00 0.17973816E+04</pdfrwt>
<pdfrwt beam="2">  1       -1 0.66988652E-01 0.17973816E+04</pdfrwt>
<totfact> 0.19530007E+01</totfact>
</mgrwt>
</event>
<event>
12    7  0.1572140E-007  0.3162198E+04  0.7818608E-02  0.8198873E-01
         -1   -1    0    0    0  501 -0.00000000000E+00  0.00000000000E+00  0.17918840309E+04  0.17918840309E+04  0.00000000000E+00 0.  1.
          2   -1    0    0  501    0  0.00000000000E+00 -0.00000000000E+00 -0.13951088988E+04  0.13951088988E+04  0.00000000000E+00 0. -1.
         24    2    1    2    0    0  0.20477623932E+03  0.12690021005E+04 -0.49185177003E+03  0.13785815797E+04  0.79179348371E+02 0.  0.
        254    2    1    2    0    0 -0.20477623932E+03 -0.12690021005E+04  0.88862690214E+03  0.18084113500E+04  0.91016163428E+03 0.  0.
         23    2    4    4    0    0 -0.46598375314E+03 -0.57970731158E+03  0.15537619564E+03  0.76539807136E+03  0.92146731738E+02 0.  0.
         23    2    4    4    0    0  0.26120751383E+03 -0.68929478887E+03  0.73325070650E+03  0.10430132787E+04  0.82845818450E+02 0.  0.
          4    1    3    3  502    0  0.59788271032E+02  0.58011277352E+03 -0.20045483983E+03  0.61667463883E+03  0.00000000000E+00 0. -1.
         -3    1    3    3    0  502  0.14498796828E+03  0.68888932693E+03 -0.29139693019E+03  0.76190694092E+03  0.00000000000E+00 0.  1.
         13    1    5    5    0    0 -0.41425130872E+03 -0.53166278367E+03  0.11400688149E+03  0.68356933177E+03  0.00000000000E+00 0. -1.
        -13    1    5    5    0    0 -0.51732444419E+02 -0.48044527919E+02  0.41369314155E+02  0.81828739586E+02  0.00000000000E+00 0.  1.
          2    1    6    6  503    0  0.21282118164E+03 -0.60057423290E+03  0.66552428720E+03  0.92136032117E+03  0.00000000000E+00 0. -1.
         -2    1    6    6    0  503  0.48386332187E+02 -0.88720555971E+02  0.67726419299E+02  0.12165295749E+03  0.00000000000E+00 0.  1.
<mgrwt>
<rscale>  0 0.31621976E+04</rscale>
<asrwt>0</asrwt>
<pdfrwt beam="1">  1        2 0.21463214E+00 0.31621976E+04</pdfrwt>
<pdfrwt beam="2">  1       -1 0.27567447E+00 0.31621976E+04</pdfrwt>
<totfact> 0.66502859E-01</totfact>
</mgrwt>
</event>
<event>
12    7  0.1572140E-007  0.1781596E+04  0.7818608E-02  0.8716148E-01
         -3   -1    0    0    0  501 -0.00000000000E+00  0.00000000000E+00  0.27564955476E+03  0.27564955476E+03  0.00000000000E+00 0.  1.
          2   -1    0    0  501    0  0.00000000000E+00 -0.00000000000E+00 -0.28787326744E+04  0.28787326744E+04  0.00000000000E+00 0. -1.
         24    2    1    2    0    0  0.10500038045E+03  0.64486605951E+03 -0.76501098907E+03  0.10092336621E+04  0.80208832289E+02 0.  0.
        254    2    1    2    0    0 -0.10500038045E+03 -0.64486605951E+03 -0.18380721306E+04  0.21451485671E+04  0.89234292896E+03 0.  0.
         23    2    4    4    0    0 -0.45279216831E+03 -0.14952127465E+03 -0.68137096307E+03  0.83680659705E+03  0.92744446203E+02 0.  0.
         23    2    4    4    0    0  0.34779178786E+03 -0.49534478486E+03 -0.11567011675E+04  0.13083419700E+04  0.86461181542E+02 0.  0.
          2    1    3    3  502    0  0.35027517951E+02  0.77228472554E+02 -0.76981992038E+02  0.11453117953E+03  0.00000000000E+00 0. -1.
         -1    1    3    3    0  502  0.69972862497E+02  0.56763758696E+03 -0.68802899703E+03  0.89470248260E+03  0.00000000000E+00 0.  1.
         13    1    5    5    0    0 -0.10324923316E+03 -0.34868851711E+01 -0.10676969347E+03  0.14856759391E+03  0.00000000000E+00 0.  1.
        -13    1    5    5    0    0 -0.34954293515E+03 -0.14603438948E+03 -0.57460126960E+03  0.68823900315E+03  0.00000000000E+00 0. -1.
          1    1    6    6  503    0  0.13899643058E+03 -0.27003417507E+03 -0.60161253712E+03  0.67392589225E+03  0.00000000000E+00 0.  1.
         -1    1    6    6    0  503  0.20879535728E+03 -0.22531060979E+03 -0.55508863040E+03  0.63441607775E+03  0.00000000000E+00 0. -1.
<mgrwt>
<rscale>  0 0.17815963E+04</rscale>
<asrwt>0</asrwt>
<pdfrwt beam="1">  1        2 0.44288196E+00 0.17815963E+04</pdfrwt>
<pdfrwt beam="2">  1       -3 0.42407623E-01 0.17815963E+04</pdfrwt>
<totfact> 0.70255620E+00</totfact>
</mgrwt>
</event>
<event>
12    7  0.1572140E-007  0.1755375E+04  0.7818608E-02  0.8730397E-01
         -1   -1    0    0    0  501 -0.00000000000E+00  0.00000000000E+00  0.22897104474E+03  0.22897104474E+03  0.00000000000E+00 0.  1.
          2   -1    0    0  501    0  0.00000000000E+00 -0.00000000000E+00 -0.33643353621E+04  0.33643353621E+04  0.00000000000E+00 0. -1.
         24    2    1    2    0    0  0.40188145415E+02  0.60309790172E+03 -0.16163744150E+04  0.17283652180E+04  0.96114053076E+02 0.  0.
        254    2    1    2    0    0 -0.40188145415E+02 -0.60309790172E+03 -0.15189899024E+04  0.18649411889E+04  0.89740355935E+03 0.  0.
         23    2    4    4    0    0  0.32361528808E+03  0.31262112423E+02 -0.57957226373E+03  0.67089415038E+03  0.92145416497E+02 0.  0.
         23    2    4    4    0    0 -0.36380343349E+03 -0.63436001414E+03 -0.93941763864E+03  0.11940470385E+04  0.92072061782E+02 0.  0.
          4    1    3    3  502    0 -0.77084734366E+01  0.40846872692E+03 -0.10005613505E+04  0.10807539671E+04  0.00000000000E+00 0. -1.
         -3    1    3    3    0  502  0.47896618852E+02  0.19462917480E+03 -0.61581306454E+03  0.64761125086E+03  0.00000000000E+00 0.  1.
         13    1    5    5    0    0  0.32036065153E+03  0.34889852429E+02 -0.52437007944E+03  0.61547723683E+03  0.00000000000E+00 0.  1.
        -13    1    5    5    0    0  0.32546365489E+01 -0.36277400062E+01 -0.55202184295E+02  0.55416913552E+02  0.00000000000E+00 0. -1.
          4    1    6    6  503    0 -0.13562233766E+03 -0.16294448698E+03 -0.23911616583E+03  0.31956355404E+03  0.00000000000E+00 0. -1.
         -4    1    6    6    0  503 -0.22818109583E+03 -0.47141552716E+03 -0.70030147281E+03  0.87448348444E+03  0.00000000000E+00 0.  1.
<mgrwt>
<rscale>  0 0.17553750E+04</rscale>
<asrwt>0</asrwt>
<pdfrwt beam="1">  1        2 0.51759002E+00 0.17553750E+04</pdfrwt>
<pdfrwt beam="2">  1       -1 0.35226317E-01 0.17553750E+04</pdfrwt>
<totfact> 0.84044904E+00</totfact>
</mgrwt>
</event>
<event>
12    7  0.1572140E-007  0.3178957E+04  0.7818608E-02  0.8194397E-01
         -1   -1    0    0    0  501 -0.00000000000E+00  0.00000000000E+00  0.13333047797E+04  0.13333047797E+04  0.00000000000E+00 0.  1.
          2   -1    0    0  501    0  0.00000000000E+00 -0.00000000000E+00 -0.18948714150E+04  0.18948714150E+04  0.00000000000E+00 0. -1.
         24    2    1    2    0    0  0.10819037993E+04  0.76387868174E+03  0.36637629164E+03  0.13766682112E+04  0.83410462460E+02 0.  0.
        254    2    1    2    0    0 -0.10819037993E+04 -0.76387868174E+03 -0.92794292685E+03  0.18515079835E+04  0.90165251973E+03 0.  0.
         23    2    4    4    0    0 -0.37368313278E+03 -0.56676605086E+03 -0.87179957762E+03  0.11087566103E+04  0.91890571789E+02 0.  0.
         23    2    4    4    0    0 -0.70822066648E+03 -0.19711263088E+03 -0.56143349236E+02  0.74275137326E+03  0.89986805266E+02 0.  0.
          4    1    3    3  502    0  0.13235860041E+03  0.67231130744E+02  0.56984377071E+02  0.15901585856E+03  0.00000000000E+00 0. -1.
         -3    1    3    3    0  502  0.94954519885E+03  0.69664755100E+03  0.30939191457E+03  0.12176523526E+04  0.00000000000E+00 0.  1.
         13    1    5    5    0    0 -0.15674671181E+03 -0.21079923882E+03 -0.27022995905E+03  0.37686878555E+03  0.00000000000E+00 0.  1.
        -13    1    5    5    0    0 -0.21693642096E+03 -0.35596681204E+03 -0.60156961856E+03  0.73188782473E+03  0.00000000000E+00 0. -1.
          1    1    6    6  503    0 -0.63225517403E+03 -0.17608918661E+03 -0.78049168950E+02  0.66094302288E+03  0.00000000000E+00 0. -1.
         -1    1    6    6    0  503 -0.75965492458E+02 -0.21023444276E+02  0.21905819714E+02  0.81808350374E+02  0.00000000000E+00 0.  1.
<mgrwt>
<rscale>  0 0.31789565E+04</rscale>
<asrwt>0</asrwt>
<pdfrwt beam="1">  1        2 0.29151868E+00 0.31789565E+04</pdfrwt>
<pdfrwt beam="2">  1       -1 0.20512381E+00 0.31789565E+04</pdfrwt>
<totfact> 0.10180213E+00</totfact>
</mgrwt>
</event>
<event>
12    7  0.1572140E-007  0.2393220E+04  0.7818608E-02  0.8442046E-01
          2   -1    0    0  501    0  0.00000000000E+00  0.00000000000E+00  0.15065118739E+04  0.15065118739E+04  0.00000000000E+00 0. -1.
         -1   -1    0    0    0  501 -0.00000000000E+00 -0.00000000000E+00 -0.95045734969E+03  0.95045734969E+03  0.00000000000E+00 0.  1.
         24    2    1    2    0    0  0.88241731112E+03  0.34376656150E+03 -0.16530678792E+03  0.96554130267E+03  0.90043951825E+02 0.  0.
        254    2    1    2    0    0 -0.88241731112E+03 -0.34376656150E+03  0.72136131212E+03  0.14914279209E+04  0.89842046999E+03 0.  0.
         23    2    4    4    0    0  0.20190173513E+02  0.20823903266E+03  0.46590473879E+02  0.23285641009E+03  0.90996140764E+02 0.  0.
         23    2    4    4    0    0 -0.90260748463E+03 -0.55200559416E+03  0.67477083824E+03  0.12585715108E+04  0.96312597361E+02 0.  0.
          4    1    3    3  502    0  0.26896995604E+01 -0.32076432823E+00 -0.73078585316E+01  0.77937263102E+01  0.00000000000E+00 0. -1.
         -1    1    3    3    0  502  0.87972761156E+03  0.34408732583E+03 -0.15799892939E+03  0.95774757636E+03  0.00000000000E+00 0.  1.
         13    1    5    5    0    0  0.39980327914E+02  0.20089603424E+03  0.32302922270E+02  0.20736711885E+03  0.00000000000E+00 0. -1.
        -13    1    5    5    0    0 -0.19790154401E+02  0.73429984250E+01  0.14287551609E+02  0.25489291243E+02  0.00000000000E+00 0.  1.
          4    1    6    6  503    0 -0.69916942477E+03 -0.46241537850E+03  0.56292876656E+03  0.10097299951E+04  0.00000000000E+00 0. -1.
         -4    1    6    6    0  503 -0.20343805986E+03 -0.89590215659E+02  0.11184207168E+03  0.24884151571E+03  0.00000000000E+00 0.  1.
<mgrwt>
<rscale>  0 0.23932198E+04</rscale>
<asrwt>0</asrwt>
<pdfrwt beam="1">  1        2 0.23177106E+00 0.23932198E+04</pdfrwt>
<pdfrwt beam="2">  1       -1 0.14622421E+00 0.23932198E+04</pdfrwt>
<totfact> 0.48196551E+00</totfact>
</mgrwt>
</event>
<event>
12    7  0.1572140E-007  0.1317363E+04  0.7818608E-02  0.9015908E-01
          2   -1    0    0  501    0  0.00000000000E+00  0.00000000000E+00  0.27503258489E+04  0.27503258489E+04  0.00000000000E+00 0. -1.
         -1   -1    0    0    0  501 -0.00000000000E+00 -0.00000000000E+00 -0.15774910057E+03  0.15774910057E+03  0.00000000000E+00 0.  1.
         24    2    1    2    0    0 -0.25189763723E+03  0.22372933815E+03  0.68988518508E+03  0.77193260091E+03  0.80194359909E+02 0.  0.
        254    2    1    2    0    0  0.25189763723E+03 -0.22372933815E+03  0.19026915632E+04  0.21361423485E+04  0.91069298453E+03 0.  0.
         23    2    4    4    0    0  0.50749904931E+03  0.91817438025E+02  0.78562885200E+03  0.94413656519E+03  0.90528634395E+02 0.  0.
         23    2    4    4    0    0 -0.25560141208E+03 -0.31554677618E+03  0.11170627112E+04  0.11920057833E+04  0.90259830138E+02 0.  0.
          2    1    3    3  502    0  0.40844513477E+01  0.14619293916E+02  0.21955549274E+02  0.26691808506E+02  0.00000000000E+00 0. -1.
         -1    1    3    3    0  502 -0.25598208858E+03  0.20911004424E+03  0.66792963581E+03  0.74524079241E+03  0.00000000000E+00 0.  1.
         13    1    5    5    0    0  0.44150758971E+03  0.66789726684E+02  0.61967075987E+03  0.76379425895E+03  0.00000000000E+00 0. -1.
        -13    1    5    5    0    0  0.65991459599E+02  0.25027711342E+02  0.16595809213E+03  0.18034230624E+03  0.00000000000E+00 0.  1.
          4    1    6    6  503    0 -0.15892852917E+03 -0.19505229822E+03  0.81155192135E+03  0.84965887124E+03  0.00000000000E+00 0. -1.
         -4    1    6    6    0  503 -0.96672882907E+02 -0.12049447796E+03  0.30551078986E+03  0.34234691211E+03  0.00000000000E+00 0.  1.
<mgrwt>
<rscale>  0 0.13173632E+04</rscale>
<asrwt>0</asrwt>
<pdfrwt beam="1">  1        2 0.42312702E+00 0.13173632E+04</pdfrwt>
<pdfrwt beam="2">  1       -1 0.24269094E-01 0.13173632E+04</pdfrwt>
<totfact> 0.41019539E+01</totfact>
</mgrwt>
</event>
<event>
12    7  0.1572140E-007  0.1821280E+04  0.7818608E-02  0.8695064E-01
          2   -1    0    0  501    0  0.00000000000E+00  0.00000000000E+00  0.13151191572E+04  0.13151191572E+04  0.00000000000E+00 0. -1.
         -1   -1    0    0    0  501 -0.00000000000E+00 -0.00000000000E+00 -0.63056264832E+03  0.63056264832E+03  0.00000000000E+00 0.  1.
         24    2    1    2    0    0 -0.50371518626E+03  0.43936192200E+03  0.89598660559E+02  0.67971708330E+03  0.84967676083E+02 0.  0.
        254    2    1    2    0    0  0.50371518626E+03 -0.43936192200E+03  0.59495784833E+03  0.12659647222E+04  0.89550206548E+03 0.  0.
         23    2    4    4    0    0 -0.14495465629E+03 -0.38273056625E+03  0.72322940899E+02  0.42582139919E+03  0.92729269971E+02 0.  0.
         23    2    4    4    0    0  0.64866984255E+03 -0.56631355757E+02  0.52263490744E+03  0.84014332305E+03  0.93348174625E+02 0.  0.
          4    1    3    3  502    0 -0.60214205505E+02  0.93807072786E+02  0.10768437319E+02  0.11198873466E+03  0.00000000000E+00 0. -1.
         -3    1    3    3    0  502 -0.44350098075E+03  0.34555484922E+03  0.78830223240E+02  0.56772834863E+03  0.00000000000E+00 0.  1.
         13    1    5    5    0    0 -0.15231276727E+03 -0.36487853458E+03  0.53749602529E+02  0.39902950247E+03  0.00000000000E+00 0. -1.
        -13    1    5    5    0    0  0.73581109771E+01 -0.17852031671E+02  0.18573338370E+02  0.26791896725E+02  0.00000000000E+00 0.  1.
          2    1    6    6  503    0  0.39530210812E+03  0.11109395000E+02  0.32019088747E+03  0.50883138637E+03  0.00000000000E+00 0. -1.
         -2    1    6    6    0  503  0.25336773443E+03 -0.67740750757E+02  0.20244401996E+03  0.33131193667E+03  0.00000000000E+00 0.  1.
<mgrwt>
<rscale>  0 0.18212798E+04</rscale>
<asrwt>0</asrwt>
<pdfrwt beam="1">  1        2 0.20232602E+00 0.18212798E+04</pdfrwt>
<pdfrwt beam="2">  1       -1 0.97009639E-01 0.18212798E+04</pdfrwt>
<totfact> 0.17776143E+01</totfact>
</mgrwt>
</event>
<event>
12    7  0.1572140E-007  0.3230745E+04  0.7818608E-02  0.8180744E-01
         -1   -1    0    0    0  501 -0.00000000000E+00  0.00000000000E+00  0.42810150338E+04  0.42810150338E+04  0.00000000000E+00 0.  1.
          2   -1    0    0  501    0  0.00000000000E+00 -0.00000000000E+00 -0.60953487258E+03  0.60953487258E+03  0.00000000000E+00 0. -1.
         24    2    1    2    0    0 -0.63183264571E+03 -0.13448911032E+04  0.15678094486E+04  0.21623631889E+04  0.99214524382E+02 0.  0.
        254    2    1    2    0    0  0.63183264571E+03  0.13448911032E+04  0.21036707126E+04  0.27281867175E+04  0.89979315764E+03 0.  0.
         23    2    4    4    0    0  0.10227623022E+03 -0.79831090028E+02  0.46313458951E+03  0.48981200334E+03  0.92675349506E+02 0.  0.
         23    2    4    4    0    0  0.52955641549E+03  0.14247221933E+04  0.16405361231E+04  0.22383747141E+04  0.93269847834E+02 0.  0.
          2    1    3    3  502    0 -0.27941863286E+02 -0.81308508544E+02  0.12426980919E+03  0.15111190145E+03  0.00000000000E+00 0. -1.
         -1    1    3    3    0  502 -0.60389078242E+03 -0.12635825947E+04  0.14435396394E+04  0.20112512875E+04  0.00000000000E+00 0.  1.
         13    1    5    5    0    0  0.51925075872E+02 -0.85776997624E+02  0.22486111451E+03  0.24620403661E+03  0.00000000000E+00 0. -1.
        -13    1    5    5    0    0  0.50351154349E+02  0.59459075961E+01  0.23827347500E+03  0.24360796672E+03  0.00000000000E+00 0.  1.
          3    1    6    6  503    0  0.28715307677E+03  0.77335261712E+03  0.82182722866E+03  0.11644445687E+04  0.00000000000E+00 0. -1.
         -3    1    6    6    0  503  0.24240333872E+03  0.65136957615E+03  0.81870889444E+03  0.10739301454E+04  0.00000000000E+00 0.  1.
<mgrwt>
<rscale>  0 0.32307448E+04</rscale>
<asrwt>0</asrwt>
<pdfrwt beam="1">  1        2 0.93774598E-01 0.32307448E+04</pdfrwt>
<pdfrwt beam="2">  1       -1 0.65861768E+00 0.32307448E+04</pdfrwt>
<totfact> 0.12677292E-02</totfact>
</mgrwt>
</event>
<event>
12    7  0.1572140E-007  0.1387918E+04  0.7818608E-02  0.8962611E-01
         -1   -1    0    0    0  501 -0.00000000000E+00  0.00000000000E+00  0.25207405236E+03  0.25207405236E+03  0.00000000000E+00 0.  1.
          2   -1    0    0  501    0  0.00000000000E+00 -0.00000000000E+00 -0.19104660054E+04  0.19104660054E+04  0.00000000000E+00 0. -1.
         24    2    1    2    0    0 -0.14787063229E+03  0.36961536476E+03 -0.53556243714E+03  0.67182652616E+03  0.77733618294E+02 0.  0.
        254    2    1    2    0    0  0.14787063229E+03 -0.36961536476E+03 -0.11228295159E+04  0.14907135316E+04  0.89610237681E+03 0.  0.
         23    2    4    4    0    0  0.13423718403E+02 -0.50663541395E+03 -0.11656657544E+04  0.12748077602E+04  0.97460431050E+02 0.  0.
         23    2    4    4    0    0  0.13444691389E+03  0.13702004920E+03  0.42836238549E+02  0.21590577134E+03  0.89049942327E+02 0.  0.
          4    1    3    3  502    0 -0.96009162346E+02  0.22790210136E+03 -0.39234400059E+03  0.46377897953E+03  0.00000000000E+00 0. -1.
         -3    1    3    3    0  502 -0.51861469947E+02  0.14171326340E+03 -0.14321843655E+03  0.20804754663E+03  0.00000000000E+00 0.  1.
         13    1    5    5    0    0  0.36740960371E+02 -0.47632952274E+03 -0.10861607916E+04  0.11865854278E+04  0.00000000000E+00 0. -1.
        -13    1    5    5    0    0 -0.23317241969E+02 -0.30305891215E+02 -0.79504962870E+02  0.88222332412E+02  0.00000000000E+00 0.  1.
          3    1    6    6  503    0  0.11005038499E+03  0.10743012354E+03  0.69934911242E+02  0.16894736012E+03  0.00000000000E+00 0. -1.
         -3    1    6    6    0  503  0.24396528898E+02  0.29589925652E+02 -0.27098672694E+02  0.46958411218E+02  0.00000000000E+00 0.  1.
<mgrwt>
<rscale>  0 0.13879177E+04</rscale>
<asrwt>0</asrwt>
<pdfrwt beam="1">  1        2 0.29391786E+00 0.13879177E+04</pdfrwt>
<pdfrwt beam="2">  1       -1 0.38780622E-01 0.13879177E+04</pdfrwt>
<totfact> 0.53611023E+01</totfact>
</mgrwt>
</event>
<event>
12    7  0.1572140E-007  0.1777031E+04  0.7818608E-02  0.8718610E-01
         -1   -1    0    0    0  501 -0.00000000000E+00  0.00000000000E+00  0.19179772316E+03  0.19179772316E+03  0.00000000000E+00 0.  1.
          2   -1    0    0  501    0  0.00000000000E+00 -0.00000000000E+00 -0.41161055634E+04  0.41161055634E+04  0.00000000000E+00 0. -1.
         24    2    1    2    0    0  0.41160901773E+03  0.46936248867E+03 -0.89740053158E+03  0.10958166320E+04  0.75916057115E+02 0.  0.
        254    2    1    2    0    0 -0.41160901773E+03 -0.46936248867E+03 -0.30269073087E+04  0.32120866545E+04  0.87499125233E+03 0.  0.
         23    2    4    4    0    0 -0.31623544354E+03 -0.18296127913E+02 -0.30281798600E+03  0.44776134937E+03  0.91934157404E+02 0.  0.
         23    2    4    4    0    0 -0.95373574184E+02 -0.45106636076E+03 -0.27240893227E+04  0.27643253051E+04  0.90965786737E+02 0.  0.
          4    1    3    3  502    0  0.10131925679E+03  0.90820734329E+02 -0.24460253828E+03  0.27990069545E+03  0.00000000000E+00 0. -1.
         -3    1    3    3    0  502  0.31028976094E+03  0.37854175434E+03 -0.65279799330E+03  0.81591593659E+03  0.00000000000E+00 0.  1.
         13    1    5    5    0    0 -0.27495625813E+03  0.15760112471E+02 -0.24066576936E+03  0.36574490779E+03  0.00000000000E+00 0. -1.
        -13    1    5    5    0    0 -0.41279185416E+02 -0.34056240384E+02 -0.62152216637E+02  0.82016441587E+02  0.00000000000E+00 0.  1.
          4    1    6    6  503    0 -0.94070648201E+02 -0.42936323707E+03 -0.26715052205E+04  0.27074235389E+04  0.00000000000E+00 0. -1.
         -4    1    6    6    0  503 -0.13029259833E+01 -0.21703123694E+02 -0.52584102214E+02  0.56901766227E+02  0.00000000000E+00 0.  1.
<mgrwt>
<rscale>  0 0.17770309E+04</rscale>
<asrwt>0</asrwt>
<pdfrwt beam="1">  1        2 0.63324700E+00 0.17770309E+04</pdfrwt>
<pdfrwt beam="2">  1       -1 0.29507342E-01 0.17770309E+04</pdfrwt>
<totfact> 0.31559773E+00</totfact>
</mgrwt>
</event>
<event>
12    7  0.1572140E-007  0.1525042E+04  0.7818608E-02  0.8867969E-01
         -1   -1    0    0    0  501 -0.00000000000E+00  0.00000000000E+00  0.70272184162E+03  0.70272184162E+03  0.00000000000E+00 0.  1.
          2   -1    0    0  501    0  0.00000000000E+00 -0.00000000000E+00 -0.82740909228E+03  0.82740909228E+03  0.00000000000E+00 0. -1.
         24    2    1    2    0    0 -0.20905926938E+03  0.25328357409E+03  0.31236530331E+03  0.46019036491E+03  0.79653890236E+02 0.  0.
        254    2    1    2    0    0  0.20905926938E+03 -0.25328357409E+03 -0.43705255397E+03  0.10699405690E+04  0.91972797022E+03 0.  0.
         23    2    4    4    0    0  0.30558499713E+03 -0.96302884446E+02 -0.67662557618E+03  0.75417580456E+03  0.91118262838E+02 0.  0.
         23    2    4    4    0    0 -0.96525727744E+02 -0.15698068965E+03  0.23957302222E+03  0.31576476442E+03  0.91389279664E+02 0.  0.
          4    1    3    3  502    0 -0.89885637299E+02  0.10711679815E+03  0.80637881226E+02  0.16141841322E+03  0.00000000000E+00 0. -1.
         -3    1    3    3    0  502 -0.11917363208E+03  0.14616677594E+03  0.23172742208E+03  0.29877195169E+03  0.00000000000E+00 0.  1.
         13    1    5    5    0    0  0.13909642117E+03 -0.67700804296E+02 -0.41351324981E+03  0.44150245871E+03  0.00000000000E+00 0.  1.
        -13    1    5    5    0    0  0.16648857596E+03 -0.28602080150E+02 -0.26311232638E+03  0.31267334585E+03  0.00000000000E+00 0. -1.
          1    1    6    6  503    0 -0.76410845887E+02 -0.11852172218E+03  0.10919456984E+03  0.17835209581E+03  0.00000000000E+00 0. -1.
         -1    1    6    6    0  503 -0.20114881857E+02 -0.38458967470E+02  0.13037845238E+03  0.13741266861E+03  0.00000000000E+00 0.  1.
<mgrwt>
<rscale>  0 0.15250422E+04</rscale>
<asrwt>0</asrwt>
<pdfrwt beam="1">  1        2 0.12729371E+00 0.15250422E+04</pdfrwt>
<pdfrwt beam="2">  1       -1 0.10811105E+00 0.15250422E+04</pdfrwt>
<totfact> 0.28826124E+01</totfact>
</mgrwt>
</event>
<event>
12    7  0.1572140E-007  0.1201016E+04  0.7818608E-02  0.9111967E-01
          2   -1    0    0  501    0  0.00000000000E+00  0.00000000000E+00  0.11897125454E+04  0.11897125454E+04  0.00000000000E+00 0. -1.
         -1   -1    0    0    0  501 -0.00000000000E+00 -0.00000000000E+00 -0.30310683322E+03  0.30310683322E+03  0.00000000000E+00 0.  1.
         24    2    1    2    0    0 -0.22380456204E+03  0.77577063957E+02  0.12212625368E+03  0.27859690729E+03  0.81207955715E+02 0.  0.
        254    2    1    2    0    0  0.22380456204E+03 -0.77577063957E+02  0.76447945853E+03  0.12142224714E+04  0.91312687213E+03 0.  0.
         23    2    4    4    0    0  0.73177512699E+02  0.30075791999E+03  0.72726037590E+03  0.79533639169E+03  0.88555331768E+02 0.  0.
         23    2    4    4    0    0  0.15062704934E+03 -0.37833498395E+03  0.37219082628E+02  0.41888607967E+03  0.90853836226E+02 0.  0.
          2    1    3    3  502    0 -0.22081748024E+03  0.57801280386E+02  0.10131116913E+03  0.24973045586E+03  0.00000000000E+00 0. -1.
         -1    1    3    3    0  502 -0.29870818041E+01  0.19775783571E+02  0.20815084547E+02  0.28866451431E+02  0.00000000000E+00 0.  1.
         13    1    5    5    0    0  0.57535566154E+02  0.12593526292E+03  0.41017563962E+03  0.43291348692E+03  0.00000000000E+00 0.  1.
        -13    1    5    5    0    0  0.15641946545E+02  0.17482265708E+03  0.31708473628E+03  0.36242290477E+03  0.00000000000E+00 0. -1.
          1    1    6    6  503    0  0.15856136239E+03 -0.36878332991E+03  0.26192430812E+02  0.40227962103E+03  0.00000000000E+00 0. -1.
         -1    1    6    6    0  503 -0.79343130469E+01 -0.95516540393E+01  0.11026651816E+02  0.16606458643E+02  0.00000000000E+00 0.  1.
<mgrwt>
<rscale>  0 0.12010162E+04</rscale>
<asrwt>0</asrwt>
<pdfrwt beam="1">  1        2 0.18303270E+00 0.12010162E+04</pdfrwt>
<pdfrwt beam="2">  1       -1 0.46631821E-01 0.12010162E+04</pdfrwt>
<totfact> 0.98951423E+01</totfact>
</mgrwt>
</event>
<event>
12    7  0.1572140E-007  0.2291857E+04  0.7818608E-02  0.8481139E-01
          2   -1    0    0  501    0  0.00000000000E+00  0.00000000000E+00  0.15745081207E+04  0.15745081207E+04  0.00000000000E+00 0. -1.
         -1   -1    0    0    0  501 -0.00000000000E+00 -0.00000000000E+00 -0.83400773098E+03  0.83400773098E+03  0.00000000000E+00 0.  1.
         24    2    1    2    0    0  0.46699968924E+03 -0.74819165226E+03 -0.11217330013E+03  0.89280274279E+03  0.81452010455E+02 0.  0.
        254    2    1    2    0    0 -0.46699968924E+03  0.74819165226E+03  0.85267368989E+03  0.15157131089E+04  0.89019905015E+03 0.  0.
         23    2    4    4    0    0 -0.35802153254E+03  0.77709698124E+03  0.25244205795E+03  0.89804126439E+03  0.10340204981E+03 0.  0.
         23    2    4    4    0    0 -0.10897815671E+03 -0.28905328978E+02  0.60023163194E+03  0.61767184455E+03  0.92351171524E+02 0.  0.
          2    1    3    3  502    0  0.25447297914E+03 -0.36176086289E+03 -0.89093262034E+02  0.45118181299E+03  0.00000000000E+00 0. -1.
         -1    1    3    3    0  502  0.21252671010E+03 -0.38643078937E+03 -0.23080038091E+02  0.44162092980E+03  0.00000000000E+00 0.  1.
         13    1    5    5    0    0 -0.26801741300E+02  0.17902751198E+02  0.19245096237E+02  0.37539520060E+02  0.00000000000E+00 0.  1.
        -13    1    5    5    0    0 -0.33121979124E+03  0.75919423004E+03  0.23319696171E+03  0.86050174433E+03  0.00000000000E+00 0. -1.
          1    1    6    6  503    0 -0.75468583920E+02 -0.50821562155E+02  0.52113604417E+03  0.52901901182E+03  0.00000000000E+00 0. -1.
         -1    1    6    6    0  503 -0.33509572785E+02  0.21916233177E+02  0.79095587770E+02  0.88652832722E+02  0.00000000000E+00 0.  1.
<mgrwt>
<rscale>  0 0.22918568E+04</rscale>
<asrwt>0</asrwt>
<pdfrwt beam="1">  1        2 0.24223202E+00 0.22918568E+04</pdfrwt>
<pdfrwt beam="2">  1       -1 0.12830888E+00 0.22918568E+04</pdfrwt>
<totfact> 0.62424096E+00</totfact>
</mgrwt>
</event>
<event>
12    7  0.1572140E-007  0.2117195E+04  0.7818608E-02  0.8553706E-01
          2   -1    0    0  501    0  0.00000000000E+00  0.00000000000E+00  0.17240089458E+04  0.17240089458E+04  0.00000000000E+00 0. -1.
         -1   -1    0    0    0  501 -0.00000000000E+00 -0.00000000000E+00 -0.65001355035E+03  0.65001355035E+03  0.00000000000E+00 0.  1.
         24    2    1    2    0    0  0.33838442798E+03  0.26758474122E+03  0.12811266478E+04  0.13542220647E+04  0.80785505573E+02 0.  0.
        254    2    1    2    0    0 -0.33838442798E+03 -0.26758474122E+03 -0.20713125239E+03  0.10198004314E+04  0.90054647266E+03 0.  0.
         23    2    4    4    0    0  0.63747885499E+02 -0.48957207472E+03 -0.22285874474E+03  0.55122448084E+03  0.10216554661E+03 0.  0.
         23    2    4    4    0    0 -0.40213231348E+03  0.22198733350E+03  0.15727492348E+02  0.46857595060E+03  0.91254006444E+02 0.  0.
          4    1    3    3  502    0  0.17924192398E+03  0.19127709954E+03  0.74208274474E+03  0.78702058179E+03  0.00000000000E+00 0. -1.
         -3    1    3    3    0  502  0.15914250400E+03  0.76307641681E+02  0.53904390307E+03  0.56720148289E+03  0.00000000000E+00 0.  1.
         13    1    5    5    0    0 -0.20112164125E+02 -0.21621104936E+03 -0.11416717584E+03  0.24532806820E+03  0.00000000000E+00 0. -1.
        -13    1    5    5    0    0  0.83860049624E+02 -0.27336102537E+03 -0.10869156890E+03  0.30589641263E+03  0.00000000000E+00 0.  1.
          3    1    6    6  503    0 -0.22645491634E+02  0.28258255314E+02  0.22152626703E+02  0.42450985319E+02  0.00000000000E+00 0. -1.
         -3    1    6    6    0  503 -0.37948682184E+03  0.19372907819E+03 -0.64251343558E+01  0.42612496528E+03  0.00000000000E+00 0.  1.
<mgrwt>
<rscale>  0 0.21171955E+04</rscale>
<asrwt>0</asrwt>
<pdfrwt beam="1">  1        2 0.26523214E+00 0.21171955E+04</pdfrwt>
<pdfrwt beam="2">  1       -1 0.10000209E+00 0.21171955E+04</pdfrwt>
<totfact> 0.94983084E+00</totfact>
</mgrwt>
</event>
<event>
12    7  0.1572140E-007  0.1460946E+04  0.7818608E-02  0.8910847E-01
         -1   -1    0    0    0  501 -0.00000000000E+00  0.00000000000E+00  0.40105107473E+03  0.40105107473E+03  0.00000000000E+00 0.  1.
          2   -1    0    0  501    0  0.00000000000E+00 -0.00000000000E+00 -0.13304804704E+04  0.13304804704E+04  0.00000000000E+00 0. -1.
         24    2    1    2    0    0  0.17597690414E+03  0.16509125407E+03 -0.73772188427E+03  0.78014688625E+03  0.78565849045E+02 0.  0.
        254    2    1    2    0    0 -0.17597690414E+03 -0.16509125407E+03 -0.19170751135E+03  0.95138465883E+03  0.90008777693E+03 0.  0.
         23    2    4    4    0    0  0.10998277154E+03 -0.24306829817E+03 -0.46074736291E+03  0.54061316584E+03  0.93787286100E+02 0.  0.
         23    2    4    4    0    0 -0.28595967569E+03  0.77977044105E+02  0.26903985156E+03  0.41077149299E+03  0.92181463432E+02 0.  0.
          2    1    3    3  502    0  0.15276394650E+03  0.13287203790E+03 -0.50522496069E+03  0.54428307222E+03  0.00000000000E+00 0. -1.
         -1    1    3    3    0  502  0.23212957639E+02  0.32219216170E+02 -0.23249692358E+03  0.23586381403E+03  0.00000000000E+00 0.  1.
         13    1    5    5    0    0  0.50658368911E+02 -0.20279969025E+03 -0.31291811372E+03  0.37631334098E+03  0.00000000000E+00 0.  1.
        -13    1    5    5    0    0  0.59324402633E+02 -0.40268607926E+02 -0.14782924919E+03  0.16429982485E+03  0.00000000000E+00 0. -1.
          4    1    6    6  503    0 -0.15079570525E+01 -0.63507117930E+01 -0.39251935429E+01  0.76166015453E+01  0.00000000000E+00 0. -1.
         -4    1    6    6    0  503 -0.28445171863E+03  0.84327755898E+02  0.27296504510E+03  0.40315489144E+03  0.00000000000E+00 0.  1.
<mgrwt>
<rscale>  0 0.14609458E+04</rscale>
<asrwt>0</asrwt>
<pdfrwt beam="1">  1        2 0.20468930E+00 0.14609458E+04</pdfrwt>
<pdfrwt beam="2">  1       -1 0.61700166E-01 0.14609458E+04</pdfrwt>
<totfact> 0.46699556E+01</totfact>
</mgrwt>
</event>
<event>
12    7  0.1572140E-007  0.3974956E+04  0.7818608E-02  0.8009618E-01
          2   -1    0    0  501    0  0.00000000000E+00  0.00000000000E+00  0.33066239008E+04  0.33066239008E+04  0.00000000000E+00 0. -1.
         -1   -1    0    0    0  501 -0.00000000000E+00 -0.00000000000E+00 -0.11945929315E+04  0.11945929315E+04  0.00000000000E+00 0.  1.
         24    2    1    2    0    0 -0.28503056333E+03  0.38136219337E+03  0.30373857957E+04  0.30755687748E+04  0.82044328685E+02 0.  0.
        254    2    1    2    0    0  0.28503056333E+03 -0.38136219337E+03 -0.92535482643E+03  0.14256480575E+04  0.97442869640E+03 0.  0.
         23    2    4    4    0    0 -0.17066596296E+03 -0.52315471760E+03 -0.68648295723E+03  0.88504297881E+03  0.96044231033E+02 0.  0.
         23    2    4    4    0    0  0.45569652629E+03  0.14179252423E+03 -0.23887186920E+03  0.54060507864E+03  0.86195343046E+02 0.  0.
          4    1    3    3  502    0 -0.26416706874E+03  0.36925338901E+03  0.29566577580E+04  0.29913136585E+04  0.00000000000E+00 0. -1.
         -3    1    3    3    0  502 -0.20863494590E+02  0.12108804360E+02  0.80728037700E+02  0.84255116287E+02  0.00000000000E+00 0.  1.
         13    1    5    5    0    0 -0.25757064834E+02 -0.15103071491E+03 -0.13532033687E+03  0.20441452200E+03  0.00000000000E+00 0.  1.
        -13    1    5    5    0    0 -0.14490889812E+03 -0.37212400269E+03 -0.55116262036E+03  0.68062845681E+03  0.00000000000E+00 0. -1.
          1    1    6    6  503    0  0.36737533975E+03  0.14299944361E+03 -0.17349578753E+03  0.43071367452E+03  0.00000000000E+00 0. -1.
         -1    1    6    6    0  503  0.88321186532E+02 -0.12069193747E+01 -0.65376081670E+02  0.10989140412E+03  0.00000000000E+00 0.  1.
<mgrwt>
<rscale>  0 0.39749564E+04</rscale>
<asrwt>0</asrwt>
<pdfrwt beam="1">  1        2 0.50871137E+00 0.39749564E+04</pdfrwt>
<pdfrwt beam="2">  1       -1 0.18378353E+00 0.39749564E+04</pdfrwt>
<totfact> 0.19319733E-01</totfact>
</mgrwt>
</event>
<event>
12    7  0.1572140E-007  0.2071780E+04  0.7818608E-02  0.8573777E-01
          2   -1    0    0  501    0  0.00000000000E+00  0.00000000000E+00  0.80634636714E+03  0.80634636714E+03  0.00000000000E+00 0. -1.
         -1   -1    0    0    0  501 -0.00000000000E+00 -0.00000000000E+00 -0.13307783408E+04  0.13307783408E+04  0.00000000000E+00 0.  1.
         24    2    1    2    0    0 -0.81693136397E+03  0.15629250536E+03 -0.14297742999E+03  0.84774533505E+03  0.80158636129E+02 0.  0.
        254    2    1    2    0    0  0.81693136397E+03 -0.15629250536E+03 -0.38145454365E+03  0.12893793729E+04  0.90839825938E+03 0.  0.
         23    2    4    4    0    0  0.95542426114E+02  0.41087765128E+02  0.26306587423E+03  0.29764132340E+03  0.92575069963E+02 0.  0.
         23    2    4    4    0    0  0.72138893786E+03 -0.19738027049E+03 -0.64452041787E+03  0.99173804948E+03  0.93684677950E+02 0.  0.
          2    1    3    3  502    0 -0.75787863562E+03  0.12592769509E+03 -0.14231733745E+03  0.78133989739E+03  0.00000000000E+00 0. -1.
         -1    1    3    3    0  502 -0.59052728348E+02  0.30364810275E+02 -0.66009254440E+00  0.66405437658E+02  0.00000000000E+00 0.  1.
         13    1    5    5    0    0  0.10380586386E+02  0.45041730957E+02  0.49691275126E+02  0.67865579825E+02  0.00000000000E+00 0. -1.
        -13    1    5    5    0    0  0.85161839728E+02 -0.39539658289E+01  0.21337459910E+03  0.22977574357E+03  0.00000000000E+00 0.  1.
          3    1    6    6  503    0  0.22420596228E+03 -0.10676331610E+03 -0.21762094832E+03  0.33019024264E+03  0.00000000000E+00 0. -1.
         -3    1    6    6    0  503  0.49718297558E+03 -0.90616954392E+02 -0.42689946955E+03  0.66154780684E+03  0.00000000000E+00 0.  1.
<mgrwt>
<rscale>  0 0.20717802E+04</rscale>
<asrwt>0</asrwt>
<pdfrwt beam="1">  1        2 0.12405329E+00 0.20717802E+04</pdfrwt>
<pdfrwt beam="2">  1       -1 0.20473513E+00 0.20717802E+04</pdfrwt>
<totfact> 0.50160710E+00</totfact>
</mgrwt>
</event>
<event>
12    7  0.1572140E-007  0.1642763E+04  0.7818608E-02  0.8794699E-01
          2   -1    0    0  501    0  0.00000000000E+00  0.00000000000E+00  0.90615802189E+03  0.90615802189E+03  0.00000000000E+00 0. -1.
         -1   -1    0    0    0  501 -0.00000000000E+00 -0.00000000000E+00 -0.74453675353E+03  0.74453675353E+03  0.00000000000E+00 0.  1.
         24    2    1    2    0    0 -0.39454447216E+03  0.46196607870E+02 -0.35851362394E+03  0.54125743345E+03  0.81413288999E+02 0.  0.
        254    2    1    2    0    0  0.39454447216E+03 -0.46196607870E+02  0.52013489230E+03  0.11094373420E+04  0.89583002990E+03 0.  0.
         23    2    4    4    0    0 -0.87562000213E+02 -0.34964036905E+03  0.72112320965E+02  0.37909820068E+03  0.92734930726E+02 0.  0.
         23    2    4    4    0    0  0.48210647237E+03  0.30344376118E+03  0.44802257133E+03  0.73033914129E+03  0.90367416510E+02 0.  0.
          2    1    3    3  502    0 -0.28262080205E+03  0.27819379879E+02 -0.20436175704E+03  0.34987449662E+03  0.00000000000E+00 0. -1.
         -1    1    3    3    0  502 -0.11192367011E+03  0.18377227991E+02 -0.15415186691E+03  0.19138293683E+03  0.00000000000E+00 0.  1.
         13    1    5    5    0    0  0.15664176935E+02 -0.44624432599E+02 -0.62106241505E+01  0.47699877108E+02  0.00000000000E+00 0.  1.
        -13    1    5    5    0    0 -0.10322617715E+03 -0.30501593645E+03  0.78322945116E+02  0.33139832357E+03  0.00000000000E+00 0. -1.
          1    1    6    6  503    0  0.24746239450E+03  0.12423354001E+03  0.17079901554E+03  0.32533661470E+03  0.00000000000E+00 0. -1.
         -1    1    6    6    0  503  0.23464407787E+03  0.17921022117E+03  0.27722355580E+03  0.40500252658E+03  0.00000000000E+00 0.  1.
<mgrwt>
<rscale>  0 0.16427635E+04</rscale>
<asrwt>0</asrwt>
<pdfrwt beam="1">  1        2 0.13940893E+00 0.16427635E+04</pdfrwt>
<pdfrwt beam="2">  1       -1 0.11454412E+00 0.16427635E+04</pdfrwt>
<totfact> 0.21957474E+01</totfact>
</mgrwt>
</event>
<event>
12    7  0.1572140E-007  0.2646373E+04  0.7818608E-02  0.8352618E-01
         -1   -1    0    0    0  501 -0.00000000000E+00  0.00000000000E+00  0.62723626303E+03  0.62723626303E+03  0.00000000000E+00 0.  1.
          2   -1    0    0  501    0  0.00000000000E+00 -0.00000000000E+00 -0.27913294530E+04  0.27913294530E+04  0.00000000000E+00 0. -1.
         24    2    1    2    0    0 -0.10620323016E+04  0.23150272107E+03 -0.14615066496E+04  0.18232738801E+04  0.82582294223E+02 0.  0.
        254    2    1    2    0    0  0.10620323016E+04 -0.23150272107E+03 -0.70258654031E+03  0.15952918359E+04  0.93264252287E+03 0.  0.
         23    2    4    4    0    0  0.11777349642E+04 -0.36024451154E+03 -0.57507073950E+03  0.13621187020E+04  0.88460437353E+02 0.  0.
         23    2    4    4    0    0 -0.11570266253E+03  0.12874179047E+03 -0.12751580081E+03  0.23317313390E+03  0.90265586957E+02 0.  0.
          4    1    3    3  502    0 -0.63199890426E+03  0.15392875042E+03 -0.81116598154E+03  0.10397629176E+04  0.00000000000E+00 0. -1.
         -3    1    3    3    0  502 -0.43003339739E+03  0.77573970649E+02 -0.65034066809E+03  0.78351096250E+03  0.00000000000E+00 0.  1.
         13    1    5    5    0    0  0.61076999443E+03 -0.16393579249E+03 -0.33744661655E+03  0.71678807829E+03  0.00000000000E+00 0.  1.
        -13    1    5    5    0    0  0.56696496974E+03 -0.19630871905E+03 -0.23762412295E+03  0.64533062371E+03  0.00000000000E+00 0. -1.
          1    1    6    6  503    0 -0.47170540896E+02  0.72077087396E+02 -0.11452579711E+03  0.14330500571E+03  0.00000000000E+00 0. -1.
         -1    1    6    6    0  503 -0.68532121631E+02  0.56664703073E+02 -0.12990003698E+02  0.89868128197E+02  0.00000000000E+00 0.  1.
<mgrwt>
<rscale>  0 0.26463734E+04</rscale>
<asrwt>0</asrwt>
<pdfrwt beam="1">  1        2 0.42943530E+00 0.26463734E+04</pdfrwt>
<pdfrwt beam="2">  1       -1 0.96497886E-01 0.26463734E+04</pdfrwt>
<totfact> 0.24231069E+00</totfact>
</mgrwt>
</event>
<event>
12    7  0.1572140E-007  0.2838342E+04  0.7818608E-02  0.8291463E-01
          2   -1    0    0  501    0  0.00000000000E+00  0.00000000000E+00  0.79395705004E+03  0.79395705004E+03  0.00000000000E+00 0. -1.
         -1   -1    0    0    0  501 -0.00000000000E+00 -0.00000000000E+00 -0.25367196879E+04  0.25367196879E+04  0.00000000000E+00 0.  1.
         24    2    1    2    0    0 -0.11439462067E+04 -0.52888974271E+03 -0.10338472771E+04  0.16320831313E+04  0.80733336112E+02 0.  0.
        254    2    1    2    0    0  0.11439462067E+04  0.52888974271E+03 -0.70891536081E+03  0.16985936066E+04  0.89124742245E+03 0.  0.
         23    2    4    4    0    0  0.51711364648E+03  0.60230339126E+03 -0.79896936566E+02  0.80304562629E+03  0.91229704233E+02 0.  0.
         23    2    4    4    0    0  0.62683256019E+03 -0.73413648548E+02 -0.62901842424E+03  0.89554798035E+03  0.89629151299E+02 0.  0.
          4    1    3    3  502    0 -0.20761585476E+03 -0.65922057047E+02 -0.19620643012E+03  0.29316722868E+03  0.00000000000E+00 0. -1.
         -3    1    3    3    0  502 -0.93633035191E+03 -0.46296768566E+03 -0.83764084694E+03  0.13389159026E+04  0.00000000000E+00 0.  1.
         13    1    5    5    0    0  0.17829847613E+03  0.18176353684E+03  0.13551128421E+02  0.25497443597E+03  0.00000000000E+00 0. -1.
        -13    1    5    5    0    0  0.33881517035E+03  0.42053985441E+03 -0.93448064988E+02  0.54807119032E+03  0.00000000000E+00 0.  1.
          4    1    6    6  503    0  0.93069461314E+02  0.80434666953E+01 -0.59469432759E+02  0.11073949349E+03  0.00000000000E+00 0. -1.
         -4    1    6    6    0  503  0.53376309888E+03 -0.81457115244E+02 -0.56954899148E+03  0.78480848686E+03  0.00000000000E+00 0.  1.
<mgrwt>
<rscale>  0 0.28383421E+04</rscale>
<asrwt>0</asrwt>
<pdfrwt beam="1">  1        2 0.12214724E+00 0.28383421E+04</pdfrwt>
<pdfrwt beam="2">  1       -1 0.39026457E+00 0.28383421E+04</pdfrwt>
<totfact> 0.28672383E-01</totfact>
</mgrwt>
</event>
<event>
12    7  0.1572140E-007  0.1855655E+04  0.7818608E-02  0.8677250E-01
         -1   -1    0    0    0  501 -0.00000000000E+00  0.00000000000E+00  0.81685216620E+03  0.81685216620E+03  0.00000000000E+00 0.  1.
          2   -1    0    0  501    0  0.00000000000E+00 -0.00000000000E+00 -0.10538794285E+04  0.10538794285E+04  0.00000000000E+00 0. -1.
         24    2    1    2    0    0  0.42346263752E+03 -0.56033827658E+03  0.18311760831E+02  0.70694667309E+03  0.78349782662E+02 0.  0.
        254    2    1    2    0    0 -0.42346263752E+03  0.56033827658E+03 -0.25533902310E+03  0.11637849216E+04  0.89213100910E+03 0.  0.
         23    2    4    4    0    0 -0.15262131000E+03 -0.20541738586E+03  0.78058750726E+02  0.28105349615E+03  0.86071670447E+02 0.  0.
         23    2    4    4    0    0 -0.27084132751E+03  0.76575566243E+03 -0.33339777383E+03  0.88273142542E+03  0.91235599421E+02 0.  0.
          4    1    3    3  502    0  0.16174492570E+03 -0.24458749475E+03  0.41616654197E+02  0.29616956205E+03  0.00000000000E+00 0. -1.
         -3    1    3    3    0  502  0.26171771182E+03 -0.31575078182E+03 -0.23304893365E+02  0.41077711104E+03  0.00000000000E+00 0.  1.
         13    1    5    5    0    0 -0.69830602363E+02 -0.40219022999E+02  0.32391740954E+00  0.80585282526E+02  0.00000000000E+00 0.  1.
        -13    1    5    5    0    0 -0.82790707639E+02 -0.16519836286E+03  0.77734833317E+02  0.20046821362E+03  0.00000000000E+00 0. -1.
          1    1    6    6  503    0 -0.27132152290E+03  0.70936552287E+03 -0.29632344903E+03  0.81524376739E+03  0.00000000000E+00 0. -1.
         -1    1    6    6    0  503  0.48019538902E+00  0.56390139560E+02 -0.37074324796E+02  0.67487658029E+02  0.00000000000E+00 0.  1.
<mgrwt>
<rscale>  0 0.18556548E+04</rscale>
<asrwt>0</asrwt>
<pdfrwt beam="1">  1        2 0.16213530E+00 0.18556548E+04</pdfrwt>
<pdfrwt beam="2">  1       -1 0.12566956E+00 0.18556548E+04</pdfrwt>
<totfact> 0.13782323E+01</totfact>
</mgrwt>
</event>
<event>
12    7  0.1881092E-007  0.1558518E+04  0.7818608E-02  0.8846445E-01
          2   -1    0    0  501    0  0.00000000000E+00  0.00000000000E+00  0.10467495913E+04  0.10467495913E+04  0.00000000000E+00 0. -1.
         -1   -1    0    0    0  501 -0.00000000000E+00 -0.00000000000E+00 -0.58012375626E+03  0.58012375626E+03  0.00000000000E+00 0.  1.
         24    2    1    2    0    0  0.15200316267E+02 -0.14460486453E+03 -0.36288277006E+03  0.39919695764E+03  0.80825056300E+02 0.  0.
        254    2    1    2    0    0 -0.15200316267E+02  0.14460486453E+03  0.82950860509E+03  0.12276763899E+04  0.89328784610E+03 0.  0.
         23    2    4    4    0    0  0.33572649983E+03  0.15552111869E+03  0.73194701311E+02  0.38888012095E+03  0.94716329775E+02 0.  0.
         23    2    4    4    0    0 -0.35092681610E+03 -0.10916254156E+02  0.75631390378E+03  0.83879626897E+03  0.91102496824E+02 0.  0.
          4    1    3    3  502    0  0.27890606306E+02 -0.86849705495E+01 -0.78154901068E+02  0.83435623055E+02  0.00000000000E+00 0. -1.
         -3    1    3    3    0  502 -0.12690290039E+02 -0.13591989399E+03 -0.28472786899E+03  0.31576133459E+03  0.00000000000E+00 0.  1.
         13    1    5    5    0    0  0.29469087967E+02  0.26143199626E+02  0.37699864233E+02  0.54526817214E+02  0.00000000000E+00 0. -1.
        -13    1    5    5    0    0  0.30625741186E+03  0.12937791906E+03  0.35494837078E+02  0.33435330374E+03  0.00000000000E+00 0.  1.
          1    1    6    6  503    0 -0.42611897675E+02  0.18068884538E+02  0.53251603571E+02  0.70554884273E+02  0.00000000000E+00 0. -1.
         -1    1    6    6    0  503 -0.30831491842E+03 -0.28985138694E+02  0.70306230021E+03  0.76824138470E+03  0.00000000000E+00 0.  1.
<mgrwt>
<rscale>  0 0.15585176E+04</rscale>
<asrwt>0</asrwt>
<pdfrwt beam="1">  1        2 0.16103840E+00 0.15585176E+04</pdfrwt>
<pdfrwt beam="2">  1       -1 0.89249809E-01 0.15585176E+04</pdfrwt>
<totfact> 0.31763821E+01</totfact>
</mgrwt>
</event>
<event>
12    7  0.1572140E-007  0.1740165E+04  0.7818608E-02  0.8738783E-01
          2   -1    0    0  501    0  0.00000000000E+00  0.00000000000E+00  0.93484430973E+03  0.93484430973E+03  0.00000000000E+00 0. -1.
         -1   -1    0    0    0  501 -0.00000000000E+00 -0.00000000000E+00 -0.80980672129E+03  0.80980672129E+03  0.00000000000E+00 0.  1.
         24    2    1    2    0    0  0.57082703315E+02  0.28453418076E+03  0.60985995350E+03  0.68013661757E+03  0.80240392786E+02 0.  0.
        254    2    1    2    0    0 -0.57082703315E+02 -0.28453418076E+03 -0.48482236506E+03  0.10645144135E+04  0.90217519127E+03 0.  0.
         23    2    4    4    0    0 -0.43244524733E+03 -0.42191076278E+01 -0.36221442870E+03  0.57134217565E+03  0.90586403560E+02 0.  0.
         23    2    4    4    0    0  0.37536254401E+03 -0.28031507314E+03 -0.12260793636E+03  0.49317223780E+03  0.93341150650E+02 0.  0.
          2    1    3    3  502    0  0.21559512285E+02  0.21545723423E+03  0.37818988993E+03  0.43579149280E+03  0.00000000000E+00 0. -1.
         -3    1    3    3    0  502  0.35523191030E+02  0.69076946531E+02  0.23167006357E+03  0.24434512477E+03  0.00000000000E+00 0.  1.
         13    1    5    5    0    0 -0.36344910515E+03 -0.23847842766E+02 -0.26456447242E+03  0.45017588974E+03  0.00000000000E+00 0.  1.
        -13    1    5    5    0    0 -0.68996142180E+02  0.19628735138E+02 -0.97649956282E+02  0.12116628591E+03  0.00000000000E+00 0. -1.
          1    1    6    6  503    0  0.29132412828E+03 -0.18658679954E+03 -0.12334005657E+03  0.36728347504E+03  0.00000000000E+00 0. -1.
         -1    1    6    6    0  503  0.84038415733E+02 -0.93728273599E+02  0.73212020838E+00  0.12588876277E+03  0.00000000000E+00 0.  1.
<mgrwt>
<rscale>  0 0.17401646E+04</rscale>
<asrwt>0</asrwt>
<pdfrwt beam="1">  1        2 0.14382220E+00 0.17401646E+04</pdfrwt>
<pdfrwt beam="2">  1       -1 0.12458565E+00 0.17401646E+04</pdfrwt>
<totfact> 0.16972685E+01</totfact>
</mgrwt>
</event>
<event>
12    7  0.1572140E-007  0.1886427E+04  0.7818608E-02  0.8661642E-01
         -1   -1    0    0    0  501 -0.00000000000E+00  0.00000000000E+00  0.28800954650E+03  0.28800954650E+03  0.00000000000E+00 0.  1.
          2   -1    0    0  501    0  0.00000000000E+00 -0.00000000000E+00 -0.30889662550E+04  0.30889662550E+04  0.00000000000E+00 0. -1.
         24    2    1    2    0    0 -0.13632378549E+03 -0.67004328068E+03 -0.15162163130E+04  0.16651832090E+04  0.79881407351E+02 0.  0.
        254    2    1    2    0    0  0.13632378549E+03  0.67004328068E+03 -0.12847403955E+04  0.17117925925E+04  0.90118467776E+03 0.  0.
         23    2    4    4    0    0 -0.25306166427E+03 -0.47880064708E+02 -0.52915569919E+03  0.59543623086E+03  0.90586116590E+02 0.  0.
         23    2    4    4    0    0  0.38938544976E+03  0.71792334539E+03 -0.75558469633E+03  0.11163563617E+04  0.91150065995E+02 0.  0.
          4    1    3    3  502    0 -0.96986701262E+02 -0.56605680927E+03 -0.12090970433E+04  0.13385598199E+04  0.00000000000E+00 0. -1.
         -3    1    3    3    0  502 -0.39337084228E+02 -0.10398647141E+03 -0.30711926973E+03  0.32662338905E+03  0.00000000000E+00 0.  1.
         13    1    5    5    0    0 -0.25369955764E+03 -0.46740865003E+02 -0.53258176621E+03  0.59176981311E+03  0.00000000000E+00 0. -1.
        -13    1    5    5    0    0  0.63789336960E+00 -0.11391997048E+01  0.34260670198E+01  0.36664177534E+01  0.00000000000E+00 0.  1.
          4    1    6    6  503    0  0.30768320655E+03  0.48103647284E+03 -0.51398729349E+03  0.76827598015E+03  0.00000000000E+00 0. -1.
         -4    1    6    6    0  503  0.81702243208E+02  0.23688687255E+03 -0.24159740283E+03  0.34808038150E+03  0.00000000000E+00 0.  1.
<mgrwt>
<rscale>  0 0.18864271E+04</rscale>
<asrwt>0</asrwt>
<pdfrwt beam="1">  1        2 0.47522558E+00 0.18864271E+04</pdfrwt>
<pdfrwt beam="2">  1       -1 0.44309161E-01 0.18864271E+04</pdfrwt>
<totfact> 0.82598276E+00</totfact>
</mgrwt>
</event>
<event>
12    7  0.1572140E-007  0.1471548E+04  0.7818608E-02  0.8903597E-01
          2   -1    0    0  501    0  0.00000000000E+00  0.00000000000E+00  0.27648064384E+04  0.27648064384E+04  0.00000000000E+00 0. -1.
         -1   -1    0    0    0  501 -0.00000000000E+00 -0.00000000000E+00 -0.19580516104E+03  0.19580516104E+03  0.00000000000E+00 0.  1.
         24    2    1    2    0    0 -0.30993186271E+03 -0.13798188754E+03  0.14052629480E+04  0.14477907458E+04  0.78976768600E+02 0.  0.
        254    2    1    2    0    0  0.30993186271E+03  0.13798188754E+03  0.11637383294E+04  0.15128208536E+04  0.90512058588E+03 0.  0.
         23    2    4    4    0    0  0.24212248962E+03  0.36938918319E+03  0.16350226565E+03  0.47986923131E+03  0.92031623096E+02 0.  0.
         23    2    4    4    0    0  0.67809373094E+02 -0.23140729565E+03  0.10002360637E+04  0.10329516223E+04  0.91484551935E+02 0.  0.
          4    1    3    3  502    0 -0.35127675317E+02  0.70431830361E+01  0.10607818913E+03  0.11196491509E+03  0.00000000000E+00 0. -1.
         -1    1    3    3    0  502 -0.27480418740E+03 -0.14502507058E+03  0.12991847588E+04  0.13358258307E+04  0.00000000000E+00 0.  1.
         13    1    5    5    0    0 -0.68272378287E+01  0.25012297660E+02  0.13520144056E+02  0.29240733676E+02  0.00000000000E+00 0. -1.
        -13    1    5    5    0    0  0.24894972745E+03  0.34437688553E+03  0.14998212159E+03  0.45062849763E+03  0.00000000000E+00 0.  1.
          4    1    6    6  503    0  0.27441529088E+02 -0.63152435355E+01  0.14239308075E+03  0.14515064335E+03  0.00000000000E+00 0. -1.
         -4    1    6    6    0  503  0.40367844006E+02 -0.22509205211E+03  0.85784298296E+03  0.88780097892E+03  0.00000000000E+00 0.  1.
<mgrwt>
<rscale>  0 0.14715480E+04</rscale>
<asrwt>0</asrwt>
<pdfrwt beam="1">  1        2 0.42535481E+00 0.14715480E+04</pdfrwt>
<pdfrwt beam="2">  1       -1 0.30123873E-01 0.14715480E+04</pdfrwt>
<totfact> 0.27268892E+01</totfact>
</mgrwt>
</event>
<event>
12    7  0.1572140E-007  0.2292554E+04  0.7818608E-02  0.8480863E-01
         -1   -1    0    0    0  501 -0.00000000000E+00  0.00000000000E+00  0.14033417256E+04  0.14033417256E+04  0.00000000000E+00 0.  1.
          2   -1    0    0  501    0  0.00000000000E+00 -0.00000000000E+00 -0.93630177581E+03  0.93630177581E+03  0.00000000000E+00 0. -1.
         24    2    1    2    0    0 -0.67496339061E+03 -0.67883465210E+03  0.29663628600E+03  0.10053669078E+04  0.79859060130E+02 0.  0.
        254    2    1    2    0    0  0.67496339061E+03  0.67883465210E+03  0.17040366376E+03  0.13342765936E+04  0.91370922952E+03 0.  0.
         23    2    4    4    0    0  0.11057294634E+02 -0.15004600196E+03 -0.13998477778E+03  0.22439727698E+03  0.90123989249E+02 0.  0.
         23    2    4    4    0    0  0.66390609597E+03  0.82888065406E+03  0.31038844154E+03  0.11098793166E+04  0.87616607568E+02 0.  0.
          4    1    3    3  502    0 -0.62412810523E+03 -0.64838534173E+03  0.26487904219E+03  0.93813663722E+03  0.00000000000E+00 0. -1.
         -3    1    3    3    0  502 -0.50835285374E+02 -0.30449310372E+02  0.31757243814E+02  0.67230270532E+02  0.00000000000E+00 0.  1.
         13    1    5    5    0    0  0.49132502840E+02 -0.70693765885E+02 -0.82738246533E+02  0.11940363818E+03  0.00000000000E+00 0.  1.
        -13    1    5    5    0    0 -0.38075208206E+02 -0.79352236072E+02 -0.57246531248E+02  0.10499363880E+03  0.00000000000E+00 0. -1.
          3    1    6    6  503    0  0.11978978069E+03  0.10752160822E+03  0.64952283296E+02  0.17357789864E+03  0.00000000000E+00 0. -1.
         -3    1    6    6    0  503  0.54411631529E+03  0.72135904584E+03  0.24543615824E+03  0.93630141800E+03  0.00000000000E+00 0.  1.
<mgrwt>
<rscale>  0 0.22925543E+04</rscale>
<asrwt>0</asrwt>
<pdfrwt beam="1">  1        2 0.14404643E+00 0.22925543E+04</pdfrwt>
<pdfrwt beam="2">  1       -1 0.21589873E+00 0.22925543E+04</pdfrwt>
<totfact> 0.33632181E+00</totfact>
</mgrwt>
</event>
<event>
12    7  0.1572140E-007  0.2171175E+04  0.7818608E-02  0.8530522E-01
          2   -1    0    0  501    0  0.00000000000E+00  0.00000000000E+00  0.14101705341E+04  0.14101705341E+04  0.00000000000E+00 0. -1.
         -1   -1    0    0    0  501 -0.00000000000E+00 -0.00000000000E+00 -0.83571492003E+03  0.83571492003E+03  0.00000000000E+00 0.  1.
         24    2    1    2    0    0  0.11626715983E+03 -0.11123489408E+03 -0.67531064769E+03  0.69870566160E+03  0.79081455239E+02 0.  0.
        254    2    1    2    0    0 -0.11626715983E+03  0.11123489408E+03  0.12497662617E+04  0.15471797925E+04  0.89775182944E+03 0.  0.
         23    2    4    4    0    0 -0.11969495639E+03 -0.50320609648E+02 -0.99312200899E+02  0.18544181877E+03  0.87559742802E+02 0.  0.
         23    2    4    4    0    0  0.34277965567E+01  0.16155550373E+03  0.13490784626E+04  0.13617379737E+04  0.90585209695E+02 0.  0.
          4    1    3    3  502    0  0.93863330825E+02 -0.52245005138E+02 -0.52159790611E+03  0.53254506016E+03  0.00000000000E+00 0. -1.
         -3    1    3    3    0  502  0.22403829006E+02 -0.58989888941E+02 -0.15371274157E+03  0.16616060145E+03  0.00000000000E+00 0.  1.
         13    1    5    5    0    0  0.84262885755E+00 -0.14752131423E+02  0.10839461749E+02  0.18325646944E+02  0.00000000000E+00 0. -1.
        -13    1    5    5    0    0 -0.12053758525E+03 -0.35568478224E+02 -0.11015166265E+03  0.16711617182E+03  0.00000000000E+00 0.  1.
          3    1    6    6  503    0 -0.24579527605E+01  0.12020171702E+03  0.62517573354E+03  0.63663112719E+03  0.00000000000E+00 0. -1.
         -3    1    6    6    0  503  0.58857493172E+01  0.41353786706E+02  0.72390272910E+03  0.72510684655E+03  0.00000000000E+00 0.  1.
<mgrwt>
<rscale>  0 0.21711753E+04</rscale>
<asrwt>0</asrwt>
<pdfrwt beam="1">  1        2 0.21694931E+00 0.21711753E+04</pdfrwt>
<pdfrwt beam="2">  1       -1 0.12857153E+00 0.21711753E+04</pdfrwt>
<totfact> 0.77736763E+00</totfact>
</mgrwt>
</event>
<event>
12    7  0.1572140E-007  0.1313057E+04  0.7818608E-02  0.9019274E-01
          2   -1    0    0  501    0  0.00000000000E+00  0.00000000000E+00  0.34873752847E+04  0.34873752847E+04  0.00000000000E+00 0. -1.
         -1   -1    0    0    0  501 -0.00000000000E+00 -0.00000000000E+00 -0.12359718284E+03  0.12359718284E+03  0.00000000000E+00 0.  1.
         24    2    1    2    0    0 -0.88613601313E+02  0.22044220695E+03  0.15870198616E+04  0.16067543694E+04  0.81119822211E+02 0.  0.
        254    2    1    2    0    0  0.88613601313E+02 -0.22044220695E+03  0.17767582403E+04  0.20042180982E+04  0.89642244708E+03 0.  0.
         23    2    4    4    0    0  0.30978164648E+03 -0.46992859773E+03  0.12524231560E+04  0.13760668198E+04  0.90545984339E+02 0.  0.
         23    2    4    4    0    0 -0.22116804516E+03  0.24948639079E+03  0.52433508429E+03  0.62815127841E+03  0.92130258665E+02 0.  0.
          2    1    3    3  502    0 -0.70939901221E+02  0.21726746759E+03  0.13643184439E+04  0.13833301986E+04  0.00000000000E+00 0. -1.
         -1    1    3    3    0  502 -0.17673700092E+02  0.31747393586E+01  0.22270141770E+03  0.22342417079E+03  0.00000000000E+00 0.  1.
         13    1    5    5    0    0  0.13808239776E+03 -0.15704352729E+03  0.38578850218E+03  0.43881908168E+03  0.00000000000E+00 0. -1.
        -13    1    5    5    0    0  0.17169924872E+03 -0.31288507045E+03  0.86663465382E+03  0.93724773807E+03  0.00000000000E+00 0.  1.
          2    1    6    6  503    0 -0.12863075692E+03  0.14585043339E+03  0.38530033267E+03  0.43159537405E+03  0.00000000000E+00 0. -1.
         -2    1    6    6    0  503 -0.92537288242E+02  0.10363595740E+03  0.13903475162E+03  0.19655590436E+03  0.00000000000E+00 0.  1.
<mgrwt>
<rscale>  0 0.13130571E+04</rscale>
<asrwt>0</asrwt>
<pdfrwt beam="1">  1        2 0.53651920E+00 0.13130571E+04</pdfrwt>
<pdfrwt beam="2">  1       -1 0.19014954E-01 0.13130571E+04</pdfrwt>
<totfact> 0.21013973E+01</totfact>
</mgrwt>
</event>
<event>
12    7  0.1572140E-007  0.1669504E+04  0.7818608E-02  0.8778951E-01
          2   -1    0    0  501    0  0.00000000000E+00  0.00000000000E+00  0.75277736038E+03  0.75277736038E+03  0.00000000000E+00 0. -1.
         -1   -1    0    0    0  501 -0.00000000000E+00 -0.00000000000E+00 -0.92565316300E+03  0.92565316300E+03  0.00000000000E+00 0.  1.
         24    2    1    2    0    0 -0.16908407188E+03  0.28261138541E+03 -0.55125693427E+03  0.64710481135E+03  0.80011316466E+02 0.  0.
        254    2    1    2    0    0  0.16908407188E+03 -0.28261138541E+03  0.37838113164E+03  0.10313257120E+04  0.90111143871E+03 0.  0.
         23    2    4    4    0    0  0.82585456941E+02 -0.58618644029E+03  0.36724525036E+03  0.70256327081E+03  0.91055889983E+02 0.  0.
         23    2    4    4    0    0  0.86498614939E+02  0.30357505488E+03  0.11135881281E+02  0.32876244122E+03  0.91219025268E+02 0.  0.
          4    1    3    3  502    0 -0.12314248160E+03  0.18510120326E+03 -0.43529382364E+03  0.48878138173E+03  0.00000000000E+00 0. -1.
         -3    1    3    3    0  502 -0.45941590280E+02  0.97510182150E+02 -0.11596311063E+03  0.15832342962E+03  0.00000000000E+00 0.  1.
         13    1    5    5    0    0  0.18467821293E+02 -0.24214045243E+03  0.20041381867E+03  0.31486307793E+03  0.00000000000E+00 0. -1.
        -13    1    5    5    0    0  0.64117635648E+02 -0.34404598786E+03  0.16683143169E+03  0.38770019289E+03  0.00000000000E+00 0.  1.
          2    1    6    6  503    0  0.44987929957E+02  0.26775682683E+03  0.23606918925E+02  0.27253425248E+03  0.00000000000E+00 0. -1.
         -2    1    6    6    0  503  0.41510684982E+02  0.35818228053E+02 -0.12471037644E+02  0.56228188735E+02  0.00000000000E+00 0.  1.
<mgrwt>
<rscale>  0 0.16695038E+04</rscale>
<asrwt>0</asrwt>
<pdfrwt beam="1">  1        2 0.11581190E+00 0.16695038E+04</pdfrwt>
<pdfrwt beam="2">  1       -1 0.14240818E+00 0.16695038E+04</pdfrwt>
<totfact> 0.16291218E+01</totfact>
</mgrwt>
</event>
<event>
12    7  0.1572140E-007  0.1523144E+04  0.7818608E-02  0.8869207E-01
          2   -1    0    0  501    0  0.00000000000E+00  0.00000000000E+00  0.19563017540E+04  0.19563017540E+04  0.00000000000E+00 0. -1.
         -1   -1    0    0    0  501 -0.00000000000E+00 -0.00000000000E+00 -0.29647361485E+03  0.29647361485E+03  0.00000000000E+00 0.  1.
         24    2    1    2    0    0  0.20580132106E+02 -0.39543134057E+02  0.12592101842E+04  0.12621693338E+04  0.73986065535E+02 0.  0.
        254    2    1    2    0    0 -0.20580132106E+02  0.39543134057E+02  0.40061795494E+03  0.99060603505E+03  0.90488583234E+03 0.  0.
         23    2    4    4    0    0 -0.34384443641E+03 -0.22098457716E+03  0.18195789682E+02  0.41818110087E+03  0.86493737184E+02 0.  0.
         23    2    4    4    0    0  0.32326430430E+03  0.26052771121E+03  0.38242216526E+03  0.57242493419E+03  0.95126726260E+02 0.  0.
          4    1    3    3  502    0  0.36450453074E+02  0.57878750137E+01  0.66376725444E+03  0.66479252635E+03  0.00000000000E+00 0. -1.
         -1    1    3    3    0  502 -0.15870320967E+02 -0.45331009071E+02  0.59544292979E+03  0.59737680747E+03  0.00000000000E+00 0.  1.
         13    1    5    5    0    0 -0.14419538787E+03 -0.92612651666E+02 -0.35052406035E+02  0.17492308110E+03  0.00000000000E+00 0.  1.
        -13    1    5    5    0    0 -0.19964904854E+03 -0.12837192549E+03  0.53248195717E+02  0.24325801977E+03  0.00000000000E+00 0. -1.
          3    1    6    6  503    0  0.19819338412E+03  0.19094597401E+03  0.30063478439E+03  0.40758098101E+03  0.00000000000E+00 0. -1.
         -3    1    6    6    0  503  0.12507092019E+03  0.69581737205E+02  0.81787380874E+02  0.16484395318E+03  0.00000000000E+00 0.  1.
<mgrwt>
<rscale>  0 0.15231439E+04</rscale>
<asrwt>0</asrwt>
<pdfrwt beam="1">  1        2 0.30096949E+00 0.15231439E+04</pdfrwt>
<pdfrwt beam="2">  1       -1 0.45611326E-01 0.15231439E+04</pdfrwt>
<totfact> 0.37078945E+01</totfact>
</mgrwt>
</event>
<event>
12    7  0.1572140E-007  0.1579294E+04  0.7818608E-02  0.8833371E-01
         -1   -1    0    0    0  501 -0.00000000000E+00  0.00000000000E+00  0.32908787701E+03  0.32908787701E+03  0.00000000000E+00 0.  1.
          2   -1    0    0  501    0  0.00000000000E+00 -0.00000000000E+00 -0.18947589455E+04  0.18947589455E+04  0.00000000000E+00 0. -1.
         24    2    1    2    0    0 -0.22848125232E+03 -0.41131501798E+03 -0.16511423178E+03  0.50502658458E+03  0.80033836095E+02 0.  0.
        254    2    1    2    0    0  0.22848125232E+03  0.41131501798E+03 -0.14005568367E+04  0.17188202379E+04  0.87829370414E+03 0.  0.
         23    2    4    4    0    0  0.45675038450E+03  0.35806372188E+02 -0.37406681361E+03  0.59851018784E+03  0.91572123932E+02 0.  0.
         23    2    4    4    0    0 -0.22826913218E+03  0.37550864580E+03 -0.10264900231E+04  0.11203100500E+04  0.91100499415E+02 0.  0.
          2    1    3    3  502    0 -0.20473196398E+03 -0.39350845491E+03 -0.16981177399E+03  0.47497380954E+03  0.00000000000E+00 0. -1.
         -1    1    3    3    0  502 -0.23749288341E+02 -0.17806563074E+02  0.46975422114E+01  0.30052775047E+02  0.00000000000E+00 0.  1.
         13    1    5    5    0    0  0.35049257316E+02  0.11344015040E+02 -0.42418241962E+01  0.37082747851E+02  0.00000000000E+00 0.  1.
        -13    1    5    5    0    0  0.42170112718E+03  0.24462357147E+02 -0.36982498941E+03  0.56142743999E+03  0.00000000000E+00 0. -1.
          1    1    6    6  503    0 -0.17692527629E+03  0.33193210036E+03 -0.79988971480E+03  0.88391460474E+03  0.00000000000E+00 0. -1.
         -1    1    6    6    0  503 -0.51343855884E+02  0.43576545438E+02 -0.22660030828E+03  0.23639544531E+03  0.00000000000E+00 0.  1.
<mgrwt>
<rscale>  0 0.15792938E+04</rscale>
<asrwt>0</asrwt>
<pdfrwt beam="1">  1        2 0.29150138E+00 0.15792938E+04</pdfrwt>
<pdfrwt beam="2">  1       -1 0.50628904E-01 0.15792938E+04</pdfrwt>
<totfact> 0.32780810E+01</totfact>
</mgrwt>
</event>
<event>
12    7  0.1572140E-007  0.1919118E+04  0.7818608E-02  0.8645398E-01
         -1   -1    0    0    0  501 -0.00000000000E+00  0.00000000000E+00  0.46659552569E+03  0.46659552569E+03  0.00000000000E+00 0.  1.
          2   -1    0    0  501    0  0.00000000000E+00 -0.00000000000E+00 -0.19733439620E+04  0.19733439620E+04  0.00000000000E+00 0. -1.
         24    2    1    2    0    0 -0.61686828011E+02 -0.73257211054E+03 -0.42959387004E+03  0.85508826834E+03  0.78472234443E+02 0.  0.
        254    2    1    2    0    0  0.61686828011E+02  0.73257211054E+03 -0.10771545663E+04  0.15848512193E+04  0.90056885686E+03 0.  0.
         23    2    4    4    0    0  0.95521541724E+02  0.91803521542E+03 -0.73303578257E+03  0.11820474983E+04  0.89340964875E+02 0.  0.
         23    2    4    4    0    0 -0.33834713713E+02 -0.18546310487E+03 -0.34411878369E+03  0.40280372105E+03  0.91059042855E+02 0.  0.
          4    1    3    3  502    0  0.18904562942E+02 -0.13591402725E+03 -0.83305921628E+02  0.16053000306E+03  0.00000000000E+00 0. -1.
         -3    1    3    3    0  502 -0.80591390953E+02 -0.59665808329E+03 -0.34628794841E+03  0.69455826528E+03  0.00000000000E+00 0.  1.
         13    1    5    5    0    0  0.11074263178E+03  0.83861313958E+03 -0.65727716414E+03  0.10712372281E+04  0.00000000000E+00 0.  1.
        -13    1    5    5    0    0 -0.15221090054E+02  0.79422075832E+02 -0.75758618431E+02  0.11081027019E+03  0.00000000000E+00 0. -1.
          1    1    6    6  503    0  0.22947354918E+02 -0.97685030291E+02 -0.21010000478E+03  0.23283246820E+03  0.00000000000E+00 0. -1.
         -1    1    6    6    0  503 -0.56782068631E+02 -0.87778074581E+02 -0.13401877891E+03  0.16997125285E+03  0.00000000000E+00 0.  1.
<mgrwt>
<rscale>  0 0.19191180E+04</rscale>
<asrwt>0</asrwt>
<pdfrwt beam="1">  1        2 0.30359138E+00 0.19191180E+04</pdfrwt>
<pdfrwt beam="2">  1       -1 0.71783927E-01 0.19191180E+04</pdfrwt>
<totfact> 0.14419063E+01</totfact>
</mgrwt>
</event>
<event>
12    7  0.1572140E-007  0.1854928E+04  0.7818608E-02  0.8677623E-01
          2   -1    0    0  501    0  0.00000000000E+00  0.00000000000E+00  0.29499288106E+04  0.29499288106E+04  0.00000000000E+00 0. -1.
         -1   -1    0    0    0  501 -0.00000000000E+00 -0.00000000000E+00 -0.29159662319E+03  0.29159662319E+03  0.00000000000E+00 0.  1.
         24    2    1    2    0    0  0.89512644139E+02  0.38779648606E+03 -0.28483282562E+02  0.40665536938E+03  0.78477155912E+02 0.  0.
        254    2    1    2    0    0 -0.89512644139E+02 -0.38779648606E+03  0.26868154700E+04  0.28348700644E+04  0.81185730540E+03 0.  0.
         23    2    4    4    0    0 -0.20653485624E+03 -0.22312636940E+03  0.29690799785E+03  0.43477939952E+03  0.91851747358E+02 0.  0.
         23    2    4    4    0    0  0.11702221210E+03 -0.16467011666E+03  0.23899074721E+04  0.24000906649E+04  0.89258215100E+02 0.  0.
          4    1    3    3  502    0 -0.60421554387E+01  0.13599258118E+02 -0.13606549750E+02  0.20163969347E+02  0.00000000000E+00 0. -1.
         -3    1    3    3    0  502  0.95554799577E+02  0.37419722794E+03 -0.14876732811E+02  0.38649140004E+03  0.00000000000E+00 0.  1.
         13    1    5    5    0    0 -0.20974209982E+03 -0.20997648062E+03  0.25685149009E+03  0.39249784561E+03  0.00000000000E+00 0. -1.
        -13    1    5    5    0    0  0.32072435784E+01 -0.13149888776E+02  0.40056507766E+02  0.42281553904E+02  0.00000000000E+00 0.  1.
          2    1    6    6  503    0  0.77924946375E+01  0.10876028540E+02  0.19893936805E+03  0.19938877383E+03  0.00000000000E+00 0.  1.
         -2    1    6    6    0  503  0.10922971746E+03 -0.17554614520E+03  0.21909681041E+04  0.22007018911E+04  0.00000000000E+00 0. -1.
<mgrwt>
<rscale>  0 0.18549278E+04</rscale>
<asrwt>0</asrwt>
<pdfrwt beam="1">  1        2 0.45383518E+00 0.18549278E+04</pdfrwt>
<pdfrwt beam="2">  1       -1 0.44861021E-01 0.18549278E+04</pdfrwt>
<totfact> 0.98928531E+00</totfact>
</mgrwt>
</event>
<event>
12    7  0.1572140E-007  0.1236415E+04  0.7818608E-02  0.9081566E-01
         -1   -1    0    0    0  501 -0.00000000000E+00  0.00000000000E+00  0.34494847939E+03  0.34494847939E+03  0.00000000000E+00 0.  1.
          2   -1    0    0  501    0  0.00000000000E+00 -0.00000000000E+00 -0.11079355662E+04  0.11079355662E+04  0.00000000000E+00 0. -1.
         24    2    1    2    0    0  0.61150900361E+02  0.21306911550E+03 -0.36674224595E+03  0.43593911469E+03  0.80032219475E+02 0.  0.
        254    2    1    2    0    0 -0.61150900361E+02 -0.21306911550E+03 -0.39624484086E+03  0.10169449309E+04  0.90996106399E+03 0.  0.
         23    2    4    4    0    0  0.34326770762E+03 -0.23554438128E+03 -0.42339211216E+03  0.60077015117E+03  0.91378439784E+02 0.  0.
         23    2    4    4    0    0 -0.40441860798E+03  0.22475265773E+02  0.27147271302E+02  0.41617477972E+03  0.91678377438E+02 0.  0.
          4    1    3    3  502    0  0.30994871238E+02  0.19876536115E+03 -0.29831357305E+03  0.35980458405E+03  0.00000000000E+00 0. -1.
         -3    1    3    3    0  502  0.30156029123E+02  0.14303754356E+02 -0.68428672896E+02  0.76134530638E+02  0.00000000000E+00 0.  1.
         13    1    5    5    0    0  0.26860753550E+03 -0.14261487037E+03 -0.27142769570E+03  0.40762973809E+03  0.00000000000E+00 0.  1.
        -13    1    5    5    0    0  0.74660172116E+02 -0.92929510904E+02 -0.15196441646E+03  0.19314041309E+03  0.00000000000E+00 0. -1.
          2    1    6    6  503    0 -0.27273392544E+03  0.23144631500E+02  0.60520829763E+02  0.28032523769E+03  0.00000000000E+00 0. -1.
         -2    1    6    6    0  503 -0.13168468254E+03 -0.66936572640E+00 -0.33373558461E+02  0.13584954203E+03  0.00000000000E+00 0.  1.
<mgrwt>
<rscale>  0 0.12364153E+04</rscale>
<asrwt>0</asrwt>
<pdfrwt beam="1">  1        2 0.17045163E+00 0.12364153E+04</pdfrwt>
<pdfrwt beam="2">  1       -1 0.53068996E-01 0.12364153E+04</pdfrwt>
<totfact> 0.86565572E+01</totfact>
</mgrwt>
</event>
<event>
12    7  0.1572140E-007  0.3014908E+04  0.7818608E-02  0.8239487E-01
         -1   -1    0    0    0  501 -0.00000000000E+00  0.00000000000E+00  0.93416502921E+03  0.93416502921E+03  0.00000000000E+00 0.  1.
          2   -1    0    0  501    0  0.00000000000E+00 -0.00000000000E+00 -0.24325652429E+04  0.24325652429E+04  0.00000000000E+00 0. -1.
         24    2    1    2    0    0 -0.84493591555E+03  0.75605433321E+03  0.18501797812E+03  0.11515784324E+04  0.79789582610E+02 0.  0.
        254    2    1    2    0    0  0.84493591555E+03 -0.75605433321E+03 -0.16834181918E+04  0.22151518398E+04  0.88739281523E+03 0.  0.
         23    2    4    4    0    0  0.27780027363E+03 -0.81061798893E+03 -0.10489165561E+04  0.13577695087E+04  0.95066192554E+02 0.  0.
         23    2    4    4    0    0  0.56713564191E+03  0.54563655716E+02 -0.63450163569E+03  0.85738233109E+03  0.88837532141E+02 0.  0.
          2    1    3    3  502    0 -0.23925042976E+03  0.21049051881E+03  0.88456247164E+02  0.33071367421E+03  0.00000000000E+00 0. -1.
         -1    1    3    3    0  502 -0.60568548579E+03  0.54556381440E+03  0.96561730958E+02  0.82086475814E+03  0.00000000000E+00 0.  1.
         13    1    5    5    0    0  0.10605004284E+03 -0.38668414112E+03 -0.55371682848E+03  0.68364725021E+03  0.00000000000E+00 0. -1.
        -13    1    5    5    0    0  0.17175023079E+03 -0.42393384781E+03 -0.49519972766E+03  0.67412225847E+03  0.00000000000E+00 0.  1.
          1    1    6    6  503    0  0.36125864504E+03  0.11448867762E+02 -0.34610500673E+03  0.50042737822E+03  0.00000000000E+00 0. -1.
         -1    1    6    6    0  503  0.20587699687E+03  0.43114787954E+02 -0.28839662896E+03  0.35695495287E+03  0.00000000000E+00 0.  1.
<mgrwt>
<rscale>  0 0.30149079E+04</rscale>
<asrwt>0</asrwt>
<pdfrwt beam="1">  1        2 0.37424081E+00 0.30149079E+04</pdfrwt>
<pdfrwt beam="2">  1       -1 0.14371770E+00 0.30149079E+04</pdfrwt>
<totfact> 0.14474229E+00</totfact>
</mgrwt>
</event>
<event>
12    7  0.1572140E-007  0.1569345E+04  0.7818608E-02  0.8839605E-01
         -1   -1    0    0    0  501 -0.00000000000E+00  0.00000000000E+00  0.20776018240E+03  0.20776018240E+03  0.00000000000E+00 0.  1.
          2   -1    0    0  501    0  0.00000000000E+00 -0.00000000000E+00 -0.29635643373E+04  0.29635643373E+04  0.00000000000E+00 0. -1.
         24    2    1    2    0    0 -0.39135360218E+03  0.14421495693E+03 -0.15678593532E+04  0.16241568325E+04  0.75808109167E+02 0.  0.
        254    2    1    2    0    0  0.39135360218E+03 -0.14421495693E+03 -0.11879448017E+04  0.15471676872E+04  0.89919931311E+03 0.  0.
         23    2    4    4    0    0 -0.45106422573E+02  0.11967130790E+03 -0.97317617267E+03  0.98622458331E+03  0.95975280032E+02 0.  0.
         23    2    4    4    0    0  0.43646002475E+03 -0.26388626482E+03 -0.21476862902E+03  0.56094310388E+03  0.91642172706E+02 0.  0.
          2    1    3    3  502    0 -0.36509386441E+03  0.13504094828E+03 -0.15174351710E+04  0.15665692087E+04  0.00000000000E+00 0. -1.
         -1    1    3    3    0  502 -0.26259737764E+02  0.91740086470E+01 -0.50424182232E+02  0.57587623808E+02  0.00000000000E+00 0.  1.
         13    1    5    5    0    0  0.11565334809E+02 -0.14961377198E+01 -0.16290181430E+02  0.20034106128E+02  0.00000000000E+00 0.  1.
        -13    1    5    5    0    0 -0.56671757382E+02  0.12116744561E+03 -0.95688599124E+03  0.96619047718E+03  0.00000000000E+00 0. -1.
          3    1    6    6  503    0  0.17679733699E+03 -0.57785618438E+02 -0.63442911819E+02  0.19652348237E+03  0.00000000000E+00 0. -1.
         -3    1    6    6    0  503  0.25966268776E+03 -0.20610064638E+03 -0.15132571720E+03  0.36441962151E+03  0.00000000000E+00 0.  1.
<mgrwt>
<rscale>  0 0.15693447E+04</rscale>
<asrwt>0</asrwt>
<pdfrwt beam="1">  1        2 0.45593298E+00 0.15693447E+04</pdfrwt>
<pdfrwt beam="2">  1       -1 0.31963105E-01 0.15693447E+04</pdfrwt>
<totfact> 0.18433190E+01</totfact>
</mgrwt>
</event>
<event>
12    7  0.1572140E-007  0.4129906E+04  0.7818608E-02  0.7978841E-01
         -1   -1    0    0    0  501 -0.00000000000E+00  0.00000000000E+00  0.10529745938E+04  0.10529745938E+04  0.00000000000E+00 0.  1.
          2   -1    0    0  501    0  0.00000000000E+00 -0.00000000000E+00 -0.40495102468E+04  0.40495102468E+04  0.00000000000E+00 0. -1.
         24    2    1    2    0    0  0.12106305006E+04  0.24248909224E+03  0.46161332817E+03  0.13205236677E+04  0.79175269589E+02 0.  0.
        254    2    1    2    0    0 -0.12106305006E+04 -0.24248909224E+03 -0.34581489812E+04  0.37819611730E+04  0.90554335587E+03 0.  0.
         23    2    4    4    0    0 -0.60399904588E+03  0.31479790729E+03 -0.13072370343E+04  0.14768867592E+04  0.91723857028E+02 0.  0.
         23    2    4    4    0    0 -0.60663145473E+03 -0.55728699953E+03 -0.21509119469E+04  0.23050744138E+04  0.91516818641E+02 0.  0.
          4    1    3    3  502    0  0.15092290450E+03  0.22850344035E+02  0.30930782452E+02  0.15574522345E+03  0.00000000000E+00 0. -1.
         -3    1    3    3    0  502  0.10597075961E+04  0.21963874821E+03  0.43068254571E+03  0.11647784442E+04  0.00000000000E+00 0.  1.
         13    1    5    5    0    0 -0.48141471270E+03  0.27856762523E+03 -0.11150443322E+04  0.12460673779E+04  0.00000000000E+00 0. -1.
        -13    1    5    5    0    0 -0.12258433317E+03  0.36230282056E+02 -0.19219270210E+03  0.23081938138E+03  0.00000000000E+00 0.  1.
          1    1    6    6  503    0 -0.28553055213E+03 -0.31629794158E+03 -0.10445115143E+04  0.11280852749E+04  0.00000000000E+00 0. -1.
         -1    1    6    6    0  503 -0.32110090260E+03 -0.24098905794E+03 -0.11064004326E+04  0.11769891389E+04  0.00000000000E+00 0.  1.
<mgrwt>
<rscale>  0 0.41299062E+04</rscale>
<asrwt>0</asrwt>
<pdfrwt beam="1">  1        2 0.62300158E+00 0.41299062E+04</pdfrwt>
<pdfrwt beam="2">  1       -1 0.16199609E+00 0.41299062E+04</pdfrwt>
<totfact> 0.77585150E-02</totfact>
</mgrwt>
</event>
<event>
12    7  0.1572140E-007  0.2492255E+04  0.7818608E-02  0.8405750E-01
         -1   -1    0    0    0  501 -0.00000000000E+00  0.00000000000E+00  0.75118088434E+03  0.75118088434E+03  0.00000000000E+00 0.  1.
          2   -1    0    0  501    0  0.00000000000E+00 -0.00000000000E+00 -0.20671902578E+04  0.20671902578E+04  0.00000000000E+00 0. -1.
         24    2    1    2    0    0 -0.44444937697E+03  0.97961325613E+03 -0.71300025175E+03  0.12929693527E+04  0.78886042029E+02 0.  0.
        254    2    1    2    0    0  0.44444937697E+03 -0.97961325613E+03 -0.60300912173E+03  0.15254017895E+04  0.89780467711E+03 0.  0.
         23    2    4    4    0    0 -0.18633798908E+03  0.52106881738E+01 -0.12150880896E+01  0.20692572769E+03  0.89820837742E+02 0.  0.
         23    2    4    4    0    0  0.63078736605E+03 -0.98482394430E+03 -0.60179403364E+03  0.13184760618E+04  0.91935652493E+02 0.  0.
          2    1    3    3  502    0 -0.41896508757E+02  0.13365513108E+03 -0.69182882450E+02  0.15622190222E+03  0.00000000000E+00 0. -1.
         -1    1    3    3    0  502 -0.40255286821E+03  0.84595812505E+03 -0.64381736930E+03  0.11367474504E+04  0.00000000000E+00 0.  1.
         13    1    5    5    0    0 -0.13918640005E+03  0.47112781580E+01  0.39355904786E+02  0.14472020364E+03  0.00000000000E+00 0. -1.
        -13    1    5    5    0    0 -0.47151589036E+02  0.49941001583E+00 -0.40570992876E+02  0.62205524047E+02  0.00000000000E+00 0.  1.
          2    1    6    6  503    0  0.58352522636E+03 -0.89839431502E+03 -0.52186217692E+03  0.11916182974E+04  0.00000000000E+00 0.  1.
         -2    1    6    6    0  503  0.47262139690E+02 -0.86429629286E+02 -0.79931856717E+02  0.12685776438E+03  0.00000000000E+00 0. -1.
<mgrwt>
<rscale>  0 0.24922550E+04</rscale>
<asrwt>0</asrwt>
<pdfrwt beam="1">  1        2 0.31802927E+00 0.24922550E+04</pdfrwt>
<pdfrwt beam="2">  1       -1 0.11556629E+00 0.24922550E+04</pdfrwt>
<totfact> 0.42214402E+00</totfact>
</mgrwt>
</event>
<event>
12    7  0.2046659E-007  0.2556018E+04  0.7818608E-02  0.8383296E-01
         -1   -1    0    0    0  501 -0.00000000000E+00  0.00000000000E+00  0.71098642721E+03  0.71098642721E+03  0.00000000000E+00 0.  1.
          2   -1    0    0  501    0  0.00000000000E+00 -0.00000000000E+00 -0.22972398711E+04  0.22972398711E+04  0.00000000000E+00 0. -1.
         24    2    1    2    0    0  0.65288932356E+03  0.74828079029E+03 -0.83110069491E+02  0.99941541234E+03  0.75731584163E+02 0.  0.
        254    2    1    2    0    0 -0.65288932356E+03 -0.74828079029E+03 -0.15031433744E+04  0.20088108859E+04  0.88864647728E+03 0.  0.
         23    2    4    4    0    0 -0.91201447837E+01 -0.35341192810E+03 -0.10761897590E+04  0.11365767463E+04  0.92946946506E+02 0.  0.
         23    2    4    4    0    0 -0.64376917878E+03 -0.39486886218E+03 -0.42695361539E+03  0.87223413967E+03  0.90237635334E+02 0.  0.
          4    1    3    3  502    0  0.10807896527E+03  0.10372297010E+03  0.11109479061E+02  0.15020964612E+03  0.00000000000E+00 0. -1.
         -3    1    3    3    0  502  0.54481035829E+03  0.64455782018E+03 -0.94219548552E+02  0.84920576623E+03  0.00000000000E+00 0.  1.
         13    1    5    5    0    0 -0.97901620058E+01 -0.30431111610E+03 -0.10048954184E+04  0.10500075735E+04  0.00000000000E+00 0. -1.
        -13    1    5    5    0    0  0.67001722211E+00 -0.49100812001E+02 -0.71294340607E+02  0.86569172716E+02  0.00000000000E+00 0.  1.
          4    1    6    6  503    0 -0.25955099110E+03 -0.17208573294E+03 -0.12710812466E+03  0.33635798165E+03  0.00000000000E+00 0.  1.
         -4    1    6    6    0  503 -0.38421818768E+03 -0.22278312924E+03 -0.29984549074E+03  0.53587615802E+03  0.00000000000E+00 0. -1.
<mgrwt>
<rscale>  0 0.25560175E+04</rscale>
<asrwt>0</asrwt>
<pdfrwt beam="1">  1        2 0.35342153E+00 0.25560175E+04</pdfrwt>
<pdfrwt beam="2">  1       -1 0.10938252E+00 0.25560175E+04</pdfrwt>
<totfact> 0.35527934E+00</totfact>
</mgrwt>
</event>
<event>
12    7  0.1572140E-007  0.2351670E+04  0.7818608E-02  0.8457822E-01
         -1   -1    0    0    0  501 -0.00000000000E+00  0.00000000000E+00  0.64442731295E+03  0.64442731295E+03  0.00000000000E+00 0.  1.
          2   -1    0    0  501    0  0.00000000000E+00 -0.00000000000E+00 -0.21454530011E+04  0.21454530011E+04  0.00000000000E+00 0. -1.
         24    2    1    2    0    0 -0.73455523107E+03  0.10630929586E+03 -0.14078668145E+04  0.15935376442E+04  0.80001264482E+02 0.  0.
        254    2    1    2    0    0  0.73455523107E+03 -0.10630929586E+03 -0.93158873652E+02  0.11963426698E+04  0.93364027014E+03 0.  0.
         23    2    4    4    0    0  0.85031484025E+03  0.16851693213E+03 -0.13723566481E+03  0.88244995362E+03  0.91929369528E+02 0.  0.
         23    2    4    4    0    0 -0.11575960918E+03 -0.27482622799E+03  0.44076791153E+02  0.31389271621E+03  0.87499320359E+02 0.  0.
          4    1    3    3  502    0 -0.53089634920E+03  0.10581499544E+03 -0.10668705183E+04  0.11963529787E+04  0.00000000000E+00 0. -1.
         -1    1    3    3    0  502 -0.20365888186E+03  0.49430041799E+00 -0.34099629615E+03  0.39718466547E+03  0.00000000000E+00 0.  1.
         13    1    5    5    0    0  0.80194153462E+03  0.14657161415E+03 -0.14718911087E+03  0.82840696363E+03  0.00000000000E+00 0.  1.
        -13    1    5    5    0    0  0.48373305626E+02  0.21945317977E+02  0.99534460667E+01  0.54042989988E+02  0.00000000000E+00 0. -1.
          2    1    6    6  503    0 -0.10365231301E+03 -0.22288213178E+03  0.68585891698E+02  0.25519457518E+03  0.00000000000E+00 0.  1.
         -2    1    6    6    0  503 -0.12107296176E+02 -0.51944096203E+02 -0.24509100545E+02  0.58698141032E+02  0.00000000000E+00 0. -1.
<mgrwt>
<rscale>  0 0.23516705E+04</rscale>
<asrwt>0</asrwt>
<pdfrwt beam="1">  1        2 0.33006969E+00 0.23516705E+04</pdfrwt>
<pdfrwt beam="2">  1       -1 0.99142663E-01 0.23516705E+04</pdfrwt>
<totfact> 0.55329024E+00</totfact>
</mgrwt>
</event>
<event>
12    7  0.1572140E-007  0.2657542E+04  0.7818608E-02  0.8348914E-01
          2   -1    0    0  501    0  0.00000000000E+00  0.00000000000E+00  0.28879771167E+04  0.28879771167E+04  0.00000000000E+00 0. -1.
         -1   -1    0    0    0  501 -0.00000000000E+00 -0.00000000000E+00 -0.61137324995E+03  0.61137324995E+03  0.00000000000E+00 0.  1.
         24    2    1    2    0    0  0.14139773398E+03  0.10931834880E+04  0.15512724477E+04  0.19047254361E+04  0.80556331206E+02 0.  0.
        254    2    1    2    0    0 -0.14139773398E+03 -0.10931834880E+04  0.72533141903E+03  0.15946249305E+04  0.89536559237E+03 0.  0.
         23    2    4    4    0    0 -0.13261949153E+03 -0.21997191158E+03  0.66001746281E+03  0.71465868792E+03  0.95595070953E+02 0.  0.
         23    2    4    4    0    0 -0.87782424529E+01 -0.87321157639E+03  0.65313956216E+02  0.87996624258E+03  0.86597693447E+02 0.  0.
          4    1    3    3  502    0  0.84169931674E+02  0.86011383780E+03  0.11796420435E+04  0.14623391338E+04  0.00000000000E+00 0. -1.
         -3    1    3    3    0  502  0.57227802305E+02  0.23306965018E+03  0.37163040415E+03  0.44238630232E+03  0.00000000000E+00 0.  1.
         13    1    5    5    0    0 -0.14020800891E+03 -0.21290103761E+03  0.57454953223E+03  0.62856368219E+03  0.00000000000E+00 0. -1.
        -13    1    5    5    0    0  0.75885173846E+01 -0.70708739682E+01  0.85467930578E+02  0.86095005732E+02  0.00000000000E+00 0.  1.
          2    1    6    6  503    0  0.38662528028E+02 -0.42885484309E+03  0.37317366541E+02  0.43220811349E+03  0.00000000000E+00 0. -1.
         -2    1    6    6    0  503 -0.47440770481E+02 -0.44435673330E+03  0.27996589675E+02  0.44775812909E+03  0.00000000000E+00 0.  1.
<mgrwt>
<rscale>  0 0.26575417E+04</rscale>
<asrwt>0</asrwt>
<pdfrwt beam="1">  1        2 0.44430417E+00 0.26575417E+04</pdfrwt>
<pdfrwt beam="2">  1       -1 0.94057424E-01 0.26575417E+04</pdfrwt>
<totfact> 0.22391326E+00</totfact>
</mgrwt>
</event>
<event>
12    7  0.1572140E-007  0.2689131E+04  0.7818608E-02  0.8338540E-01
         -1   -1    0    0    0  501 -0.00000000000E+00  0.00000000000E+00  0.67251577385E+03  0.67251577385E+03  0.00000000000E+00 0.  1.
          2   -1    0    0  501    0  0.00000000000E+00 -0.00000000000E+00 -0.26881984083E+04  0.26881984083E+04  0.00000000000E+00 0. -1.
         24    2    1    2    0    0 -0.63197978442E+03 -0.84799109767E+03 -0.15956710866E+04  0.19158677191E+04  0.76782489542E+02 0.  0.
        254    2    1    2    0    0  0.63197978442E+03  0.84799109767E+03 -0.42001154782E+03  0.14448464631E+04  0.89032817088E+03 0.  0.
         23    2    4    4    0    0  0.53418189809E+03  0.18497190027E+02 -0.17918756783E+03  0.57055486280E+03  0.87933046764E+02 0.  0.
         23    2    4    4    0    0  0.97797886334E+02  0.82949390765E+03 -0.24082397999E+03  0.87429160026E+03  0.93621811333E+02 0.  0.
          4    1    3    3  502    0 -0.11109736896E+03 -0.15814912482E+03 -0.24134724026E+03  0.30919615368E+03  0.00000000000E+00 0. -1.
         -3    1    3    3    0  502 -0.52088241546E+03 -0.68984197285E+03 -0.13543238463E+04  0.16066715654E+04  0.00000000000E+00 0.  1.
         13    1    5    5    0    0  0.14040011555E+03 -0.22522381415E+02 -0.76833953905E+02  0.16162582276E+03  0.00000000000E+00 0.  1.
        -13    1    5    5    0    0  0.39378178254E+03  0.41019571441E+02 -0.10235361392E+03  0.40892904003E+03  0.00000000000E+00 0. -1.
          3    1    6    6  503    0  0.43251382487E+02  0.67662703778E+03 -0.20090562800E+03  0.70714772269E+03  0.00000000000E+00 0. -1.
         -3    1    6    6    0  503  0.54546503847E+02  0.15286686986E+03 -0.39918351993E+02  0.16714387757E+03  0.00000000000E+00 0.  1.
<mgrwt>
<rscale>  0 0.26891306E+04</rscale>
<asrwt>0</asrwt>
<pdfrwt beam="1">  1        2 0.41356899E+00 0.26891306E+04</pdfrwt>
<pdfrwt beam="2">  1       -1 0.10346396E+00 0.26891306E+04</pdfrwt>
<totfact> 0.23730584E+00</totfact>
</mgrwt>
</event>
<event>
12    7  0.1572140E-007  0.1426642E+04  0.7818608E-02  0.8934756E-01
         -1   -1    0    0    0  501 -0.00000000000E+00  0.00000000000E+00  0.30550631336E+03  0.30550631336E+03  0.00000000000E+00 0.  1.
          2   -1    0    0  501    0  0.00000000000E+00 -0.00000000000E+00 -0.16655204006E+04  0.16655204006E+04  0.00000000000E+00 0. -1.
         24    2    1    2    0    0  0.10947267311E+03 -0.23667511781E+03 -0.89538130800E+03  0.93605170963E+03  0.80534084874E+02 0.  0.
        254    2    1    2    0    0 -0.10947267311E+03  0.23667511781E+03 -0.46463277919E+03  0.10349750043E+04  0.88729378588E+03 0.  0.
         23    2    4    4    0    0  0.38024782548E+02 -0.32323132462E+03 -0.14739811034E+03  0.36857515771E+03  0.90537675280E+02 0.  0.
         23    2    4    4    0    0 -0.14749745566E+03  0.55990644243E+03 -0.31723466885E+03  0.66639984658E+03  0.90554937476E+02 0.  0.
          2    1    3    3  502    0  0.11719041019E+03 -0.22530420795E+03 -0.79097578022E+03  0.83074560682E+03  0.00000000000E+00 0. -1.
         -1    1    3    3    0  502 -0.77177370732E+01 -0.11370909866E+02 -0.10440552779E+03  0.10530610281E+03  0.00000000000E+00 0.  1.
         13    1    5    5    0    0  0.38244697078E+02 -0.24231141243E+03 -0.15013736139E+03  0.28760859642E+03  0.00000000000E+00 0.  1.
        -13    1    5    5    0    0 -0.21991453045E+00 -0.80919912189E+02  0.27392510466E+01  0.80966561291E+02  0.00000000000E+00 0. -1.
          3    1    6    6  503    0  0.33306191761E+01  0.38431795528E+02 -0.44488890717E+02  0.58884270640E+02  0.00000000000E+00 0. -1.
         -3    1    6    6    0  503 -0.15082807484E+03  0.52147464690E+03 -0.27274577813E+03  0.60751557594E+03  0.00000000000E+00 0.  1.
<mgrwt>
<rscale>  0 0.14266422E+04</rscale>
<asrwt>0</asrwt>
<pdfrwt beam="1">  1        2 0.25623391E+00 0.14266422E+04</pdfrwt>
<pdfrwt beam="2">  1       -1 0.47000972E-01 0.14266422E+04</pdfrwt>
<totfact> 0.51198014E+01</totfact>
</mgrwt>
</event>
<event>
12    7  0.1572140E-007  0.2504813E+04  0.7818608E-02  0.8401273E-01
          2   -1    0    0  501    0  0.00000000000E+00  0.00000000000E+00  0.19516763661E+04  0.19516763661E+04  0.00000000000E+00 0. -1.
         -1   -1    0    0    0  501 -0.00000000000E+00 -0.00000000000E+00 -0.80367966356E+03  0.80367966356E+03  0.00000000000E+00 0.  1.
         24    2    1    2    0    0 -0.28460149740E+03 -0.43901908448E+03  0.15666233784E+04  0.16534754572E+04  0.77048744098E+02 0.  0.
        254    2    1    2    0    0  0.28460149740E+03  0.43901908448E+03 -0.41862667590E+03  0.11018805724E+04  0.87473237807E+03 0.  0.
         23    2    4    4    0    0  0.50727492642E+03  0.49306160162E+03 -0.13221064669E+03  0.72543216131E+03  0.91293874932E+02 0.  0.
         23    2    4    4    0    0 -0.22267342902E+03 -0.54042517141E+02 -0.28641602921E+03  0.37644841111E+03  0.84706639596E+02 0.  0.
          4    1    3    3  502    0 -0.16827824133E+03 -0.27503059508E+03  0.84701536525E+03  0.90630812845E+03  0.00000000000E+00 0. -1.
         -3    1    3    3    0  502 -0.11632325607E+03 -0.16398848940E+03  0.71960801320E+03  0.74716732879E+03  0.00000000000E+00 0.  1.
         13    1    5    5    0    0  0.46263161827E+03  0.42566243810E+03 -0.14047938448E+03  0.64416689056E+03  0.00000000000E+00 0. -1.
        -13    1    5    5    0    0  0.44643308149E+02  0.67399163516E+02  0.82687377829E+01  0.81265270748E+02  0.00000000000E+00 0.  1.
          1    1    6    6  503    0 -0.17936258709E+03 -0.16927712692E+02 -0.25218485004E+03  0.30992690057E+03  0.00000000000E+00 0. -1.
         -1    1    6    6    0  503 -0.43310841931E+02 -0.37114804449E+02 -0.34231179161E+02  0.66521510542E+02  0.00000000000E+00 0.  1.
<mgrwt>
<rscale>  0 0.25048135E+04</rscale>
<asrwt>0</asrwt>
<pdfrwt beam="1">  1        2 0.30025790E+00 0.25048135E+04</pdfrwt>
<pdfrwt beam="2">  1       -1 0.12364303E+00 0.25048135E+04</pdfrwt>
<totfact> 0.41463943E+00</totfact>
</mgrwt>
</event>
<event>
12    7  0.1572140E-007  0.2879633E+04  0.7818608E-02  0.8278963E-01
          2   -1    0    0  501    0  0.00000000000E+00  0.00000000000E+00  0.30416958528E+04  0.30416958528E+04  0.00000000000E+00 0. -1.
         -1   -1    0    0    0  501 -0.00000000000E+00 -0.00000000000E+00 -0.68155128934E+03  0.68155128934E+03  0.00000000000E+00 0.  1.
         24    2    1    2    0    0  0.11469726330E+04 -0.58339914888E+03  0.83939125663E+03  0.15383747822E+04  0.78220847719E+02 0.  0.
        254    2    1    2    0    0 -0.11469726330E+04  0.58339914888E+03  0.15207533069E+04  0.21848723600E+04  0.89726017481E+03 0.  0.
         23    2    4    4    0    0 -0.52582391184E+03 -0.19027760603E+03  0.46699064056E+03  0.73463023888E+03  0.94366179725E+02 0.  0.
         23    2    4    4    0    0 -0.62114872116E+03  0.77367675491E+03  0.10537626663E+04  0.14502421211E+04  0.91569634933E+02 0.  0.
          4    1    3    3  502    0  0.13793741931E+02 -0.69171656278E+00  0.16593865766E+02  0.21589399466E+02  0.00000000000E+00 0. -1.
         -3    1    3    3    0  502  0.11331788911E+04 -0.58270743232E+03  0.82279739086E+03  0.15167853827E+04  0.00000000000E+00 0.  1.
         13    1    5    5    0    0 -0.50265662200E+03 -0.18808079263E+03  0.41756082014E+03  0.67999639904E+03  0.00000000000E+00 0.  1.
        -13    1    5    5    0    0 -0.23167289841E+02 -0.21968134080E+01  0.49429820427E+02  0.54633839835E+02  0.00000000000E+00 0. -1.
          3    1    6    6  503    0 -0.11072886999E+03  0.15214748810E+03  0.15166085133E+03  0.24168316989E+03  0.00000000000E+00 0. -1.
         -3    1    6    6    0  503 -0.51041985118E+03  0.62152926682E+03  0.90210181496E+03  0.12085589512E+04  0.00000000000E+00 0.  1.
<mgrwt>
<rscale>  0 0.28796331E+04</rscale>
<asrwt>0</asrwt>
<pdfrwt beam="1">  1        2 0.46795320E+00 0.28796331E+04</pdfrwt>
<pdfrwt beam="2">  1       -1 0.10485405E+00 0.28796331E+04</pdfrwt>
<totfact> 0.13745684E+00</totfact>
</mgrwt>
</event>
<event>
12    7  0.1572140E-007  0.1627747E+04  0.7818608E-02  0.8803681E-01
         -1   -1    0    0    0  501 -0.00000000000E+00  0.00000000000E+00  0.27492133112E+03  0.27492133112E+03  0.00000000000E+00 0.  1.
          2   -1    0    0  501    0  0.00000000000E+00 -0.00000000000E+00 -0.24093800493E+04  0.24093800493E+04  0.00000000000E+00 0. -1.
         24    2    1    2    0    0  0.91743620055E+02 -0.42593646536E+03 -0.15935386937E+03  0.47070795162E+03  0.79583639597E+02 0.  0.
        254    2    1    2    0    0 -0.91743620055E+02  0.42593646536E+03 -0.19751048488E+04  0.22135934288E+04  0.89950983314E+03 0.  0.
         23    2    4    4    0    0 -0.35582430952E+03  0.56835449537E+02 -0.15199673221E+04  0.15645928771E+04  0.88368565098E+02 0.  0.
         23    2    4    4    0    0  0.26408068947E+03  0.36910101583E+03 -0.45513752674E+03  0.64900055172E+03  0.89874231301E+02 0.  0.
          4    1    3    3  502    0  0.64400261325E+02 -0.12386100368E+03 -0.50419043023E+02  0.14842850734E+03  0.00000000000E+00 0. -1.
         -3    1    3    3    0  502  0.27343358730E+02 -0.30207546168E+03 -0.10893482635E+03  0.32227944428E+03  0.00000000000E+00 0.  1.
         13    1    5    5    0    0 -0.32654016061E+03  0.68557143583E+02 -0.12891039313E+04  0.13315845839E+04  0.00000000000E+00 0.  1.
        -13    1    5    5    0    0 -0.29284148909E+02 -0.11721694045E+02 -0.23086339074E+03  0.23300829315E+03  0.00000000000E+00 0. -1.
          1    1    6    6  503    0  0.34030016898E+02  0.12259034958E+02 -0.53349109950E+02  0.64455050389E+02  0.00000000000E+00 0. -1.
         -1    1    6    6    0  503  0.23005067257E+03  0.35684198087E+03 -0.40178841679E+03  0.58454550133E+03  0.00000000000E+00 0.  1.
<mgrwt>
<rscale>  0 0.16277469E+04</rscale>
<asrwt>0</asrwt>
<pdfrwt beam="1">  1        2 0.37067386E+00 0.16277469E+04</pdfrwt>
<pdfrwt beam="2">  1       -1 0.42295589E-01 0.16277469E+04</pdfrwt>
<totfact> 0.23552333E+01</totfact>
</mgrwt>
</event>
<event>
12    7  0.1572140E-007  0.2030618E+04  0.7818608E-02  0.8592438E-01
          2   -1    0    0  501    0  0.00000000000E+00  0.00000000000E+00  0.10516571328E+04  0.10516571328E+04  0.00000000000E+00 0. -1.
         -1   -1    0    0    0  501 -0.00000000000E+00 -0.00000000000E+00 -0.98021731231E+03  0.98021731231E+03  0.00000000000E+00 0.  1.
         24    2    1    2    0    0 -0.79193036807E+02 -0.36275330372E+03  0.75327379863E+03  0.84366004765E+03  0.80494495847E+02 0.  0.
        254    2    1    2    0    0  0.79193036807E+02  0.36275330372E+03 -0.68183397811E+03  0.11882143975E+04  0.89949673944E+03 0.  0.
         23    2    4    4    0    0 -0.21143512797E+03  0.42720789947E+03 -0.54094941531E+02  0.48750881335E+03  0.86759308909E+02 0.  0.
         23    2    4    4    0    0  0.29062816478E+03 -0.64454595756E+02 -0.62773903657E+03  0.70070558414E+03  0.91175065298E+02 0.  0.
          2    1    3    3  502    0 -0.58554154149E+02 -0.33677034696E+03  0.63920236572E+03  0.72486034510E+03  0.00000000000E+00 0. -1.
         -1    1    3    3    0  502 -0.20638882658E+02 -0.25982956756E+02  0.11407143291E+03  0.11879970255E+03  0.00000000000E+00 0.  1.
         13    1    5    5    0    0  0.37246265722E+01  0.34552672893E+02 -0.15669743197E+02  0.38122183817E+02  0.00000000000E+00 0. -1.
        -13    1    5    5    0    0 -0.21515975454E+03  0.39265522658E+03 -0.38425198335E+02  0.44938662953E+03  0.00000000000E+00 0.  1.
          3    1    6    6  503    0  0.48334688293E+02 -0.38370984545E+02 -0.78678728178E+02  0.99994583929E+02  0.00000000000E+00 0. -1.
         -3    1    6    6    0  503  0.24229347648E+03 -0.26083611211E+02 -0.54906030840E+03  0.60071100021E+03  0.00000000000E+00 0.  1.
<mgrwt>
<rscale>  0 0.20306182E+04</rscale>
<asrwt>0</asrwt>
<pdfrwt beam="1">  1        2 0.16179341E+00 0.20306182E+04</pdfrwt>
<pdfrwt beam="2">  1       -1 0.15080266E+00 0.20306182E+04</pdfrwt>
<totfact> 0.84891709E+00</totfact>
</mgrwt>
</event>
<event>
12    7  0.1572140E-007  0.1331941E+04  0.7818608E-02  0.9004612E-01
         -1   -1    0    0    0  501 -0.00000000000E+00  0.00000000000E+00  0.20566276805E+03  0.20566276805E+03  0.00000000000E+00 0.  1.
          2   -1    0    0  501    0  0.00000000000E+00 -0.00000000000E+00 -0.21565253136E+04  0.21565253136E+04  0.00000000000E+00 0. -1.
         24    2    1    2    0    0 -0.22909168623E+03 -0.24152582562E+03 -0.32188450719E+03  0.46968581359E+03  0.78596452662E+02 0.  0.
        254    2    1    2    0    0  0.22909168623E+03  0.24152582562E+03 -0.16289780383E+04  0.18925022681E+04  0.90397879403E+03 0.  0.
         23    2    4    4    0    0  0.14811779555E+03 -0.50266806994E+02 -0.15577068399E+04  0.15682540214E+04  0.92219538698E+02 0.  0.
         23    2    4    4    0    0  0.80973890679E+02  0.29179263262E+03 -0.71271198453E+02  0.32424824667E+03  0.91420076116E+02 0.  0.
          4    1    3    3  502    0 -0.92182919774E+02 -0.11281639687E+03 -0.90095375162E+02  0.17129625427E+03  0.00000000000E+00 0. -1.
         -3    1    3    3    0  502 -0.13690876645E+03 -0.12870942875E+03 -0.23178913203E+03  0.29838955932E+03  0.00000000000E+00 0.  1.
         13    1    5    5    0    0  0.44162053900E+02 -0.57593628969E+01 -0.88411094442E+03  0.88523195791E+03  0.00000000000E+00 0. -1.
        -13    1    5    5    0    0  0.10395574165E+03 -0.44507444097E+02 -0.67359589548E+03  0.68302206348E+03  0.00000000000E+00 0.  1.
          1    1    6    6  503    0  0.32892696842E+02  0.17552411141E+02 -0.15046982826E+02  0.40204829742E+02  0.00000000000E+00 0. -1.
         -1    1    6    6    0  503  0.48081193836E+02  0.27424022148E+03 -0.56224215627E+02  0.28404341693E+03  0.00000000000E+00 0.  1.
<mgrwt>
<rscale>  0 0.13319414E+04</rscale>
<asrwt>0</asrwt>
<pdfrwt beam="1">  1        2 0.33177314E+00 0.13319414E+04</pdfrwt>
<pdfrwt beam="2">  1       -1 0.31640425E-01 0.13319414E+04</pdfrwt>
<totfact> 0.56621568E+01</totfact>
</mgrwt>
</event>
<event>
12    7  0.1572140E-007  0.1172260E+04  0.7818608E-02  0.9137490E-01
          2   -1    0    0  501    0  0.00000000000E+00  0.00000000000E+00  0.18000358189E+04  0.18000358189E+04  0.00000000000E+00 0. -1.
         -1   -1    0    0    0  501 -0.00000000000E+00 -0.00000000000E+00 -0.19085633532E+03  0.19085633532E+03  0.00000000000E+00 0.  1.
         24    2    1    2    0    0 -0.25790064015E+02 -0.22666054355E+03  0.30334137041E+03  0.38753807108E+03  0.78292018281E+02 0.  0.
        254    2    1    2    0    0  0.25790064015E+02  0.22666054355E+03  0.13058381132E+04  0.16033540831E+04  0.90193736407E+03 0.  0.
         23    2    4    4    0    0 -0.30565577260E+03  0.41609622517E+03  0.61018242971E+03  0.80451548144E+03  0.91438735988E+02 0.  0.
         23    2    4    4    0    0  0.33144583661E+03 -0.18943568162E+03  0.69565568346E+03  0.79883860169E+03  0.92000334482E+02 0.  0.
          4    1    3    3  502    0 -0.22154874939E+02 -0.22033366993E+03  0.25113057465E+03  0.33481984725E+03  0.00000000000E+00 0. -1.
         -3    1    3    3    0  502 -0.36351890760E+01 -0.63268736216E+01  0.52210795764E+02  0.52718223830E+02  0.00000000000E+00 0.  1.
         13    1    5    5    0    0 -0.16401297729E+02  0.67001487253E+02  0.58463037432E+02  0.90421947596E+02  0.00000000000E+00 0.  1.
        -13    1    5    5    0    0 -0.28925447487E+03  0.34909473792E+03  0.55171939227E+03  0.71409353385E+03  0.00000000000E+00 0. -1.
          3    1    6    6  503    0  0.29015058850E+03 -0.13116427257E+03  0.60236726388E+03  0.68134994752E+03  0.00000000000E+00 0. -1.
         -3    1    6    6    0  503  0.41295248118E+02 -0.58271409046E+02  0.93288419582E+02  0.11748865416E+03  0.00000000000E+00 0.  1.
<mgrwt>
<rscale>  0 0.11722598E+04</rscale>
<asrwt>0</asrwt>
<pdfrwt beam="1">  1        2 0.27692858E+00 0.11722598E+04</pdfrwt>
<pdfrwt beam="2">  1       -1 0.29362514E-01 0.11722598E+04</pdfrwt>
<totfact> 0.10298917E+02</totfact>
</mgrwt>
</event>
<event>
12    7  0.1572140E-007  0.1943094E+04  0.7818608E-02  0.8633698E-01
          2   -1    0    0  501    0  0.00000000000E+00  0.00000000000E+00  0.14739068156E+04  0.14739068156E+04  0.00000000000E+00 0. -1.
         -1   -1    0    0    0  501 -0.00000000000E+00 -0.00000000000E+00 -0.64040899198E+03  0.64040899198E+03  0.00000000000E+00 0.  1.
         24    2    1    2    0    0  0.22606943101E+03 -0.27882776471E+03  0.10628661878E+04  0.11246067191E+04  0.78761853783E+02 0.  0.
        254    2    1    2    0    0 -0.22606943101E+03  0.27882776471E+03 -0.22936836413E+03  0.98970908846E+03  0.89334311622E+03 0.  0.
         23    2    4    4    0    0  0.10392785728E+03  0.32789733522E+03  0.22353022281E+03  0.41990729000E+03  0.89658851867E+02 0.  0.
         23    2    4    4    0    0 -0.32999728829E+03 -0.49069570514E+02 -0.45289858694E+03  0.56980179846E+03  0.90834610449E+02 0.  0.
          2    1    3    3  502    0  0.15137793393E+03 -0.17693737594E+03  0.56820466279E+03  0.61406730308E+03  0.00000000000E+00 0. -1.
         -1    1    3    3    0  502  0.74691497079E+02 -0.10189038877E+03  0.49466152498E+03  0.51053941606E+03  0.00000000000E+00 0.  1.
         13    1    5    5    0    0  0.65050007140E+02  0.29538751629E+03  0.20732583203E+03  0.36670054382E+03  0.00000000000E+00 0. -1.
        -13    1    5    5    0    0  0.38877850135E+02  0.32509818931E+02  0.16204390774E+02  0.53206746174E+02  0.00000000000E+00 0.  1.
          1    1    6    6  503    0 -0.25079205616E+03 -0.39772584898E+01 -0.29249085967E+03  0.38530945616E+03  0.00000000000E+00 0. -1.
         -1    1    6    6    0  503 -0.79205232122E+02 -0.45092312024E+02 -0.16040772727E+03  0.18449234230E+03  0.00000000000E+00 0.  1.
<mgrwt>
<rscale>  0 0.19430936E+04</rscale>
<asrwt>0</asrwt>
<pdfrwt beam="1">  1        2 0.22675489E+00 0.19430936E+04</pdfrwt>
<pdfrwt beam="2">  1       -1 0.98524461E-01 0.19430936E+04</pdfrwt>
<totfact> 0.13772161E+01</totfact>
</mgrwt>
</event>
<event>
12    7  0.1572140E-007  0.4516316E+04  0.7818608E-02  0.7907787E-01
          2   -1    0    0  501    0  0.00000000000E+00  0.00000000000E+00  0.42403276100E+04  0.42403276100E+04  0.00000000000E+00 0. -1.
         -1   -1    0    0    0  501 -0.00000000000E+00 -0.00000000000E+00 -0.12025667558E+04  0.12025667558E+04  0.00000000000E+00 0.  1.
         24    2    1    2    0    0 -0.44015824161E+03 -0.14265319661E+04  0.33070606353E+04  0.36293183107E+04  0.81047066396E+02 0.  0.
        254    2    1    2    0    0  0.44015824161E+03  0.14265319661E+04 -0.26929978115E+03  0.18135760551E+04  0.99388279365E+03 0.  0.
         23    2    4    4    0    0 -0.23293363617E+03  0.18746228101E+03 -0.24878287598E+03  0.39993833035E+03  0.93046026464E+02 0.  0.
         23    2    4    4    0    0  0.67309187778E+03  0.12390696851E+04 -0.20516905168E+02  0.14136377247E+04  0.98001596831E+02 0.  0.
          2    1    3    3  502    0 -0.40038633115E+03 -0.12091484268E+04  0.27882387905E+04  0.30653914408E+04  0.00000000000E+00 0. -1.
         -1    1    3    3    0  502 -0.39771910458E+02 -0.21738353928E+03  0.51882184478E+03  0.56392686993E+03  0.00000000000E+00 0.  1.
         13    1    5    5    0    0 -0.96498870639E+02  0.67675129889E+02 -0.15751603685E+03  0.19673143395E+03  0.00000000000E+00 0.  1.
        -13    1    5    5    0    0 -0.13643476553E+03  0.11978715112E+03 -0.91266839134E+02  0.20320689640E+03  0.00000000000E+00 0. -1.
          2    1    6    6  503    0  0.59149708188E+03  0.10130821276E+04 -0.10560753328E+02  0.11731648327E+04  0.00000000000E+00 0. -1.
         -2    1    6    6    0  503  0.81594795897E+02  0.22598755744E+03 -0.99561518401E+01  0.24047289201E+03  0.00000000000E+00 0.  1.
<mgrwt>
<rscale>  0 0.45163158E+04</rscale>
<asrwt>0</asrwt>
<pdfrwt beam="1">  1        2 0.65235809E+00 0.45163158E+04</pdfrwt>
<pdfrwt beam="2">  1       -1 0.18501027E+00 0.45163158E+04</pdfrwt>
<totfact> 0.35045628E-02</totfact>
</mgrwt>
</event>
<event>
12    7  0.1572140E-007  0.2279608E+04  0.7818608E-02  0.8486005E-01
          2   -1    0    0  501    0  0.00000000000E+00  0.00000000000E+00  0.14572230042E+04  0.14572230042E+04  0.00000000000E+00 0. -1.
         -1   -1    0    0    0  501 -0.00000000000E+00 -0.00000000000E+00 -0.89152632914E+03  0.89152632914E+03  0.00000000000E+00 0.  1.
         24    2    1    2    0    0  0.42287927578E+03  0.82045744935E+03 -0.13317806943E+02  0.92665756171E+03  0.80867574513E+02 0.  0.
        254    2    1    2    0    0 -0.42287927578E+03 -0.82045744935E+03  0.57901448202E+03  0.14220917717E+04  0.91384349237E+03 0.  0.
         23    2    4    4    0    0 -0.39932144102E+03 -0.57889593807E+03  0.80840423115E+03  0.10759943341E+04  0.98327440903E+02 0.  0.
         23    2    4    4    0    0 -0.23557834762E+02 -0.24156151127E+03 -0.22938974913E+03  0.34609743759E+03  0.90867177750E+02 0.  0.
          2    1    3    3  502    0  0.36810188540E+03  0.76183226334E+03 -0.63934593392E+01  0.84612544686E+03  0.00000000000E+00 0. -1.
         -1    1    3    3    0  502  0.54777390388E+02  0.58625186006E+02 -0.69243476034E+01  0.80532114847E+02  0.00000000000E+00 0.  1.
         13    1    5    5    0    0 -0.83974327651E+02 -0.12225228481E+03  0.11389885495E+03  0.18700336362E+03  0.00000000000E+00 0. -1.
        -13    1    5    5    0    0 -0.31534711337E+03 -0.45664365326E+03  0.69450537620E+03  0.88899097045E+03  0.00000000000E+00 0.  1.
          1    1    6    6  503    0 -0.34057819478E+02 -0.28857337604E+02 -0.55050580160E+02  0.70874871267E+02  0.00000000000E+00 0. -1.
         -1    1    6    6    0  503  0.10499984716E+02 -0.21270417367E+03 -0.17433916897E+03  0.27522256632E+03  0.00000000000E+00 0.  1.
<mgrwt>
<rscale>  0 0.22796076E+04</rscale>
<asrwt>0</asrwt>
<pdfrwt beam="1">  1        2 0.22418815E+00 0.22796076E+04</pdfrwt>
<pdfrwt beam="2">  1       -1 0.13715790E+00 0.22796076E+04</pdfrwt>
<totfact> 0.61409274E+00</totfact>
</mgrwt>
</event>
<event>
12    7  0.1572140E-007  0.1448975E+04  0.7818608E-02  0.8919112E-01
         -1   -1    0    0    0  501 -0.00000000000E+00  0.00000000000E+00  0.43069414535E+03  0.43069414535E+03  0.00000000000E+00 0.  1.
          2   -1    0    0  501    0  0.00000000000E+00 -0.00000000000E+00 -0.12186882152E+04  0.12186882152E+04  0.00000000000E+00 0. -1.
         24    2    1    2    0    0 -0.74718522713E+02  0.14529025760E+03 -0.70658403280E+03  0.72945231780E+03  0.78406453512E+02 0.  0.
        254    2    1    2    0    0  0.74718522713E+02 -0.14529025760E+03 -0.81410037068E+02  0.91993004276E+03  0.90163827162E+03 0.  0.
         23    2    4    4    0    0 -0.26720276202E+03 -0.12801546088E+03 -0.35530464986E+03  0.47274797344E+03  0.97282978591E+02 0.  0.
         23    2    4    4    0    0  0.34192128474E+03 -0.17274796717E+02  0.27389461279E+03  0.44718206932E+03  0.88005458040E+02 0.  0.
          2    1    3    3  502    0 -0.82462906814E+02  0.12316458806E+03 -0.49898693839E+03  0.52053588871E+03  0.00000000000E+00 0. -1.
         -1    1    3    3    0  502  0.77443841009E+01  0.22125669539E+02 -0.20759709441E+03  0.20891642909E+03  0.00000000000E+00 0.  1.
         13    1    5    5    0    0 -0.54731559152E+02 -0.43822735792E+02 -0.14980216132E+03  0.16539849841E+03  0.00000000000E+00 0.  1.
        -13    1    5    5    0    0 -0.21247120287E+03 -0.84192725089E+02 -0.20550248854E+03  0.30734947504E+03  0.00000000000E+00 0. -1.
          1    1    6    6  503    0  0.21072891681E+03 -0.45189822046E+02  0.13615893408E+03  0.25492754211E+03  0.00000000000E+00 0. -1.
         -1    1    6    6    0  503  0.13119236792E+03  0.27915025328E+02  0.13773567871E+03  0.19225452721E+03  0.00000000000E+00 0.  1.
<mgrwt>
<rscale>  0 0.14489746E+04</rscale>
<asrwt>0</asrwt>
<pdfrwt beam="1">  1        2 0.18749049E+00 0.14489746E+04</pdfrwt>
<pdfrwt beam="2">  1       -1 0.66260638E-01 0.14489746E+04</pdfrwt>
<totfact> 0.47119412E+01</totfact>
</mgrwt>
</event>
<event>
12    7  0.1572140E-007  0.1459892E+04  0.7818608E-02  0.8911571E-01
          2   -1    0    0  501    0  0.00000000000E+00  0.00000000000E+00  0.14807622601E+04  0.14807622601E+04  0.00000000000E+00 0. -1.
         -3   -1    0    0    0  501 -0.00000000000E+00 -0.00000000000E+00 -0.35982896592E+03  0.35982896592E+03  0.00000000000E+00 0.  1.
         24    2    1    2    0    0 -0.40897317204E+02  0.10943384723E+03  0.88996566505E+03  0.90112612944E+03  0.79630764866E+02 0.  0.
        254    2    1    2    0    0  0.40897317204E+02 -0.10943384723E+03  0.23096762914E+03  0.93946509659E+03  0.90310589885E+03 0.  0.
         23    2    4    4    0    0  0.20108673284E+03  0.18260112220E+03 -0.22738651271E+03  0.36549970857E+03  0.90035364411E+02 0.  0.
         23    2    4    4    0    0 -0.16018941564E+03 -0.29203496943E+03  0.45835414185E+03  0.57396538803E+03  0.91666106330E+02 0.  0.
          4    1    3    3  502    0 -0.16325553401E+02  0.43616807887E+02  0.63357579604E+03  0.63528516350E+03  0.00000000000E+00 0. -1.
         -3    1    3    3    0  502 -0.24571763804E+02  0.65817039343E+02  0.25638986900E+03  0.26584096594E+03  0.00000000000E+00 0.  1.
         13    1    5    5    0    0  0.53919595883E+02  0.19952961284E+02 -0.89625975856E+02  0.10648126141E+03  0.00000000000E+00 0.  1.
        -13    1    5    5    0    0  0.14716713696E+03  0.16264816092E+03 -0.13776053686E+03  0.25901844715E+03  0.00000000000E+00 0. -1.
          4    1    6    6  503    0 -0.98120667882E+02 -0.19441616996E+03  0.36622058873E+03  0.42607843435E+03  0.00000000000E+00 0.  1.
         -4    1    6    6    0  503 -0.62068747753E+02 -0.97618799469E+02  0.92133553121E+02  0.14788695368E+03  0.00000000000E+00 0. -1.
<mgrwt>
<rscale>  0 0.14598920E+04</rscale>
<asrwt>0</asrwt>
<pdfrwt beam="1">  1        2 0.22780957E+00 0.14598920E+04</pdfrwt>
<pdfrwt beam="2">  1       -3 0.55358304E-01 0.14598920E+04</pdfrwt>
<totfact> 0.25939273E+01</totfact>
</mgrwt>
</event>
<event>
12    7  0.1572140E-007  0.2297575E+04  0.7818608E-02  0.8478878E-01
         -1   -1    0    0    0  501 -0.00000000000E+00  0.00000000000E+00  0.42689227985E+03  0.42689227985E+03  0.00000000000E+00 0.  1.
          2   -1    0    0  501    0  0.00000000000E+00 -0.00000000000E+00 -0.30914422057E+04  0.30914422057E+04  0.00000000000E+00 0. -1.
         24    2    1    2    0    0 -0.79683151233E+03 -0.35271574467E+03 -0.17845368219E+04  0.19876110855E+04  0.81714765963E+02 0.  0.
        254    2    1    2    0    0  0.79683151233E+03  0.35271574467E+03 -0.88001310398E+03  0.15307234001E+04  0.89963448620E+03 0.  0.
         23    2    4    4    0    0 -0.16947244499E+03  0.16230526716E+03 -0.26372144975E+03  0.36544915478E+03  0.94552484427E+02 0.  0.
         23    2    4    4    0    0  0.96630395732E+03  0.19041047751E+03 -0.61629165423E+03  0.11652742453E+04  0.89717198898E+02 0.  0.
          4    1    3    3  502    0 -0.70520320468E+03 -0.29102677736E+03 -0.15993208818E+04  0.17719580774E+04  0.00000000000E+00 0. -1.
         -3    1    3    3    0  502 -0.91628307654E+02 -0.61688967309E+02 -0.18521594004E+03  0.21565300808E+03  0.00000000000E+00 0.  1.
         13    1    5    5    0    0 -0.16032651372E+02 -0.12143766717E+02 -0.28047271200E+02  0.34513278631E+02  0.00000000000E+00 0.  1.
        -13    1    5    5    0    0 -0.15343979362E+03  0.17444903388E+03 -0.23567417855E+03  0.33093587615E+03  0.00000000000E+00 0. -1.
          2    1    6    6  503    0  0.14810582117E+03  0.88642677737E+01 -0.64137399258E+02  0.16164008009E+03  0.00000000000E+00 0. -1.
         -2    1    6    6    0  503  0.81819813615E+03  0.18154620973E+03 -0.55215425497E+03  0.10036341652E+04  0.00000000000E+00 0.  1.
<mgrwt>
<rscale>  0 0.22975751E+04</rscale>
<asrwt>0</asrwt>
<pdfrwt beam="1">  1        2 0.47560648E+00 0.22975751E+04</pdfrwt>
<pdfrwt beam="2">  1       -1 0.65675738E-01 0.22975751E+04</pdfrwt>
<totfact> 0.36985147E+00</totfact>
</mgrwt>
</event>
<event>
12    7  0.1572140E-007  0.1546864E+04  0.7818608E-02  0.8853873E-01
         -1   -1    0    0    0  501 -0.00000000000E+00  0.00000000000E+00  0.43233867397E+03  0.43233867397E+03  0.00000000000E+00 0.  1.
          2   -1    0    0  501    0  0.00000000000E+00 -0.00000000000E+00 -0.13836305069E+04  0.13836305069E+04  0.00000000000E+00 0. -1.
         24    2    1    2    0    0 -0.73738269955E+02  0.43630387537E+03 -0.60087375175E+03  0.75077334358E+03  0.82540558296E+02 0.  0.
        254    2    1    2    0    0  0.73738269955E+02 -0.43630387537E+03 -0.35041808115E+03  0.10651958373E+04  0.90335537637E+03 0.  0.
         23    2    4    4    0    0  0.33355798226E+03 -0.58323908135E+03 -0.14955175784E+03  0.69434810935E+03  0.91240424873E+02 0.  0.
         23    2    4    4    0    0 -0.25981971231E+03  0.14693520598E+03 -0.20086632331E+03  0.37084772792E+03  0.89913957775E+02 0.  0.
          4    1    3    3  502    0 -0.25755286369E+02  0.26117771071E+03 -0.41425999824E+03  0.49039624538E+03  0.00000000000E+00 0. -1.
         -3    1    3    3    0  502 -0.47982983586E+02  0.17512616467E+03 -0.18661375352E+03  0.26037709820E+03  0.00000000000E+00 0.  1.
         13    1    5    5    0    0  0.12987566344E+03 -0.31772186154E+03 -0.68027110167E+02  0.34991792891E+03  0.00000000000E+00 0. -1.
        -13    1    5    5    0    0  0.20368231882E+03 -0.26551721982E+03 -0.81524647674E+02  0.34443018044E+03  0.00000000000E+00 0.  1.
          3    1    6    6  503    0 -0.14332020372E+03  0.12794110487E+03 -0.10605763743E+03  0.21944892246E+03  0.00000000000E+00 0. -1.
         -3    1    6    6    0  503 -0.11649950858E+03  0.18994101114E+02 -0.94808685880E+02  0.15139880546E+03  0.00000000000E+00 0.  1.
<mgrwt>
<rscale>  0 0.15468639E+04</rscale>
<asrwt>0</asrwt>
<pdfrwt beam="1">  1        2 0.21286623E+00 0.15468639E+04</pdfrwt>
<pdfrwt beam="2">  1       -1 0.66513641E-01 0.15468639E+04</pdfrwt>
<totfact> 0.37164834E+01</totfact>
</mgrwt>
</event>
<event>
12    7  0.1572140E-007  0.2427044E+04  0.7818608E-02  0.8429448E-01
         -1   -1    0    0    0  501 -0.00000000000E+00  0.00000000000E+00  0.10952480591E+04  0.10952480591E+04  0.00000000000E+00 0.  1.
          2   -1    0    0  501    0  0.00000000000E+00 -0.00000000000E+00 -0.13445682530E+04  0.13445682530E+04  0.00000000000E+00 0. -1.
         24    2    1    2    0    0 -0.47765069284E+03 -0.48631505388E+01 -0.10603093884E+04  0.11657078081E+04  0.80279886222E+02 0.  0.
        254    2    1    2    0    0  0.47765069284E+03  0.48631505388E+01  0.81098919443E+03  0.12741085040E+04  0.85876374631E+03 0.  0.
         23    2    4    4    0    0  0.29263332889E+03 -0.33263449003E+03  0.10389597342E+03  0.46394863962E+03  0.90410164130E+02 0.  0.
         23    2    4    4    0    0  0.18501736395E+03  0.33749764056E+03  0.70709322100E+03  0.81015986441E+03  0.90786014182E+02 0.  0.
          4    1    3    3  502    0 -0.33301325340E+03 -0.28458280517E+02 -0.79941662781E+03  0.86647253014E+03  0.00000000000E+00 0. -1.
         -3    1    3    3    0  502 -0.14463743943E+03  0.23595129978E+02 -0.26089276056E+03  0.29923527793E+03  0.00000000000E+00 0.  1.
         13    1    5    5    0    0  0.12037562180E+03 -0.77016061845E+02  0.18511868710E+02  0.14409876262E+03  0.00000000000E+00 0. -1.
        -13    1    5    5    0    0  0.17225770709E+03 -0.25561842818E+03  0.85384104715E+02  0.31984987700E+03  0.00000000000E+00 0.  1.
          4    1    6    6  503    0  0.12216148322E+03  0.27778364465E+03  0.48951738926E+03  0.57594657357E+03  0.00000000000E+00 0. -1.
         -4    1    6    6    0  503  0.62855880725E+02  0.59713995912E+02  0.21757583174E+03  0.23421329084E+03  0.00000000000E+00 0.  1.
<mgrwt>
<rscale>  0 0.24270441E+04</rscale>
<asrwt>0</asrwt>
<pdfrwt beam="1">  1        2 0.20685665E+00 0.24270441E+04</pdfrwt>
<pdfrwt beam="2">  1       -1 0.16849970E+00 0.24270441E+04</pdfrwt>
<totfact> 0.40191318E+00</totfact>
</mgrwt>
</event>
<event>
12    7  0.1572140E-007  0.2439358E+04  0.7818608E-02  0.8424914E-01
         -1   -1    0    0    0  501 -0.00000000000E+00  0.00000000000E+00  0.91140812996E+03  0.91140812996E+03  0.00000000000E+00 0.  1.
          2   -1    0    0  501    0  0.00000000000E+00 -0.00000000000E+00 -0.16322187301E+04  0.16322187301E+04  0.00000000000E+00 0. -1.
         24    2    1    2    0    0 -0.32281859292E+03 -0.95249903267E+03 -0.64362461393E+03  0.11966276320E+04  0.78732426284E+02 0.  0.
        254    2    1    2    0    0  0.32281859292E+03  0.95249903267E+03 -0.77185986248E+02  0.13469992281E+04  0.89273903955E+03 0.  0.
         23    2    4    4    0    0  0.11451130625E+03  0.10427807867E+04 -0.20186142615E+03  0.10726487398E+04  0.96554002417E+02 0.  0.
         23    2    4    4    0    0  0.20830728666E+03 -0.90281754003E+02  0.12467543990E+03  0.27435048822E+03  0.90451668260E+02 0.  0.
          2    1    3    3  502    0 -0.38740329582E+02 -0.93634819013E+02 -0.39160120770E+02  0.10863612441E+03  0.00000000000E+00 0. -1.
         -1    1    3    3    0  502 -0.28407826333E+03 -0.85886421366E+03 -0.60446449316E+03  0.10879915076E+04  0.00000000000E+00 0.  1.
         13    1    5    5    0    0  0.12787236107E+03  0.86007814659E+03 -0.15117712366E+03  0.88257593537E+03  0.00000000000E+00 0.  1.
        -13    1    5    5    0    0 -0.13361054819E+02  0.18270264008E+03 -0.50684302490E+02  0.19007280447E+03  0.00000000000E+00 0. -1.
          1    1    6    6  503    0  0.67593924543E+02 -0.24727743192E+02 -0.49037076230E+01  0.72141848236E+02  0.00000000000E+00 0. -1.
         -1    1    6    6    0  503  0.14071336212E+03 -0.65554010810E+02  0.12957914752E+03  0.20220863999E+03  0.00000000000E+00 0.  1.
<mgrwt>
<rscale>  0 0.24393585E+04</rscale>
<asrwt>0</asrwt>
<pdfrwt beam="1">  1        2 0.25111057E+00 0.24393585E+04</pdfrwt>
<pdfrwt beam="2">  1       -1 0.14021664E+00 0.24393585E+04</pdfrwt>
<totfact> 0.45587787E+00</totfact>
</mgrwt>
</event>
<event>
12    7  0.1572140E-007  0.1182965E+04  0.7818608E-02  0.9127899E-01
         -1   -1    0    0    0  501 -0.00000000000E+00  0.00000000000E+00  0.19586155861E+03  0.19586155861E+03  0.00000000000E+00 0.  1.
          2   -1    0    0  501    0  0.00000000000E+00 -0.00000000000E+00 -0.17862196648E+04  0.17862196648E+04  0.00000000000E+00 0. -1.
         24    2    1    2    0    0  0.12773117526E+03  0.29585265533E+02 -0.67242343535E+03  0.68937737940E+03  0.76794229935E+02 0.  0.
        254    2    1    2    0    0 -0.12773117526E+03 -0.29585265533E+02 -0.91793467084E+03  0.12927038440E+04  0.90071561955E+03 0.  0.
         23    2    4    4    0    0  0.32526815228E+03  0.19633450725E+03 -0.33144175694E+03  0.51258790712E+03  0.92445198157E+02 0.  0.
         23    2    4    4    0    0 -0.45299932754E+03 -0.22591977278E+03 -0.58649291390E+03  0.78011593688E+03  0.91426486532E+02 0.  0.
          4    1    3    3  502    0  0.87735511181E+02  0.17215579127E+02 -0.26223195403E+03  0.27705503749E+03  0.00000000000E+00 0. -1.
         -3    1    3    3    0  502  0.39995664078E+02  0.12369686405E+02 -0.41019148133E+03  0.41232234191E+03  0.00000000000E+00 0.  1.
         13    1    5    5    0    0  0.20232545989E+02  0.29675731853E+02 -0.59857341570E+01  0.36412003401E+02  0.00000000000E+00 0. -1.
        -13    1    5    5    0    0  0.30503560629E+03  0.16665877540E+03 -0.32545602278E+03  0.47617590372E+03  0.00000000000E+00 0.  1.
          2    1    6    6  503    0 -0.57659591812E+02 -0.63714335550E+02 -0.79592000844E+02  0.11712827020E+03  0.00000000000E+00 0. -1.
         -2    1    6    6    0  503 -0.39533973572E+03 -0.16220543723E+03 -0.50690091306E+03  0.66298766668E+03  0.00000000000E+00 0.  1.
<mgrwt>
<rscale>  0 0.11829654E+04</rscale>
<asrwt>0</asrwt>
<pdfrwt beam="1">  1        2 0.27480303E+00 0.11829654E+04</pdfrwt>
<pdfrwt beam="2">  1       -1 0.30132547E-01 0.11829654E+04</pdfrwt>
<totfact> 0.10008978E+02</totfact>
</mgrwt>
</event>
<event>
12    7  0.1572140E-007  0.2177881E+04  0.7818608E-02  0.8527691E-01
         -1   -1    0    0    0  501 -0.00000000000E+00  0.00000000000E+00  0.63296960137E+03  0.63296960137E+03  0.00000000000E+00 0.  1.
          2   -1    0    0  501    0  0.00000000000E+00 -0.00000000000E+00 -0.18733781842E+04  0.18733781842E+04  0.00000000000E+00 0. -1.
         24    2    1    2    0    0 -0.42846136207E+03 -0.21786277903E+03  0.35145202720E+03  0.60077683176E+03  0.79818198969E+02 0.  0.
        254    2    1    2    0    0  0.42846136207E+03  0.21786277903E+03 -0.15918606100E+04  0.19055709538E+04  0.93066488543E+03 0.  0.
         23    2    4    4    0    0  0.16120472459E+03  0.20306227077E+03  0.12746340037E+02  0.27621397134E+03  0.94395125600E+02 0.  0.
         23    2    4    4    0    0  0.26725663748E+03  0.14800508256E+02 -0.16046069501E+04  0.16293569825E+04  0.91627216561E+02 0.  0.
          2    1    3    3  502    0 -0.16416670919E+03 -0.11899687728E+03  0.11837913231E+03  0.23478625211E+03  0.00000000000E+00 0. -1.
         -1    1    3    3    0  502 -0.26429465287E+03 -0.98865901748E+02  0.23307289489E+03  0.36599057966E+03  0.00000000000E+00 0.  1.
         13    1    5    5    0    0  0.35257717839E+02  0.62750979724E+02 -0.37397378323E+02  0.81113229679E+02  0.00000000000E+00 0.  1.
        -13    1    5    5    0    0  0.12594700675E+03  0.14031129105E+03  0.50143718360E+02  0.19510074166E+03  0.00000000000E+00 0. -1.
          4    1    6    6  503    0  0.62945771150E+02 -0.13442753525E+02 -0.21188978397E+03  0.22145012594E+03  0.00000000000E+00 0.  1.
         -4    1    6    6    0  503  0.20431086633E+03  0.28243261782E+02 -0.13927171661E+04  0.14079068565E+04  0.00000000000E+00 0. -1.
<mgrwt>
<rscale>  0 0.21778810E+04</rscale>
<asrwt>0</asrwt>
<pdfrwt beam="1">  1        2 0.28821202E+00 0.21778810E+04</pdfrwt>
<pdfrwt beam="2">  1       -1 0.97379940E-01 0.21778810E+04</pdfrwt>
<totfact> 0.82925511E+00</totfact>
</mgrwt>
</event>
<event>
12    7  0.1572140E-007  0.3757581E+04  0.7818608E-02  0.8055320E-01
         -1   -1    0    0    0  501 -0.00000000000E+00  0.00000000000E+00  0.90569495736E+03  0.90569495736E+03  0.00000000000E+00 0.  1.
          2   -1    0    0  501    0  0.00000000000E+00 -0.00000000000E+00 -0.38973973563E+04  0.38973973563E+04  0.00000000000E+00 0. -1.
         24    2    1    2    0    0  0.12378749818E+03  0.10795663909E+04 -0.31951194685E+04  0.33757432608E+04  0.77892282056E+02 0.  0.
        254    2    1    2    0    0 -0.12378749818E+03 -0.10795663909E+04  0.20341706958E+03  0.14273490529E+04  0.90286204786E+03 0.  0.
         23    2    4    4    0    0  0.68409369707E+02 -0.22343348539E+03  0.44663410996E+03  0.51126819646E+03  0.85503077545E+02 0.  0.
         23    2    4    4    0    0 -0.19219686788E+03 -0.85613290550E+03 -0.24321704038E+03  0.91608085641E+03  0.10072943379E+03 0.  0.
          4    1    3    3  502    0  0.77541690796E+02  0.84628624940E+03 -0.24138338717E+04  0.25590637135E+04  0.00000000000E+00 0. -1.
         -3    1    3    3    0  502  0.46245807380E+02  0.23328014149E+03 -0.78128559685E+03  0.81667954729E+03  0.00000000000E+00 0.  1.
         13    1    5    5    0    0  0.22348420264E+02 -0.35731987390E+02  0.16075631721E+03  0.16618911015E+03  0.00000000000E+00 0.  1.
        -13    1    5    5    0    0  0.46060949443E+02 -0.18770149800E+03  0.28587779276E+03  0.34507908631E+03  0.00000000000E+00 0. -1.
          1    1    6    6  503    0 -0.13351808539E+03 -0.67609254426E+03 -0.22893600335E+03  0.72618172737E+03  0.00000000000E+00 0. -1.
         -1    1    6    6    0  503 -0.58678782497E+02 -0.18004036124E+03 -0.14281037033E+02  0.18989912904E+03  0.00000000000E+00 0.  1.
<mgrwt>
<rscale>  0 0.37575807E+04</rscale>
<asrwt>0</asrwt>
<pdfrwt beam="1">  1        2 0.59959960E+00 0.37575807E+04</pdfrwt>
<pdfrwt beam="2">  1       -1 0.13933769E+00 0.37575807E+04</pdfrwt>
<totfact> 0.15954895E-01</totfact>
</mgrwt>
</event>
<event>
12    7  0.1572140E-007  0.1661124E+04  0.7818608E-02  0.8783853E-01
          2   -1    0    0  501    0  0.00000000000E+00  0.00000000000E+00  0.99024397817E+03  0.99024397817E+03  0.00000000000E+00 0. -1.
         -1   -1    0    0    0  501 -0.00000000000E+00 -0.00000000000E+00 -0.69662981577E+03  0.69662981577E+03  0.00000000000E+00 0.  1.
         24    2    1    2    0    0  0.32399514230E+02  0.19134017132E+03 -0.44732510359E+03  0.49397553852E+03  0.79065129334E+02 0.  0.
        254    2    1    2    0    0 -0.32399514230E+02 -0.19134017132E+03  0.74093926599E+03  0.11928982554E+04  0.91452417258E+03 0.  0.
         23    2    4    4    0    0  0.36487315518E+03  0.81031505715E+02  0.53977305780E+03  0.66292929455E+03  0.91770209502E+02 0.  0.
         23    2    4    4    0    0 -0.39727266941E+03 -0.27237167703E+03  0.20116620819E+03  0.52996896088E+03  0.91582486714E+02 0.  0.
          2    1    3    3  502    0 -0.25410192240E+02  0.82325012632E+02 -0.18400342052E+03  0.20317564898E+03  0.00000000000E+00 0. -1.
         -1    1    3    3    0  502  0.57809706471E+02  0.10901515868E+03 -0.26332168306E+03  0.29079988954E+03  0.00000000000E+00 0.  1.
         13    1    5    5    0    0  0.31436992945E+03  0.72706968291E+02  0.51061541617E+03  0.60402223387E+03  0.00000000000E+00 0.  1.
        -13    1    5    5    0    0  0.50503225722E+02  0.83245374235E+01  0.29157641634E+02  0.58907060674E+02  0.00000000000E+00 0. -1.
          1    1    6    6  503    0 -0.95476236671E+02 -0.22928450466E+02  0.50756985092E+02  0.11053369235E+03  0.00000000000E+00 0. -1.
         -1    1    6    6    0  503 -0.30179643274E+03 -0.24944322656E+03  0.15040922309E+03  0.41943526853E+03  0.00000000000E+00 0.  1.
<mgrwt>
<rscale>  0 0.16611243E+04</rscale>
<asrwt>0</asrwt>
<pdfrwt beam="1">  1        2 0.15234523E+00 0.16611243E+04</pdfrwt>
<pdfrwt beam="2">  1       -1 0.10717382E+00 0.16611243E+04</pdfrwt>
<totfact> 0.22588103E+01</totfact>
</mgrwt>
</event>
<event>
12    7  0.1572140E-007  0.1555015E+04  0.7818608E-02  0.8848671E-01
          2   -1    0    0  501    0  0.00000000000E+00  0.00000000000E+00  0.10313125175E+04  0.10313125175E+04  0.00000000000E+00 0. -1.
         -1   -1    0    0    0  501 -0.00000000000E+00 -0.00000000000E+00 -0.58616386932E+03  0.58616386932E+03  0.00000000000E+00 0.  1.
         24    2    1    2    0    0 -0.37737603378E+02 -0.49288589949E+03  0.28963014708E+03  0.57822749618E+03  0.78107481140E+02 0.  0.
        254    2    1    2    0    0  0.37737603378E+02  0.49288589949E+03  0.15551850112E+03  0.10392488907E+04  0.90082829438E+03 0.  0.
         23    2    4    4    0    0  0.85929932540E+02 -0.17863388029E+03 -0.17917261825E+03  0.28193713011E+03  0.89953886589E+02 0.  0.
         23    2    4    4    0    0 -0.48192329161E+02  0.67151977978E+03  0.33469111937E+03  0.75731176056E+03  0.90783490078E+02 0.  0.
          4    1    3    3  502    0 -0.58901200692E+02 -0.42733656469E+03  0.25534661673E+03  0.50128613151E+03  0.00000000000E+00 0. -1.
         -3    1    3    3    0  502  0.21163597313E+02 -0.65549334805E+02  0.34283530352E+02  0.76941364675E+02  0.00000000000E+00 0.  1.
         13    1    5    5    0    0 -0.18143716809E+01 -0.42035496686E+02 -0.83476354731E+02  0.93480354757E+02  0.00000000000E+00 0.  1.
        -13    1    5    5    0    0  0.87744304221E+02 -0.13659838360E+03 -0.95696263517E+02  0.18845677536E+03  0.00000000000E+00 0. -1.
          2    1    6    6  503    0 -0.58814545203E+02  0.58416434529E+03  0.26093271622E+03  0.64248970064E+03  0.00000000000E+00 0. -1.
         -2    1    6    6    0  503  0.10622216041E+02  0.87355434490E+02  0.73758403153E+02  0.11482205992E+03  0.00000000000E+00 0.  1.
<mgrwt>
<rscale>  0 0.15550153E+04</rscale>
<asrwt>0</asrwt>
<pdfrwt beam="1">  1        2 0.15866346E+00 0.15550153E+04</pdfrwt>
<pdfrwt beam="2">  1       -1 0.90179057E-01 0.15550153E+04</pdfrwt>
<totfact> 0.31761911E+01</totfact>
</mgrwt>
</event>
<event>
12    7  0.1572140E-007  0.1082966E+04  0.7818608E-02  0.9221955E-01
         -1   -1    0    0    0  501 -0.00000000000E+00  0.00000000000E+00  0.90121011286E+02  0.90121011286E+02  0.00000000000E+00 0.  1.
          2   -1    0    0  501    0  0.00000000000E+00 -0.00000000000E+00 -0.32534477875E+04  0.32534477875E+04  0.00000000000E+00 0. -1.
         24    2    1    2    0    0  0.11871355460E+03  0.23643699318E+02 -0.77954803910E+03  0.79291874246E+03  0.79831411804E+02 0.  0.
        254    2    1    2    0    0 -0.11871355460E+03 -0.23643699318E+02 -0.23837787372E+04  0.25506500564E+04  0.89931235385E+03 0.  0.
         23    2    4    4    0    0 -0.36124682833E+03 -0.25543376422E+03 -0.70769591256E+03  0.83889479520E+03  0.84648058946E+02 0.  0.
         23    2    4    4    0    0  0.24253327373E+03  0.23179006490E+03 -0.16760828246E+04  0.17117552612E+04  0.91123082620E+02 0.  0.
          4    1    3    3  502    0  0.11234626906E+03  0.61230578295E+01 -0.74687059757E+03  0.75529786543E+03  0.00000000000E+00 0. -1.
         -3    1    3    3    0  502  0.63672855362E+01  0.17520641489E+02 -0.32677441537E+02  0.37620877032E+02  0.00000000000E+00 0.  1.
         13    1    5    5    0    0 -0.15522369526E+03 -0.16155767549E+03 -0.34912692192E+03  0.41483115323E+03  0.00000000000E+00 0. -1.
        -13    1    5    5    0    0 -0.20602313307E+03 -0.93876088722E+02 -0.35856899063E+03  0.42406364197E+03  0.00000000000E+00 0.  1.
          1    1    6    6  503    0  0.22279916704E+03  0.18056305168E+03 -0.12698562452E+04  0.13018361525E+04  0.00000000000E+00 0. -1.
         -1    1    6    6    0  503  0.19734106690E+02  0.51227013215E+02 -0.40622657943E+03  0.40991910871E+03  0.00000000000E+00 0.  1.
<mgrwt>
<rscale>  0 0.10829663E+04</rscale>
<asrwt>0</asrwt>
<pdfrwt beam="1">  1        2 0.50053046E+00 0.10829663E+04</pdfrwt>
<pdfrwt beam="2">  1       -1 0.13864770E-01 0.10829663E+04</pdfrwt>
<totfact> 0.51960337E+01</totfact>
</mgrwt>
</event>
<event>
12    7  0.1572140E-007  0.2103820E+04  0.7818608E-02  0.8559562E-01
          2   -1    0    0  501    0  0.00000000000E+00  0.00000000000E+00  0.10140587063E+04  0.10140587063E+04  0.00000000000E+00 0. -1.
         -1   -1    0    0    0  501 -0.00000000000E+00 -0.00000000000E+00 -0.10911746697E+04  0.10911746697E+04  0.00000000000E+00 0.  1.
         24    2    1    2    0    0  0.64842595887E+03 -0.55252525803E+03  0.11905039259E+03  0.86380137720E+03  0.78990115717E+02 0.  0.
        254    2    1    2    0    0 -0.64842595887E+03  0.55252525803E+03 -0.19616635602E+03  0.12414319988E+04  0.88143733948E+03 0.  0.
         23    2    4    4    0    0 -0.63859090538E+03 -0.18843507058E+02 -0.13625580363E+03  0.65945930986E+03  0.90374305812E+02 0.  0.
         23    2    4    4    0    0 -0.98350534929E+01  0.57136876508E+03 -0.59910552390E+02  0.58197268890E+03  0.92433448214E+02 0.  0.
          2    1    3    3  502    0  0.27641586854E+02 -0.31250127082E+02  0.22647602685E+02  0.47471482743E+02  0.00000000000E+00 0. -1.
         -1    1    3    3    0  502  0.62078437202E+03 -0.52127513094E+03  0.96402789907E+02  0.81632989446E+03  0.00000000000E+00 0.  1.
         13    1    5    5    0    0 -0.56161740396E+03  0.12358805304E+02 -0.11067516841E+03  0.57255204253E+03  0.00000000000E+00 0.  1.
        -13    1    5    5    0    0 -0.76973501419E+02 -0.31202312363E+02 -0.25580635223E+02  0.86907267337E+02  0.00000000000E+00 0. -1.
          1    1    6    6  503    0  0.25080533536E+02  0.18320358122E+03 -0.52299063292E+02  0.19216601509E+03  0.00000000000E+00 0.  1.
         -1    1    6    6    0  503 -0.34915587029E+02  0.38816518386E+03 -0.76114890982E+01  0.38980667381E+03  0.00000000000E+00 0. -1.
<mgrwt>
<rscale>  0 0.21038205E+04</rscale>
<asrwt>0</asrwt>
<pdfrwt beam="1">  1        2 0.15600903E+00 0.21038205E+04</pdfrwt>
<pdfrwt beam="2">  1       -1 0.16787303E+00 0.21038205E+04</pdfrwt>
<totfact> 0.66135756E+00</totfact>
</mgrwt>
</event>
<event>
12    7  0.1572140E-007  0.1203484E+04  0.7818608E-02  0.9109813E-01
          2   -1    0    0  501    0  0.00000000000E+00  0.00000000000E+00  0.84568354606E+03  0.84568354606E+03  0.00000000000E+00 0. -1.
         -1   -1    0    0    0  501 -0.00000000000E+00 -0.00000000000E+00 -0.42816647639E+03  0.42816647639E+03  0.00000000000E+00 0.  1.
         24    2    1    2    0    0  0.21931285244E+03 -0.90714637509E+02  0.17790576804E+03  0.30730160539E+03  0.80352608327E+02 0.  0.
        254    2    1    2    0    0 -0.21931285244E+03  0.90714637509E+02  0.23961130164E+03  0.96654841706E+03  0.90580074738E+03 0.  0.
         23    2    4    4    0    0 -0.37219165069E+03 -0.24069302622E+03  0.35300897001E+03  0.57347486111E+03  0.88308129313E+02 0.  0.
         23    2    4    4    0    0  0.15287879824E+03  0.33140766373E+03 -0.11339766838E+03  0.39307355595E+03  0.91895716248E+02 0.  0.
          4    1    3    3  502    0  0.19183408159E+03 -0.50665118268E+02  0.16214415153E+03  0.25623816059E+03  0.00000000000E+00 0. -1.
         -3    1    3    3    0  502  0.27478770858E+02 -0.40049519241E+02  0.15761616508E+02  0.51063444794E+02  0.00000000000E+00 0.  1.
         13    1    5    5    0    0 -0.32292769949E+03 -0.22106934189E+03  0.34107393752E+03  0.51911981649E+03  0.00000000000E+00 0.  1.
        -13    1    5    5    0    0 -0.49263951200E+02 -0.19623684336E+02  0.11935032488E+02  0.54355044616E+02  0.00000000000E+00 0. -1.
          1    1    6    6  503    0  0.48211153791E+02  0.55131722022E+02  0.79843866991E+01  0.73672060877E+02  0.00000000000E+00 0. -1.
         -1    1    6    6    0  503  0.10466764445E+03  0.27627594171E+03 -0.12138205507E+03  0.31940149508E+03  0.00000000000E+00 0.  1.
<mgrwt>
<rscale>  0 0.12034838E+04</rscale>
<asrwt>0</asrwt>
<pdfrwt beam="1">  1        2 0.13010516E+00 0.12034838E+04</pdfrwt>
<pdfrwt beam="2">  1       -1 0.65871766E-01 0.12034838E+04</pdfrwt>
<totfact> 0.84079748E+01</totfact>
</mgrwt>
</event>
<event>
12    7  0.1572140E-007  0.1110536E+04  0.7818608E-02  0.9194983E-01
         -1   -1    0    0    0  501 -0.00000000000E+00  0.00000000000E+00  0.26376463850E+03  0.26376463850E+03  0.00000000000E+00 0.  1.
          2   -1    0    0  501    0  0.00000000000E+00 -0.00000000000E+00 -0.11689307249E+04  0.11689307249E+04  0.00000000000E+00 0. -1.
         24    2    1    2    0    0  0.12648070803E+03  0.11297218096E+03 -0.20151129143E+03  0.27463124151E+03  0.77816675982E+02 0.  0.
        254    2    1    2    0    0 -0.12648070803E+03 -0.11297218096E+03 -0.70365479496E+03  0.11580641219E+04  0.90400351591E+03 0.  0.
         23    2    4    4    0    0  0.71484351708E+02 -0.47573138131E+03 -0.30790500234E+03  0.57885816548E+03  0.94026196227E+02 0.  0.
         23    2    4    4    0    0 -0.19796505974E+03  0.36275920035E+03 -0.39574979261E+03  0.57920595641E+03  0.89873462554E+02 0.  0.
          2    1    3    3  502    0  0.60104431138E+02  0.25787314324E+02 -0.12471181034E+03  0.14082103487E+03  0.00000000000E+00 0. -1.
         -1    1    3    3    0  502  0.66376276894E+02  0.87184866638E+02 -0.76799481092E+02  0.13381020664E+03  0.00000000000E+00 0.  1.
         13    1    5    5    0    0  0.12732822643E+02 -0.26104204970E+03 -0.21186188463E+03  0.33643801011E+03  0.00000000000E+00 0. -1.
        -13    1    5    5    0    0  0.58751529065E+02 -0.21468933160E+03 -0.96043117715E+02  0.24242015538E+03  0.00000000000E+00 0.  1.
          4    1    6    6  503    0 -0.15080849556E+03  0.23974244907E+03 -0.21525877856E+03  0.35574708146E+03  0.00000000000E+00 0. -1.
         -4    1    6    6    0  503 -0.47156564181E+02  0.12301675127E+03 -0.18049101405E+03  0.22345887494E+03  0.00000000000E+00 0.  1.
<mgrwt>
<rscale>  0 0.11105361E+04</rscale>
<asrwt>0</asrwt>
<pdfrwt beam="1">  1        2 0.17983550E+00 0.11105361E+04</pdfrwt>
<pdfrwt beam="2">  1       -1 0.40579175E-01 0.11105361E+04</pdfrwt>
<totfact> 0.13257994E+02</totfact>
</mgrwt>
</event>
<event>
12    7  0.1572140E-007  0.2524288E+04  0.7818608E-02  0.8394384E-01
         -1   -1    0    0    0  501 -0.00000000000E+00  0.00000000000E+00  0.11775684428E+04  0.11775684428E+04  0.00000000000E+00 0.  1.
          2   -1    0    0  501    0  0.00000000000E+00 -0.00000000000E+00 -0.13527938241E+04  0.13527938241E+04  0.00000000000E+00 0. -1.
         24    2    1    2    0    0 -0.28487370888E+03  0.10525901735E+04 -0.22677777091E+03  0.11166986709E+04  0.80552223258E+02 0.  0.
        254    2    1    2    0    0  0.28487370888E+03 -0.10525901735E+04  0.51552389590E+02  0.14136635961E+04  0.89815812116E+03 0.  0.
         23    2    4    4    0    0  0.51082205250E+03 -0.32900449184E+03 -0.13213954607E+03  0.62849188844E+03  0.91422476582E+02 0.  0.
         23    2    4    4    0    0 -0.22594834362E+03 -0.72358568171E+03  0.18369193566E+03  0.78517170766E+03  0.90127634671E+02 0.  0.
          4    1    3    3  502    0 -0.22700574141E+03  0.89016305221E+03 -0.16386653975E+03  0.93315277902E+03  0.00000000000E+00 0. -1.
         -3    1    3    3    0  502 -0.57867967474E+02  0.16242712134E+03 -0.62911231158E+02  0.18354589184E+03  0.00000000000E+00 0.  1.
         13    1    5    5    0    0  0.34762930925E+03 -0.17251767110E+03 -0.74605319063E+02  0.39518911564E+03  0.00000000000E+00 0. -1.
        -13    1    5    5    0    0  0.16319274325E+03 -0.15648682074E+03 -0.57534227002E+02  0.23330277279E+03  0.00000000000E+00 0.  1.
          4    1    6    6  503    0 -0.65012113679E+02 -0.32167256422E+03  0.49324465267E+02  0.33186249618E+03  0.00000000000E+00 0. -1.
         -4    1    6    6    0  503 -0.16093622994E+03 -0.40191311749E+03  0.13436747039E+03  0.45330921148E+03  0.00000000000E+00 0.  1.
<mgrwt>
<rscale>  0 0.25242879E+04</rscale>
<asrwt>0</asrwt>
<pdfrwt beam="1">  1        2 0.20812212E+00 0.25242879E+04</pdfrwt>
<pdfrwt beam="2">  1       -1 0.18116438E+00 0.25242879E+04</pdfrwt>
<totfact> 0.31892124E+00</totfact>
</mgrwt>
</event>
<event>
12    7  0.1572140E-007  0.2151306E+04  0.7818608E-02  0.8538973E-01
         -1   -1    0    0    0  501 -0.00000000000E+00  0.00000000000E+00  0.50055001548E+03  0.50055001548E+03  0.00000000000E+00 0.  1.
          2   -1    0    0  501    0  0.00000000000E+00 -0.00000000000E+00 -0.23115168667E+04  0.23115168667E+04  0.00000000000E+00 0. -1.
         24    2    1    2    0    0  0.43159557214E+03 -0.50469484123E+03  0.15891935583E+02  0.66894691869E+03  0.79030410268E+02 0.  0.
        254    2    1    2    0    0 -0.43159557214E+03  0.50469484123E+03 -0.18268587868E+04  0.21431199635E+04  0.90252896368E+03 0.  0.
         23    2    4    4    0    0 -0.68964756813E+03  0.24283487315E+03 -0.13148782227E+04  0.15072704892E+04  0.91526189253E+02 0.  0.
         23    2    4    4    0    0  0.25805199598E+03  0.26185996808E+03 -0.51198056409E+03  0.63584947424E+03  0.83779355296E+02 0.  0.
          4    1    3    3  502    0  0.10064720294E+02 -0.33405724237E+02 -0.94314283679E+01  0.36141290063E+02  0.00000000000E+00 0. -1.
         -3    1    3    3    0  502  0.42153085185E+03 -0.47128911700E+03  0.25323363951E+02  0.63280562863E+03  0.00000000000E+00 0.  1.
         13    1    5    5    0    0 -0.20892650163E+03  0.80679805788E+02 -0.32120778014E+03  0.39157879432E+03  0.00000000000E+00 0.  1.
        -13    1    5    5    0    0 -0.48072106650E+03  0.16215506736E+03 -0.99367044257E+03  0.11156916949E+04  0.00000000000E+00 0. -1.
          4    1    6    6  503    0  0.68953015741E+02  0.12510811317E+03 -0.17395429959E+03  0.22509255142E+03  0.00000000000E+00 0.  1.
         -4    1    6    6    0  503  0.18909898024E+03  0.13675185491E+03 -0.33802626450E+03  0.41075692282E+03  0.00000000000E+00 0. -1.
<mgrwt>
<rscale>  0 0.21513064E+04</rscale>
<asrwt>0</asrwt>
<pdfrwt beam="1">  1        2 0.35561798E+00 0.21513064E+04</pdfrwt>
<pdfrwt beam="2">  1       -1 0.77007694E-01 0.21513064E+04</pdfrwt>
<totfact> 0.78887085E+00</totfact>
</mgrwt>
</event>
<event>
12    7  0.1572140E-007  0.1280309E+04  0.7818608E-02  0.9045327E-01
          2   -1    0    0  501    0  0.00000000000E+00  0.00000000000E+00  0.93120992747E+03  0.93120992747E+03  0.00000000000E+00 0. -1.
         -1   -1    0    0    0  501 -0.00000000000E+00 -0.00000000000E+00 -0.44007045922E+03  0.44007045922E+03  0.00000000000E+00 0.  1.
         24    2    1    2    0    0 -0.39882415047E+02  0.32464349068E+03  0.18872634576E+03  0.38602224622E+03  0.80072079545E+02 0.  0.
        254    2    1    2    0    0  0.39882415047E+02 -0.32464349068E+03  0.30241312249E+03  0.98525814047E+03  0.87880367753E+03 0.  0.
         23    2    4    4    0    0 -0.29997073598E+03  0.28662265977E+02 -0.11592845279E+03  0.33457337937E+03  0.87726689684E+02 0.  0.
         23    2    4    4    0    0  0.33985315103E+03 -0.35330575665E+03  0.41834157528E+03  0.65068476110E+03  0.89754458185E+02 0.  0.
          2    1    3    3  502    0 -0.22072685385E+02  0.26404183969E+03  0.18419275437E+03  0.32269531653E+03  0.00000000000E+00 0. -1.
         -1    1    3    3    0  502 -0.17809729661E+02  0.60601650985E+02  0.45335913883E+01  0.63326929687E+02  0.00000000000E+00 0.  1.
         13    1    5    5    0    0 -0.58352266659E+01  0.15241140755E+02 -0.17945548666E+02  0.24256647721E+02  0.00000000000E+00 0.  1.
        -13    1    5    5    0    0 -0.29413550932E+03  0.13421125222E+02 -0.97982904123E+02  0.31031673165E+03  0.00000000000E+00 0. -1.
          4    1    6    6  503    0  0.29574553270E+03 -0.25449767027E+03  0.32764760359E+03  0.50949723888E+03  0.00000000000E+00 0. -1.
         -4    1    6    6    0  503  0.44107618331E+02 -0.98808086380E+02  0.90693971693E+02  0.14118752222E+03  0.00000000000E+00 0.  1.
<mgrwt>
<rscale>  0 0.12803093E+04</rscale>
<asrwt>0</asrwt>
<pdfrwt beam="1">  1        2 0.14326307E+00 0.12803093E+04</pdfrwt>
<pdfrwt beam="2">  1       -1 0.67703148E-01 0.12803093E+04</pdfrwt>
<totfact> 0.69141350E+01</totfact>
</mgrwt>
</event>
<event>
12    7  0.1943340E-007  0.3091538E+04  0.7818608E-02  0.8218064E-01
         -1   -1    0    0    0  501 -0.00000000000E+00  0.00000000000E+00  0.12617699662E+04  0.12617699662E+04  0.00000000000E+00 0.  1.
          2   -1    0    0  501    0  0.00000000000E+00 -0.00000000000E+00 -0.18936910368E+04  0.18936910368E+04  0.00000000000E+00 0. -1.
         24    2    1    2    0    0 -0.88611650635E+03  0.94652311068E+03  0.28133384203E+03  0.13291658442E+04  0.80153907675E+02 0.  0.
        254    2    1    2    0    0  0.88611650635E+03 -0.94652311068E+03 -0.91325491270E+03  0.18262951588E+04  0.90565501680E+03 0.  0.
         23    2    4    4    0    0  0.42589522348E+03 -0.94486368066E+03 -0.86739011560E+03  0.13551246003E+04  0.99211659077E+02 0.  0.
         23    2    4    4    0    0  0.46022128287E+03 -0.16594300103E+01 -0.45864797092E+02  0.47117055844E+03  0.89954058370E+02 0.  0.
          4    1    3    3  502    0 -0.23704252820E+02  0.30208797040E+02  0.22463086957E+02  0.44486551856E+02  0.00000000000E+00 0. -1.
         -3    1    3    3    0  502 -0.86241225353E+03  0.91631431363E+03  0.25887075507E+03  0.12846792924E+04  0.00000000000E+00 0.  1.
         13    1    5    5    0    0  0.40352916839E+03 -0.90361161971E+03 -0.79761808894E+03  0.12710406621E+04  0.00000000000E+00 0. -1.
        -13    1    5    5    0    0  0.22366055096E+02 -0.41252060958E+02 -0.69772026659E+02  0.84083938169E+02  0.00000000000E+00 0.  1.
          4    1    6    6  503    0  0.34995802257E+03  0.36720518895E+02 -0.27111928616E+02  0.35292218795E+03  0.00000000000E+00 0. -1.
         -4    1    6    6    0  503  0.11026326029E+03 -0.38379948905E+02 -0.18752868476E+02  0.11824837050E+03  0.00000000000E+00 0.  1.
<mgrwt>
<rscale>  0 0.30915384E+04</rscale>
<asrwt>0</asrwt>
<pdfrwt beam="1">  1        2 0.29133708E+00 0.30915384E+04</pdfrwt>
<pdfrwt beam="2">  1       -1 0.19411846E+00 0.30915384E+04</pdfrwt>
<totfact> 0.12234834E+00</totfact>
</mgrwt>
</event>
<event>
12    7  0.1572140E-007  0.1716168E+04  0.7818608E-02  0.8752197E-01
          2   -1    0    0  501    0  0.00000000000E+00  0.00000000000E+00  0.20510958101E+04  0.20510958101E+04  0.00000000000E+00 0. -1.
         -1   -1    0    0    0  501 -0.00000000000E+00 -0.00000000000E+00 -0.35898272498E+03  0.35898272498E+03  0.00000000000E+00 0.  1.
         24    2    1    2    0    0 -0.47908014609E+02 -0.17853399761E+03 -0.22190564011E+03  0.30107766343E+03  0.85065152294E+02 0.  0.
        254    2    1    2    0    0  0.47908014609E+02  0.17853399761E+03  0.19140187252E+04  0.21090008716E+04  0.86616824572E+03 0.  0.
         23    2    4    4    0    0  0.42811020536E+03  0.21635430567E+03  0.11594648522E+04  0.12581094205E+04  0.91613519604E+02 0.  0.
         23    2    4    4    0    0 -0.38020219075E+03 -0.37820308052E+02  0.75455387305E+03  0.85089145116E+03  0.93169913407E+02 0.  0.
          4    1    3    3  502    0 -0.41401061902E+02 -0.95874582527E+02 -0.63331956396E+02  0.12213484434E+03  0.00000000000E+00 0. -1.
         -3    1    3    3    0  502 -0.65069527072E+01 -0.82659415088E+02 -0.15857368371E+03  0.17894281909E+03  0.00000000000E+00 0.  1.
         13    1    5    5    0    0  0.14197288545E+03  0.36867025004E+02  0.28175988324E+03  0.31765407213E+03  0.00000000000E+00 0. -1.
        -13    1    5    5    0    0  0.28613731991E+03  0.17948728066E+03  0.87770496891E+03  0.94045534833E+03  0.00000000000E+00 0.  1.
          1    1    6    6  503    0 -0.72605328766E+02  0.16810489272E+02  0.21332369167E+03  0.22596708553E+03  0.00000000000E+00 0. -1.
         -1    1    6    6    0  503 -0.30759686198E+03 -0.54630797324E+02  0.54123018138E+03  0.62492436563E+03  0.00000000000E+00 0.  1.
<mgrwt>
<rscale>  0 0.17161678E+04</rscale>
<asrwt>0</asrwt>
<pdfrwt beam="1">  1        2 0.31555319E+00 0.17161678E+04</pdfrwt>
<pdfrwt beam="2">  1       -1 0.55228113E-01 0.17161678E+04</pdfrwt>
<totfact> 0.22450135E+01</totfact>
</mgrwt>
</event>
<event>
12    7  0.1572140E-007  0.1497999E+04  0.7818608E-02  0.8885785E-01
         -1   -1    0    0    0  501 -0.00000000000E+00  0.00000000000E+00  0.25850067535E+03  0.25850067535E+03  0.00000000000E+00 0.  1.
          2   -1    0    0  501    0  0.00000000000E+00 -0.00000000000E+00 -0.21702068394E+04  0.21702068394E+04  0.00000000000E+00 0. -1.
         24    2    1    2    0    0 -0.43181682356E+03  0.17845727566E+03 -0.66023209707E+03  0.81318594978E+03  0.83977369467E+02 0.  0.
        254    2    1    2    0    0  0.43181682356E+03 -0.17845727566E+03 -0.12514740670E+04  0.16155215650E+04  0.90852067571E+03 0.  0.
         23    2    4    4    0    0 -0.27209070157E+03 -0.49114029341E+02 -0.27555610213E+03  0.40247575257E+03  0.98030751429E+02 0.  0.
         23    2    4    4    0    0  0.70390752512E+03 -0.12934324632E+03 -0.97591796485E+03  0.12130458124E+04  0.82757413892E+02 0.  0.
          4    1    3    3  502    0 -0.43249070104E+03  0.16877205888E+03 -0.65233850030E+03  0.80067329999E+03  0.00000000000E+00 0. -1.
         -3    1    3    3    0  502  0.67387747990E+00  0.96852167796E+01 -0.78935967690E+01  0.12512649794E+02  0.00000000000E+00 0.  1.
         13    1    5    5    0    0 -0.79876412699E+02 -0.61252892365E+02 -0.89711455863E+02  0.13483435557E+03  0.00000000000E+00 0. -1.
        -13    1    5    5    0    0 -0.19221428887E+03  0.12138863024E+02 -0.18584464627E+03  0.26764139700E+03  0.00000000000E+00 0.  1.
          2    1    6    6  503    0  0.25727630123E+03 -0.85085122561E+02 -0.39280662215E+03  0.47720814710E+03  0.00000000000E+00 0. -1.
         -2    1    6    6    0  503  0.44663122390E+03 -0.44258123759E+02 -0.58311134270E+03  0.73583766529E+03  0.00000000000E+00 0.  1.
<mgrwt>
<rscale>  0 0.14979986E+04</rscale>
<asrwt>0</asrwt>
<pdfrwt beam="1">  1        2 0.33387799E+00 0.14979986E+04</pdfrwt>
<pdfrwt beam="2">  1       -1 0.39769333E-01 0.14979986E+04</pdfrwt>
<totfact> 0.36398298E+01</totfact>
</mgrwt>
</event>
<event>
12    7  0.1572140E-007  0.1197419E+04  0.7818608E-02  0.9115119E-01
         -1   -1    0    0    0  501 -0.00000000000E+00  0.00000000000E+00  0.64836917591E+03  0.64836917591E+03  0.00000000000E+00 0.  1.
          2   -1    0    0  501    0  0.00000000000E+00 -0.00000000000E+00 -0.55285344813E+03  0.55285344813E+03  0.00000000000E+00 0. -1.
         24    2    1    2    0    0  0.16393162334E+03 -0.13230538812E+03  0.14078391019E+03  0.26579193133E+03  0.80292892164E+02 0.  0.
        254    2    1    2    0    0 -0.16393162334E+03  0.13230538812E+03 -0.45268182417E+02  0.93543069271E+03  0.91027637543E+03 0.  0.
         23    2    4    4    0    0 -0.41127294228E+03 -0.12823138401E+03  0.20759614871E+03  0.48664688473E+03  0.90223658591E+02 0.  0.
         23    2    4    4    0    0  0.24734131893E+03  0.26053677213E+03 -0.25286433112E+03  0.44878380798E+03  0.91702773494E+02 0.  0.
          2    1    3    3  502    0 -0.84694997048E+01 -0.68474847494E+00  0.43080801802E+01  0.95268494562E+01  0.00000000000E+00 0. -1.
         -1    1    3    3    0  502  0.17240112305E+03 -0.13162063965E+03  0.13647583001E+03  0.25626508187E+03  0.00000000000E+00 0.  1.
         13    1    5    5    0    0  0.21602936127E+01 -0.91432899211E+01  0.12410672401E+01  0.94766485093E+01  0.00000000000E+00 0. -1.
        -13    1    5    5    0    0 -0.41343323589E+03 -0.11908809409E+03  0.20635508147E+03  0.47717023622E+03  0.00000000000E+00 0.  1.
          1    1    6    6  503    0  0.13029013138E+03  0.94368426238E+02 -0.15421862886E+03  0.22285489381E+03  0.00000000000E+00 0. -1.
         -1    1    6    6    0  503  0.11705118755E+03  0.16616834589E+03 -0.98645702260E+02  0.22592891417E+03  0.00000000000E+00 0.  1.
<mgrwt>
<rscale>  0 0.11974191E+04</rscale>
<asrwt>0</asrwt>
<pdfrwt beam="1">  1        2 0.85054377E-01 0.11974191E+04</pdfrwt>
<pdfrwt beam="2">  1       -1 0.99749104E-01 0.11974191E+04</pdfrwt>
<totfact> 0.59208032E+01</totfact>
</mgrwt>
</event>
<event>
12    7  0.1572140E-007  0.1915905E+04  0.7818608E-02  0.8646980E-01
         -1   -1    0    0    0  501 -0.00000000000E+00  0.00000000000E+00  0.67373365617E+03  0.67373365617E+03  0.00000000000E+00 0.  1.
          2   -1    0    0  501    0  0.00000000000E+00 -0.00000000000E+00 -0.13620705653E+04  0.13620705653E+04  0.00000000000E+00 0. -1.
         24    2    1    2    0    0  0.31623130386E+03 -0.59476857990E+03  0.67211802276E+02  0.68161763860E+03  0.79581893081E+02 0.  0.
        254    2    1    2    0    0 -0.31623130386E+03  0.59476857990E+03 -0.75554871143E+03  0.13541865829E+04  0.89956408598E+03 0.  0.
         23    2    4    4    0    0 -0.21486813332E+03  0.54012592284E+03 -0.94544852880E+03  0.11137357189E+04  0.92897813613E+02 0.  0.
         23    2    4    4    0    0 -0.10136317054E+03  0.54642657052E+02  0.18989981737E+03  0.24045086396E+03  0.92164879608E+02 0.  0.
          4    1    3    3  502    0  0.12780530977E+03 -0.18475325498E+03  0.49450277351E+02  0.23002889463E+03  0.00000000000E+00 0. -1.
         -3    1    3    3    0  502  0.18842599409E+03 -0.41001532492E+03  0.17761524925E+02  0.45158874397E+03  0.00000000000E+00 0.  1.
         13    1    5    5    0    0 -0.16818957698E+03  0.35469654228E+03 -0.56564861395E+03  0.68851704799E+03  0.00000000000E+00 0.  1.
        -13    1    5    5    0    0 -0.46678556340E+02  0.18542938057E+03 -0.37979991485E+03  0.42521867095E+03  0.00000000000E+00 0. -1.
          3    1    6    6  503    0 -0.39058423029E+02 -0.15379105658E+02  0.20192975272E+02  0.46581472183E+02  0.00000000000E+00 0. -1.
         -3    1    6    6    0  503 -0.62304747507E+02  0.70021762710E+02  0.16970684209E+03  0.19386939178E+03  0.00000000000E+00 0.  1.
<mgrwt>
<rscale>  0 0.19159048E+04</rscale>
<asrwt>0</asrwt>
<pdfrwt beam="1">  1        2 0.20954931E+00 0.19159048E+04</pdfrwt>
<pdfrwt beam="2">  1       -1 0.10365133E+00 0.19159048E+04</pdfrwt>
<totfact> 0.14233069E+01</totfact>
</mgrwt>
</event>
<event>
12    7  0.1572140E-007  0.1924610E+04  0.7818608E-02  0.8642703E-01
          2   -1    0    0  501    0  0.00000000000E+00  0.00000000000E+00  0.27628628091E+04  0.27628628091E+04  0.00000000000E+00 0. -1.
         -1   -1    0    0    0  501 -0.00000000000E+00 -0.00000000000E+00 -0.33517071316E+03  0.33517071316E+03  0.00000000000E+00 0.  1.
         24    2    1    2    0    0  0.47868103344E+03  0.31490398034E+03  0.16783877299E+03  0.60225569668E+03  0.79006467143E+02 0.  0.
        254    2    1    2    0    0 -0.47868103344E+03 -0.31490398034E+03  0.22598533229E+04  0.24957778256E+04  0.89088150998E+03 0.  0.
         23    2    4    4    0    0  0.13384155880E+03 -0.38348629177E+03  0.67424564565E+03  0.79204019596E+03  0.88006718505E+02 0.  0.
         23    2    4    4    0    0 -0.61252259224E+03  0.68582311429E+02  0.15856076773E+04  0.17037376296E+04  0.93181247239E+02 0.  0.
          4    1    3    3  502    0  0.17057443400E+03  0.83227284570E+02  0.26338160629E+02  0.19161450137E+03  0.00000000000E+00 0. -1.
         -3    1    3    3    0  502  0.30810659945E+03  0.23167669577E+03  0.14150061236E+03  0.41064119531E+03  0.00000000000E+00 0.  1.
         13    1    5    5    0    0  0.99492692355E+02 -0.16389884033E+03  0.34714101564E+03  0.39657093998E+03  0.00000000000E+00 0.  1.
        -13    1    5    5    0    0  0.34348866444E+02 -0.21958745144E+03  0.32710463001E+03  0.39546925598E+03  0.00000000000E+00 0. -1.
          4    1    6    6  503    0 -0.61213453112E+03  0.63987454727E+02  0.15482680564E+04  0.16661143577E+04  0.00000000000E+00 0.  1.
         -4    1    6    6    0  503 -0.38806112058E+00  0.45948567017E+01  0.37339620856E+02  0.37623271856E+02  0.00000000000E+00 0. -1.
<mgrwt>
<rscale>  0 0.19246098E+04</rscale>
<asrwt>0</asrwt>
<pdfrwt beam="1">  1        2 0.42505580E+00 0.19246098E+04</pdfrwt>
<pdfrwt beam="2">  1       -1 0.51564727E-01 0.19246098E+04</pdfrwt>
<totfact> 0.98211914E+00</totfact>
</mgrwt>
</event>
<event>
12    7  0.1572140E-007  0.1349617E+04  0.7818608E-02  0.8991118E-01
          2   -1    0    0  501    0  0.00000000000E+00  0.00000000000E+00  0.54184826016E+03  0.54184826016E+03  0.00000000000E+00 0. -1.
         -1   -1    0    0    0  501 -0.00000000000E+00 -0.00000000000E+00 -0.84039514446E+03  0.84039514446E+03  0.00000000000E+00 0.  1.
         24    2    1    2    0    0 -0.77213655237E+02  0.35776945476E+03 -0.24861757870E+03  0.44918203304E+03  0.77413610254E+02 0.  0.
        254    2    1    2    0    0  0.77213655237E+02 -0.35776945476E+03 -0.49929305598E+02  0.93306137157E+03  0.85682533591E+03 0.  0.
         23    2    4    4    0    0  0.13733335342E+03  0.23635361518E+03 -0.14135658504E+03  0.32089171454E+03  0.90919343139E+02 0.  0.
         23    2    4    4    0    0 -0.60119698184E+02 -0.59412306993E+03  0.91427279447E+02  0.61216965703E+03  0.98975457696E+02 0.  0.
          2    1    3    3  502    0 -0.25344453543E+01 -0.26088676918E+01 -0.97989112451E+01  0.10452189506E+02  0.00000000000E+00 0. -1.
         -1    1    3    3    0  502 -0.74679209883E+02  0.36037832245E+03 -0.23881866746E+03  0.43872984353E+03  0.00000000000E+00 0.  1.
         13    1    5    5    0    0  0.57958654628E+02  0.84594046617E+02 -0.10308763807E+03  0.14540433106E+03  0.00000000000E+00 0.  1.
        -13    1    5    5    0    0  0.79374698793E+02  0.15175956856E+03 -0.38268946979E+02  0.17548738348E+03  0.00000000000E+00 0. -1.
          1    1    6    6  503    0 -0.49953400383E+02 -0.58151160780E+03  0.10244939916E+03  0.59257655337E+03  0.00000000000E+00 0. -1.
         -1    1    6    6    0  503 -0.10166297800E+02 -0.12611462133E+02 -0.11022119713E+02  0.19593103661E+02  0.00000000000E+00 0.  1.
<mgrwt>
<rscale>  0 0.13496172E+04</rscale>
<asrwt>0</asrwt>
<pdfrwt beam="1">  1        2 0.83361271E-01 0.13496172E+04</pdfrwt>
<pdfrwt beam="2">  1       -1 0.12929156E+00 0.13496172E+04</pdfrwt>
<totfact> 0.32183590E+01</totfact>
</mgrwt>
</event>
<event>
12    7  0.1572140E-007  0.1206821E+04  0.7818608E-02  0.9106907E-01
         -1   -1    0    0    0  501 -0.00000000000E+00  0.00000000000E+00  0.60035001940E+03  0.60035001940E+03  0.00000000000E+00 0.  1.
          2   -1    0    0  501    0  0.00000000000E+00 -0.00000000000E+00 -0.60648708467E+03  0.60648708467E+03  0.00000000000E+00 0. -1.
         24    2    1    2    0    0 -0.92963390917E+02 -0.25350989408E+03 -0.89801976249E+02  0.29563633422E+03  0.80168502073E+02 0.  0.
        254    2    1    2    0    0  0.92963390917E+02  0.25350989408E+03  0.83664910973E+02  0.91120076985E+03  0.86624336488E+03 0.  0.
         23    2    4    4    0    0 -0.74274062520E+02  0.41225446730E+03 -0.24936980695E+03  0.49589346840E+03  0.90855100104E+02 0.  0.
         23    2    4    4    0    0  0.16723745344E+03 -0.15874457322E+03  0.33303471792E+03  0.41530730145E+03  0.91650564300E+02 0.  0.
          4    1    3    3  502    0 -0.54255273253E+02 -0.17379949211E+03 -0.20656838921E+02  0.18323919648E+03  0.00000000000E+00 0. -1.
         -3    1    3    3    0  502 -0.38708117664E+02 -0.79710401976E+02 -0.69145137328E+02  0.11239713774E+03  0.00000000000E+00 0.  1.
         13    1    5    5    0    0  0.46379682607E+01  0.20803791301E+02  0.56913651031E+01  0.22061280988E+02  0.00000000000E+00 0.  1.
        -13    1    5    5    0    0 -0.78912030781E+02  0.39145067600E+03 -0.25506117205E+03  0.47383218742E+03  0.00000000000E+00 0. -1.
          3    1    6    6  503    0  0.74891036366E+02 -0.10169346099E+03  0.24465693208E+03  0.27533114925E+03  0.00000000000E+00 0. -1.
         -3    1    6    6    0  503  0.92346417072E+02 -0.57051112226E+02  0.88377785846E+02  0.13997615219E+03  0.00000000000E+00 0.  1.
<mgrwt>
<rscale>  0 0.12068215E+04</rscale>
<asrwt>0</asrwt>
<pdfrwt beam="1">  1        2 0.93305705E-01 0.12068215E+04</pdfrwt>
<pdfrwt beam="2">  1       -1 0.92361542E-01 0.12068215E+04</pdfrwt>
<totfact> 0.62962756E+01</totfact>
</mgrwt>
</event>
<event>
12    7  0.1572140E-007  0.1634927E+04  0.7818608E-02  0.8799374E-01
          2   -1    0    0  501    0  0.00000000000E+00  0.00000000000E+00  0.26088627179E+04  0.26088627179E+04  0.00000000000E+00 0. -1.
         -1   -1    0    0    0  501 -0.00000000000E+00 -0.00000000000E+00 -0.25614465564E+03  0.25614465564E+03  0.00000000000E+00 0.  1.
         24    2    1    2    0    0 -0.19085701125E+03 -0.11363066731E+03  0.17632002606E+04  0.17789155295E+04  0.79542282739E+02 0.  0.
        254    2    1    2    0    0  0.19085701125E+03  0.11363066731E+03  0.58951780167E+03  0.10860918441E+04  0.88471799347E+03 0.  0.
         23    2    4    4    0    0  0.46281898206E+03 -0.49300026084E+02  0.82266924958E+02  0.48141694916E+03  0.91446865796E+02 0.  0.
         23    2    4    4    0    0 -0.27196197081E+03  0.16293069339E+03  0.50725087672E+03  0.60467489492E+03  0.88422577408E+02 0.  0.
          2    1    3    3  502    0 -0.14347269007E+03 -0.47030285628E+02  0.99695920840E+03  0.10083272900E+04  0.00000000000E+00 0. -1.
         -1    1    3    3    0  502 -0.47384321185E+02 -0.66600381678E+02  0.76624105219E+03  0.77058823946E+03  0.00000000000E+00 0.  1.
         13    1    5    5    0    0  0.43837612553E+03 -0.35275780434E+02  0.95876156973E+02  0.45012247844E+03  0.00000000000E+00 0.  1.
        -13    1    5    5    0    0  0.24442856534E+02 -0.14024245650E+02 -0.13609232015E+02  0.31294470720E+02  0.00000000000E+00 0. -1.
          3    1    6    6  503    0 -0.52996822797E+02  0.70677666540E+02  0.10231024195E+03  0.13517167374E+03  0.00000000000E+00 0. -1.
         -3    1    6    6    0  503 -0.21896514802E+03  0.92253026850E+02  0.40494063477E+03  0.46950322118E+03  0.00000000000E+00 0.  1.
<mgrwt>
<rscale>  0 0.16349266E+04</rscale>
<asrwt>0</asrwt>
<pdfrwt beam="1">  1        2 0.40136348E+00 0.16349266E+04</pdfrwt>
<pdfrwt beam="2">  1       -1 0.39406872E-01 0.16349266E+04</pdfrwt>
<totfact> 0.20552247E+01</totfact>
</mgrwt>
</event>
<event>
12    7  0.1572140E-007  0.1588504E+04  0.7818608E-02  0.8827641E-01
         -1   -1    0    0    0  501 -0.00000000000E+00  0.00000000000E+00  0.52118599827E+03  0.52118599827E+03  0.00000000000E+00 0.  1.
          2   -1    0    0  501    0  0.00000000000E+00 -0.00000000000E+00 -0.12103865853E+04  0.12103865853E+04  0.00000000000E+00 0. -1.
         24    2    1    2    0    0  0.35653786086E+03 -0.39634484218E+03 -0.32810250609E+03  0.63131298521E+03  0.81831232674E+02 0.  0.
        254    2    1    2    0    0 -0.35653786086E+03  0.39634484218E+03 -0.36109808089E+03  0.11002595983E+04  0.89217200107E+03 0.  0.
         23    2    4    4    0    0 -0.17402674137E+03  0.61402328193E+03 -0.16782794277E+02  0.64448707714E+03  0.88159134257E+02 0.  0.
         23    2    4    4    0    0 -0.18251111949E+03 -0.21767843975E+03 -0.34431528662E+03  0.45577252116E+03  0.92094313494E+02 0.  0.
          2    1    3    3  502    0  0.19348361755E+03 -0.25585032117E+03 -0.16150715030E+03  0.35913765704E+03  0.00000000000E+00 0. -1.
         -1    1    3    3    0  502  0.16305424332E+03 -0.14049452101E+03 -0.16659535579E+03  0.27217532818E+03  0.00000000000E+00 0.  1.
         13    1    5    5    0    0 -0.90974076319E+02  0.33846473224E+03  0.34425450396E+02  0.35216440645E+03  0.00000000000E+00 0. -1.
        -13    1    5    5    0    0 -0.83052665054E+02  0.27555854969E+03 -0.51208244673E+02  0.29232267070E+03  0.00000000000E+00 0.  1.
          1    1    6    6  503    0 -0.99760103762E+02 -0.17586764032E+03 -0.26783510289E+03  0.33558478445E+03  0.00000000000E+00 0. -1.
         -1    1    6    6    0  503 -0.82751015730E+02 -0.41810799437E+02 -0.76480183728E+02  0.12018773672E+03  0.00000000000E+00 0.  1.
<mgrwt>
<rscale>  0 0.15885044E+04</rscale>
<asrwt>0</asrwt>
<pdfrwt beam="1">  1        2 0.18621332E+00 0.15885044E+04</pdfrwt>
<pdfrwt beam="2">  1       -1 0.80182461E-01 0.15885044E+04</pdfrwt>
<totfact> 0.31724033E+01</totfact>
</mgrwt>
</event>
<event>
12    7  0.1572140E-007  0.2429054E+04  0.7818608E-02  0.8428705E-01
         -1   -1    0    0    0  501 -0.00000000000E+00  0.00000000000E+00  0.97176202735E+03  0.97176202735E+03  0.00000000000E+00 0.  1.
          2   -1    0    0  501    0  0.00000000000E+00 -0.00000000000E+00 -0.15179397541E+04  0.15179397541E+04  0.00000000000E+00 0. -1.
         24    2    1    2    0    0  0.38713451294E+03  0.69894607354E+03  0.45551419657E+03  0.92319458382E+03  0.79976943477E+02 0.  0.
        254    2    1    2    0    0 -0.38713451294E+03 -0.69894607354E+03 -0.10016919233E+04  0.15665071976E+04  0.90119883830E+03 0.  0.
         23    2    4    4    0    0 -0.48589427403E+03 -0.29492409179E+02 -0.26160265307E+03  0.56005869554E+03  0.90921651041E+02 0.  0.
         23    2    4    4    0    0  0.98759761089E+02 -0.66945366436E+03 -0.74008927022E+03  0.10064485021E+04  0.85350807122E+02 0.  0.
          2    1    3    3  502    0  0.10228728829E+03  0.14412727883E+03  0.13216365768E+03  0.22068664269E+03  0.00000000000E+00 0. -1.
         -1    1    3    3    0  502  0.28484722465E+03  0.55481879471E+03  0.32335053889E+03  0.70250794113E+03  0.00000000000E+00 0.  1.
         13    1    5    5    0    0 -0.25264267535E+03  0.25886470496E+02 -0.11273582460E+03  0.27786291028E+03  0.00000000000E+00 0.  1.
        -13    1    5    5    0    0 -0.23325159868E+03 -0.55378879676E+02 -0.14886682847E+03  0.28219578526E+03  0.00000000000E+00 0. -1.
          2    1    6    6  503    0  0.54762280562E+02 -0.13485031656E+03 -0.15081234440E+03  0.20958978618E+03  0.00000000000E+00 0. -1.
         -2    1    6    6    0  503  0.43997480527E+02 -0.53460334781E+03 -0.58927692582E+03  0.79685871589E+03  0.00000000000E+00 0.  1.
<mgrwt>
<rscale>  0 0.24290543E+04</rscale>
<asrwt>0</asrwt>
<pdfrwt beam="1">  1        2 0.23352919E+00 0.24290543E+04</pdfrwt>
<pdfrwt beam="2">  1       -1 0.14950185E+00 0.24290543E+04</pdfrwt>
<totfact> 0.44610983E+00</totfact>
</mgrwt>
</event>
<event>
12    7  0.1572140E-007  0.1307863E+04  0.7818608E-02  0.9023353E-01
          2   -1    0    0  501    0  0.00000000000E+00  0.00000000000E+00  0.21664917126E+04  0.21664917126E+04  0.00000000000E+00 0. -1.
         -1   -1    0    0    0  501 -0.00000000000E+00 -0.00000000000E+00 -0.19738201467E+03  0.19738201467E+03  0.00000000000E+00 0.  1.
         24    2    1    2    0    0 -0.13235436298E+03  0.26408204704E+03  0.22289634092E+03  0.37853012557E+03  0.79657216842E+02 0.  0.
        254    2    1    2    0    0  0.13235436298E+03 -0.26408204704E+03  0.17462133570E+04  0.19853436017E+04  0.89725755703E+03 0.  0.
         23    2    4    4    0    0  0.49435504595E+03 -0.11775754670E+03  0.12135878493E+04  0.13189094042E+04  0.92047798951E+02 0.  0.
         23    2    4    4    0    0 -0.36200068297E+03 -0.14632450034E+03  0.53262550764E+03  0.66643419743E+03  0.89382628321E+02 0.  0.
          4    1    3    3  502    0 -0.63302496437E+01 -0.11602486550E+00  0.23536819061E+02  0.24373497365E+02  0.00000000000E+00 0. -1.
         -3    1    3    3    0  502 -0.12602411334E+03  0.26419807191E+03  0.19935952186E+03  0.35415662820E+03  0.00000000000E+00 0.  1.
         13    1    5    5    0    0  0.43918643859E+03 -0.83848004634E+02  0.99314702161E+03  0.10891539020E+04  0.00000000000E+00 0.  1.
        -13    1    5    5    0    0  0.55168607361E+02 -0.33909542066E+02  0.22044082772E+03  0.22975550224E+03  0.00000000000E+00 0. -1.
          1    1    6    6  503    0 -0.27765821788E+02 -0.31789792107E+02  0.28902972719E+02  0.51155777520E+02  0.00000000000E+00 0. -1.
         -1    1    6    6    0  503 -0.33423486118E+03 -0.11453470824E+03  0.50372253492E+03  0.61527841991E+03  0.00000000000E+00 0.  1.
<mgrwt>
<rscale>  0 0.13078631E+04</rscale>
<asrwt>0</asrwt>
<pdfrwt beam="1">  1        2 0.33330640E+00 0.13078631E+04</pdfrwt>
<pdfrwt beam="2">  1       -1 0.30366465E-01 0.13078631E+04</pdfrwt>
<totfact> 0.60215525E+01</totfact>
</mgrwt>
</event>
<event>
12    7  0.1572140E-007  0.2042416E+04  0.7818608E-02  0.8587042E-01
          2   -1    0    0  501    0  0.00000000000E+00  0.00000000000E+00  0.15535276047E+04  0.15535276047E+04  0.00000000000E+00 0. -1.
         -1   -1    0    0    0  501 -0.00000000000E+00 -0.00000000000E+00 -0.67128902885E+03  0.67128902885E+03  0.00000000000E+00 0.  1.
         24    2    1    2    0    0  0.59155943913E+03  0.56257943371E+03  0.23121379375E+03  0.85221652549E+03  0.79843588614E+02 0.  0.
        254    2    1    2    0    0 -0.59155943913E+03 -0.56257943371E+03  0.65102478210E+03  0.13726001081E+04  0.89093187196E+03 0.  0.
         23    2    4    4    0    0 -0.70204064900E+03 -0.70386179496E+03  0.60146977436E+03  0.11654161240E+04  0.90257151128E+02 0.  0.
         23    2    4    4    0    0  0.11048120988E+03  0.14128236125E+03  0.49555007739E+02  0.20718398406E+03  0.91119158925E+02 0.  0.
          2    1    3    3  502    0  0.58834968533E+03  0.54583301372E+03  0.23110922067E+03  0.83516495554E+03  0.00000000000E+00 0. -1.
         -3    1    3    3    0  502  0.32097537954E+01  0.16746419994E+02  0.10457308148E+00  0.17051569944E+02  0.00000000000E+00 0.  1.
         13    1    5    5    0    0 -0.63174098682E+03 -0.60565254655E+03  0.55322575398E+03  0.10353600419E+04  0.00000000000E+00 0. -1.
        -13    1    5    5    0    0 -0.70299662181E+02 -0.98209248416E+02  0.48244020375E+02  0.13005608205E+03  0.00000000000E+00 0.  1.
          1    1    6    6  503    0  0.70746456869E+02  0.27397395378E+02  0.41066797499E+02  0.86267956333E+02  0.00000000000E+00 0. -1.
         -1    1    6    6    0  503  0.39734753008E+02  0.11388496588E+03  0.84882102401E+01  0.12091602773E+03  0.00000000000E+00 0.  1.
<mgrwt>
<rscale>  0 0.20424163E+04</rscale>
<asrwt>0</asrwt>
<pdfrwt beam="1">  1        2 0.23900425E+00 0.20424163E+04</pdfrwt>
<pdfrwt beam="2">  1       -1 0.10327524E+00 0.20424163E+04</pdfrwt>
<totfact> 0.11051791E+01</totfact>
</mgrwt>
</event>
<event>
12    7  0.1572140E-007  0.4391935E+04  0.7818608E-02  0.7929834E-01
          2   -1    0    0  501    0  0.00000000000E+00  0.00000000000E+00  0.28817480513E+04  0.28817480513E+04  0.00000000000E+00 0. -1.
         -1   -1    0    0    0  501 -0.00000000000E+00 -0.00000000000E+00 -0.16733847898E+04  0.16733847898E+04  0.00000000000E+00 0.  1.
         24    2    1    2    0    0 -0.38498140357E+02  0.20320135134E+04  0.11369023169E+04  0.23307165262E+04  0.95559520142E+02 0.  0.
        254    2    1    2    0    0  0.38498140357E+02 -0.20320135134E+04  0.71460944573E+02  0.22244163149E+04  0.90131029611E+03 0.  0.
         23    2    4    4    0    0  0.30038674858E+03 -0.89874958149E+03 -0.30271480033E+03  0.99901752694E+03  0.91742900845E+02 0.  0.
         23    2    4    4    0    0 -0.26188860823E+03 -0.11332639319E+04  0.37417574490E+03  0.12253987880E+04  0.93391214360E+02 0.  0.
          4    1    3    3  502    0 -0.48290140786E+02  0.20042815096E+04  0.11254528768E+04  0.22991564726E+04  0.00000000000E+00 0. -1.
         -3    1    3    3    0  502  0.97920004284E+01  0.27732003766E+02  0.11449440085E+02  0.31560053605E+02  0.00000000000E+00 0.  1.
         13    1    5    5    0    0  0.27140293713E+03 -0.75159125315E+03 -0.28308218933E+03  0.84775261251E+03  0.00000000000E+00 0. -1.
        -13    1    5    5    0    0  0.28983811455E+02 -0.14715832834E+03 -0.19632610997E+02  0.15126491444E+03  0.00000000000E+00 0.  1.
          1    1    6    6  503    0 -0.11129486864E+03 -0.48872699271E+03  0.20995328222E+03  0.54343445042E+03  0.00000000000E+00 0. -1.
         -1    1    6    6    0  503 -0.15059373959E+03 -0.64453693922E+03  0.16422246268E+03  0.68196433753E+03  0.00000000000E+00 0.  1.
<mgrwt>
<rscale>  0 0.43919350E+04</rscale>
<asrwt>0</asrwt>
<pdfrwt beam="1">  1        2 0.44334585E+00 0.43919350E+04</pdfrwt>
<pdfrwt beam="2">  1       -1 0.25744381E+00 0.43919350E+04</pdfrwt>
<totfact> 0.11158334E-01</totfact>
</mgrwt>
</event>
<event>
12    7  0.1572140E-007  0.1723034E+04  0.7818608E-02  0.8748335E-01
         -1   -1    0    0    0  501 -0.00000000000E+00  0.00000000000E+00  0.36061593797E+03  0.36061593797E+03  0.00000000000E+00 0.  1.
          2   -1    0    0  501    0  0.00000000000E+00 -0.00000000000E+00 -0.20581775627E+04  0.20581775627E+04  0.00000000000E+00 0. -1.
         24    2    1    2    0    0 -0.37845062887E+03  0.21992541536E+03 -0.29902480398E+01  0.44618672770E+03  0.86496170883E+02 0.  0.
        254    2    1    2    0    0  0.37845062887E+03 -0.21992541536E+03 -0.16945713767E+04  0.19726067730E+04  0.90995234120E+03 0.  0.
         23    2    4    4    0    0  0.56494671012E+03 -0.16543833122E+03 -0.16498601787E+04  0.17541696839E+04  0.92401537074E+02 0.  0.
         23    2    4    4    0    0 -0.18649608125E+03 -0.54487084132E+02 -0.44711197987E+02  0.21843708904E+03  0.89252674939E+02 0.  0.
          2    1    3    3  502    0 -0.19720238688E+03  0.10770178921E+03  0.41288446958E+02  0.22845829519E+03  0.00000000000E+00 0. -1.
         -1    1    3    3    0  502 -0.18124824200E+03  0.11222362614E+03 -0.44278694998E+02  0.21772843251E+03  0.00000000000E+00 0.  1.
         13    1    5    5    0    0  0.40301715550E+03 -0.74382923647E+02 -0.11599136433E+04  0.12301850702E+04  0.00000000000E+00 0.  1.
        -13    1    5    5    0    0  0.16192955462E+03 -0.91055407577E+02 -0.48994653541E+03  0.52398461377E+03  0.00000000000E+00 0. -1.
          1    1    6    6  503    0 -0.17763631387E+03 -0.73393537797E+02 -0.45608669434E+02  0.19753840671E+03  0.00000000000E+00 0. -1.
         -1    1    6    6    0  503 -0.88597673733E+01  0.18906453665E+02  0.89747144766E+00  0.20898682329E+02  0.00000000000E+00 0.  1.
<mgrwt>
<rscale>  0 0.17230341E+04</rscale>
<asrwt>0</asrwt>
<pdfrwt beam="1">  1        2 0.31664270E+00 0.17230341E+04</pdfrwt>
<pdfrwt beam="2">  1       -1 0.55479375E-01 0.17230341E+04</pdfrwt>
<totfact> 0.22039098E+01</totfact>
</mgrwt>
</event>
<event>
12    7  0.1572140E-007  0.1881934E+04  0.7818608E-02  0.8663902E-01
         -1   -1    0    0    0  501 -0.00000000000E+00  0.00000000000E+00  0.38396837096E+03  0.38396837096E+03  0.00000000000E+00 0.  1.
          2   -1    0    0  501    0  0.00000000000E+00 -0.00000000000E+00 -0.23059680232E+04  0.23059680232E+04  0.00000000000E+00 0. -1.
         24    2    1    2    0    0  0.70334123022E+03 -0.64611401023E+02 -0.93325892834E+03  0.11735718193E+04  0.86226842901E+02 0.  0.
        254    2    1    2    0    0 -0.70334123022E+03  0.64611401023E+02 -0.98874072386E+03  0.15163645748E+04  0.90713272759E+03 0.  0.
         23    2    4    4    0    0 -0.43500908226E+03  0.43902291147E+03 -0.78812274199E+03  0.10055819277E+04  0.89908500688E+02 0.  0.
         23    2    4    4    0    0 -0.26833214797E+03 -0.37441151044E+03 -0.20061798187E+03  0.51078264709E+03  0.92006614611E+02 0.  0.
          2    1    3    3  502    0  0.54304002502E+03 -0.62526430645E+02 -0.66236686461E+03  0.85879676678E+03  0.00000000000E+00 0. -1.
         -1    1    3    3    0  502  0.16030120521E+03 -0.20849703780E+01 -0.27089206373E+03  0.31477505251E+03  0.00000000000E+00 0.  1.
         13    1    5    5    0    0 -0.20867611942E+03  0.18374845195E+03 -0.28931535556E+03  0.40126374291E+03  0.00000000000E+00 0. -1.
        -13    1    5    5    0    0 -0.22633296284E+03  0.25527445952E+03 -0.49880738643E+03  0.60431818482E+03  0.00000000000E+00 0.  1.
          3    1    6    6  503    0 -0.59508593805E+02 -0.11179468626E+03 -0.15529009757E+02  0.12759496368E+03  0.00000000000E+00 0. -1.
         -3    1    6    6    0  503 -0.20882355416E+03 -0.26261682418E+03 -0.18508897211E+03  0.38318768340E+03  0.00000000000E+00 0.  1.
<mgrwt>
<rscale>  0 0.18819339E+04</rscale>
<asrwt>0</asrwt>
<pdfrwt beam="1">  1        2 0.35476431E+00 0.18819339E+04</pdfrwt>
<pdfrwt beam="2">  1       -1 0.59072057E-01 0.18819339E+04</pdfrwt>
<totfact> 0.13958739E+01</totfact>
</mgrwt>
</event>
<event>
12    7  0.1572140E-007  0.1951755E+04  0.7818608E-02  0.8629515E-01
          2   -1    0    0  501    0  0.00000000000E+00  0.00000000000E+00  0.26040898863E+04  0.26040898863E+04  0.00000000000E+00 0. -1.
         -1   -1    0    0    0  501 -0.00000000000E+00 -0.00000000000E+00 -0.36570823328E+03  0.36570823328E+03  0.00000000000E+00 0.  1.
         24    2    1    2    0    0 -0.50020104260E+03  0.20786018443E+03  0.17078283426E+04  0.17934226772E+04  0.79248419920E+02 0.  0.
        254    2    1    2    0    0  0.50020104260E+03 -0.20786018443E+03  0.53055331039E+03  0.11763754423E+04  0.89942505351E+03 0.  0.
         23    2    4    4    0    0 -0.72768216767E+02 -0.16324147562E+02  0.55237068660E+03  0.56487985312E+03  0.91728849767E+02 0.  0.
         23    2    4    4    0    0  0.57296925937E+03 -0.19153603686E+03 -0.21817376204E+02  0.61149558922E+03  0.92038210208E+02 0.  0.
          4    1    3    3  502    0 -0.33683699019E+03  0.10835236695E+03  0.11851019953E+04  0.12367967225E+04  0.00000000000E+00 0. -1.
         -3    1    3    3    0  502 -0.16336405241E+03  0.99507817478E+02  0.52272634730E+03  0.55662595477E+03  0.00000000000E+00 0.  1.
         13    1    5    5    0    0 -0.60011637252E+02 -0.19231346506E+01  0.53675131622E+03  0.54009913027E+03  0.00000000000E+00 0.  1.
        -13    1    5    5    0    0 -0.12756579515E+02 -0.14401012911E+02  0.15619370373E+02  0.24780722843E+02  0.00000000000E+00 0. -1.
          1    1    6    6  503    0  0.79145260009E+02  0.57003386183E+01 -0.27216402335E+01  0.79396935506E+02  0.00000000000E+00 0. -1.
         -1    1    6    6    0  503  0.49382399936E+03 -0.19723637548E+03 -0.19095735971E+02  0.53209865372E+03  0.00000000000E+00 0.  1.
<mgrwt>
<rscale>  0 0.19517552E+04</rscale>
<asrwt>0</asrwt>
<pdfrwt beam="1">  1        2 0.40062920E+00 0.19517552E+04</pdfrwt>
<pdfrwt beam="2">  1       -1 0.56262807E-01 0.19517552E+04</pdfrwt>
<totfact> 0.10281583E+01</totfact>
</mgrwt>
</event>
<event>
12    7  0.1572140E-007  0.1589433E+04  0.7818608E-02  0.8827066E-01
          2   -1    0    0  501    0  0.00000000000E+00  0.00000000000E+00  0.14331774761E+04  0.14331774761E+04  0.00000000000E+00 0. -1.
         -1   -1    0    0    0  501 -0.00000000000E+00 -0.00000000000E+00 -0.44068129608E+03  0.44068129608E+03  0.00000000000E+00 0.  1.
         24    2    1    2    0    0 -0.27615806377E+03 -0.17691212874E+03 -0.16502617756E+03  0.37590018852E+03  0.80660615956E+02 0.  0.
        254    2    1    2    0    0  0.27615806377E+03  0.17691212874E+03  0.11575223575E+04  0.14979585836E+04  0.89244648723E+03 0.  0.
         23    2    4    4    0    0  0.35712539056E+01  0.27005531555E+03  0.11577870552E+04  0.11923793908E+04  0.91406340208E+02 0.  0.
         23    2    4    4    0    0  0.27258680987E+03 -0.93143186816E+02 -0.26469767226E+00  0.30557919285E+03  0.10197720761E+03 0.  0.
          2    1    3    3  502    0 -0.11561541790E+03 -0.66705337971E+02 -0.11157077041E+03  0.17396713419E+03  0.00000000000E+00 0. -1.
         -1    1    3    3    0  502 -0.16054264587E+03 -0.11020679076E+03 -0.53455407151E+02  0.20193305432E+03  0.00000000000E+00 0.  1.
         13    1    5    5    0    0  0.33003574908E+02  0.17925386765E+03  0.87918317458E+03  0.89787763058E+03  0.00000000000E+00 0. -1.
        -13    1    5    5    0    0 -0.29432321003E+02  0.90801447897E+02  0.27860388062E+03  0.29450176019E+03  0.00000000000E+00 0.  1.
          2    1    6    6  503    0  0.95555281045E+02 -0.30176951652E+02 -0.48883923729E+02  0.11149483462E+03  0.00000000000E+00 0.  1.
         -2    1    6    6    0  503  0.17703152882E+03 -0.62966235164E+02  0.48619226057E+02  0.19408435823E+03  0.00000000000E+00 0. -1.
<mgrwt>
<rscale>  0 0.15894332E+04</rscale>
<asrwt>0</asrwt>
<pdfrwt beam="1">  1        2 0.22048884E+00 0.15894332E+04</pdfrwt>
<pdfrwt beam="2">  1       -1 0.67797123E-01 0.15894332E+04</pdfrwt>
<totfact> 0.33375862E+01</totfact>
</mgrwt>
</event>
<event>
12    7  0.1572140E-007  0.2968662E+04  0.7818608E-02  0.8252737E-01
          2   -1    0    0  501    0  0.00000000000E+00  0.00000000000E+00  0.21908190386E+04  0.21908190386E+04  0.00000000000E+00 0. -1.
         -1   -1    0    0    0  501 -0.00000000000E+00 -0.00000000000E+00 -0.10056690159E+04  0.10056690159E+04  0.00000000000E+00 0.  1.
         24    2    1    2    0    0  0.38865639832E+03 -0.12177218630E+04  0.84843556829E+02  0.12834971227E+04  0.79158721361E+02 0.  0.
        254    2    1    2    0    0 -0.38865639832E+03  0.12177218630E+04  0.11003064659E+04  0.19129909318E+04  0.90275115881E+03 0.  0.
         23    2    4    4    0    0 -0.34813416158E+03  0.84066822289E+03  0.12023325715E+04  0.15105055132E+04  0.90015762599E+02 0.  0.
         23    2    4    4    0    0 -0.40522236731E+02  0.37705364014E+03 -0.10202610556E+03  0.40248541866E+03  0.88168513667E+02 0.  0.
          2    1    3    3  502    0  0.22521245602E+03 -0.82579551252E+03  0.49400958000E+02  0.85737934049E+03  0.00000000000E+00 0. -1.
         -1    1    3    3    0  502  0.16344394230E+03 -0.39192635051E+03  0.35442598829E+02  0.42611778221E+03  0.00000000000E+00 0.  1.
         13    1    5    5    0    0  0.41238290802E+01  0.13475463433E+02  0.10423517203E+02  0.17528371056E+02  0.00000000000E+00 0. -1.
        -13    1    5    5    0    0 -0.35225799066E+03  0.82719275946E+03  0.11919090542E+04  0.14929771421E+04  0.00000000000E+00 0.  1.
          1    1    6    6  503    0 -0.36847140575E+01  0.11844877887E+03 -0.74136862747E+02  0.13978542396E+03  0.00000000000E+00 0. -1.
         -1    1    6    6    0  503 -0.36837522673E+02  0.25860486127E+03 -0.27889242816E+02  0.26269999470E+03  0.00000000000E+00 0.  1.
<mgrwt>
<rscale>  0 0.29686622E+04</rscale>
<asrwt>0</asrwt>
<pdfrwt beam="1">  1        2 0.33704908E+00 0.29686622E+04</pdfrwt>
<pdfrwt beam="2">  1       -1 0.15471831E+00 0.29686622E+04</pdfrwt>
<totfact> 0.16355044E+00</totfact>
</mgrwt>
</event>
<event>
12    7  0.1572140E-007  0.1554647E+04  0.7818608E-02  0.8848905E-01
         -1   -1    0    0    0  501 -0.00000000000E+00  0.00000000000E+00  0.29446144425E+03  0.29446144425E+03  0.00000000000E+00 0.  1.
          2   -1    0    0  501    0  0.00000000000E+00 -0.00000000000E+00 -0.20519885387E+04  0.20519885387E+04  0.00000000000E+00 0. -1.
         24    2    1    2    0    0 -0.41038878012E+03 -0.12134229346E+01 -0.13046446015E+03  0.43794659957E+03  0.79723431117E+02 0.  0.
        254    2    1    2    0    0  0.41038878012E+03  0.12134229346E+01 -0.16270626343E+04  0.19085033834E+04  0.90919300770E+03 0.  0.
         23    2    4    4    0    0  0.22997023453E+03  0.42443781689E+03 -0.57150101831E+03  0.75330760704E+03  0.88459978100E+02 0.  0.
         23    2    4    4    0    0  0.18041854558E+03 -0.42322439395E+03 -0.10555616160E+04  0.11551957764E+04  0.92721180502E+02 0.  0.
          4    1    3    3  502    0 -0.36370223716E+03  0.24528342421E+02 -0.11852179927E+03  0.38331237105E+03  0.00000000000E+00 0. -1.
         -3    1    3    3    0  502 -0.46686542959E+02 -0.25741765355E+02 -0.11942660880E+02  0.54634228520E+02  0.00000000000E+00 0.  1.
         13    1    5    5    0    0  0.22108149578E+03  0.42672286788E+03 -0.55297428927E+03  0.73263223949E+03  0.00000000000E+00 0. -1.
        -13    1    5    5    0    0  0.88887387521E+01 -0.22850509883E+01 -0.18526729039E+02  0.20675367554E+02  0.00000000000E+00 0.  1.
          4    1    6    6  503    0  0.13379821883E+03 -0.38725133506E+03 -0.90035568996E+03  0.98919458566E+03  0.00000000000E+00 0. -1.
         -4    1    6    6    0  503  0.46620326755E+02 -0.35973058895E+02 -0.15520592607E+03  0.16600119072E+03  0.00000000000E+00 0.  1.
<mgrwt>
<rscale>  0 0.15546466E+04</rscale>
<asrwt>0</asrwt>
<pdfrwt beam="1">  1        2 0.31569055E+00 0.15546466E+04</pdfrwt>
<pdfrwt beam="2">  1       -1 0.45301760E-01 0.15546466E+04</pdfrwt>
<totfact> 0.33145146E+01</totfact>
</mgrwt>
</event>
<event>
12    7  0.1572140E-007  0.1648131E+04  0.7818608E-02  0.8791513E-01
          2   -1    0    0  501    0  0.00000000000E+00  0.00000000000E+00  0.85392513754E+03  0.85392513754E+03  0.00000000000E+00 0. -1.
         -1   -1    0    0    0  501 -0.00000000000E+00 -0.00000000000E+00 -0.79524989865E+03  0.79524989865E+03  0.00000000000E+00 0.  1.
         24    2    1    2    0    0 -0.50558826215E+03  0.13913342535E+03  0.24001589217E+03  0.58183476933E+03  0.77113354431E+02 0.  0.
        254    2    1    2    0    0  0.50558826215E+03 -0.13913342535E+03 -0.18134065328E+03  0.10673402669E+04  0.91178572694E+03 0.  0.
         23    2    4    4    0    0 -0.19388327366E+03  0.59315527090E+02 -0.25010816943E+03  0.33213995058E+03  0.81570796196E+02 0.  0.
         23    2    4    4    0    0  0.69947153582E+03 -0.19844895244E+03  0.68767516152E+02  0.73520031629E+03  0.84546541290E+02 0.  0.
          2    1    3    3  502    0 -0.46397136120E+03  0.14146315116E+03  0.23748903615E+03  0.54007618855E+03  0.00000000000E+00 0. -1.
         -1    1    3    3    0  502 -0.41616900952E+02 -0.23297258095E+01  0.25268560193E+01  0.41758580778E+02  0.00000000000E+00 0.  1.
         13    1    5    5    0    0 -0.16152464360E+03  0.43390269078E+02 -0.24360472756E+03  0.29549312891E+03  0.00000000000E+00 0. -1.
        -13    1    5    5    0    0 -0.32358630067E+02  0.15925258012E+02 -0.65034418718E+01  0.36646821673E+02  0.00000000000E+00 0.  1.
          3    1    6    6  503    0  0.35904419411E+03 -0.13849232550E+03  0.59565732742E+02  0.38941100917E+03  0.00000000000E+00 0. -1.
         -3    1    6    6    0  503  0.34042734171E+03 -0.59956626938E+02  0.92017834105E+01  0.34578930712E+03  0.00000000000E+00 0.  1.
<mgrwt>
<rscale>  0 0.16481309E+04</rscale>
<asrwt>0</asrwt>
<pdfrwt beam="1">  1        2 0.13137310E+00 0.16481309E+04</pdfrwt>
<pdfrwt beam="2">  1       -1 0.12234614E+00 0.16481309E+04</pdfrwt>
<totfact> 0.20305284E+01</totfact>
</mgrwt>
</event>
<event>
12    7  0.1572140E-007  0.1733048E+04  0.7818608E-02  0.8742737E-01
          2   -1    0    0  501    0  0.00000000000E+00  0.00000000000E+00  0.27561752210E+04  0.27561752210E+04  0.00000000000E+00 0. -1.
         -1   -1    0    0    0  501 -0.00000000000E+00 -0.00000000000E+00 -0.27242961224E+03  0.27242961224E+03  0.00000000000E+00 0.  1.
         24    2    1    2    0    0  0.15579383067E+03 -0.12318255363E+03 -0.13603141779E+03  0.25372493831E+03  0.80163199153E+02 0.  0.
        254    2    1    2    0    0 -0.15579383067E+03  0.12318255363E+03  0.26197770266E+04  0.27748798949E+04  0.89290598794E+03 0.  0.
         23    2    4    4    0    0 -0.19961250269E+03 -0.11790965872E+03  0.24515617093E+04  0.24641924265E+04  0.91332696776E+02 0.  0.
         23    2    4    4    0    0  0.43818672017E+02  0.24109221235E+03  0.16821531724E+03  0.31068746842E+03  0.90469769570E+02 0.  0.
          4    1    3    3  502    0  0.11222258218E+03 -0.79366516992E+02 -0.46827622897E+02  0.14520942889E+03  0.00000000000E+00 0. -1.
         -3    1    3    3    0  502  0.43571248489E+02 -0.43816036640E+02 -0.89203794892E+02  0.10851550942E+03  0.00000000000E+00 0.  1.
         13    1    5    5    0    0 -0.16052401428E+01 -0.25132202367E+02  0.13463160270E+03  0.13696668514E+03  0.00000000000E+00 0. -1.
        -13    1    5    5    0    0 -0.19800726255E+03 -0.92777456351E+02  0.23169301066E+04  0.23272257414E+04  0.00000000000E+00 0.  1.
          1    1    6    6  503    0  0.28561169059E+02  0.19759328329E+03  0.17322184925E+03  0.26431922941E+03  0.00000000000E+00 0. -1.
         -1    1    6    6    0  503  0.15257502957E+02  0.43498929064E+02 -0.50065320100E+01  0.46368239011E+02  0.00000000000E+00 0.  1.
<mgrwt>
<rscale>  0 0.17330479E+04</rscale>
<asrwt>0</asrwt>
<pdfrwt beam="1">  1        2 0.42402694E+00 0.17330479E+04</pdfrwt>
<pdfrwt beam="2">  1       -1 0.41912250E-01 0.17330479E+04</pdfrwt>
<totfact> 0.14885786E+01</totfact>
</mgrwt>
</event>
<event>
12    7  0.1572140E-007  0.2510837E+04  0.7818608E-02  0.8399135E-01
         -1   -1    0    0    0  501 -0.00000000000E+00  0.00000000000E+00  0.20425250474E+04  0.20425250474E+04  0.00000000000E+00 0.  1.
          2   -1    0    0  501    0  0.00000000000E+00 -0.00000000000E+00 -0.77163076359E+03  0.77163076359E+03  0.00000000000E+00 0. -1.
         24    2    1    2    0    0 -0.84968149147E+03 -0.63226476991E+03  0.35251371197E+03  0.11191282108E+04  0.80403102743E+02 0.  0.
        254    2    1    2    0    0  0.84968149147E+03  0.63226476991E+03  0.91838057180E+03  0.16950276001E+04  0.95287896098E+03 0.  0.
         23    2    4    4    0    0 -0.19425247445E+03  0.57241329502E+02  0.20806712248E+03  0.30459529283E+03  0.92063952348E+02 0.  0.
         23    2    4    4    0    0  0.10439339659E+04  0.57502344041E+03  0.71031344932E+03  0.13904323073E+04  0.91141223647E+02 0.  0.
          4    1    3    3  502    0 -0.66174530350E+03 -0.46831780246E+03  0.29883666291E+03  0.86402069530E+03  0.00000000000E+00 0. -1.
         -3    1    3    3    0  502 -0.18793618797E+03 -0.16394696745E+03  0.53677049063E+02  0.25510751553E+03  0.00000000000E+00 0.  1.
         13    1    5    5    0    0 -0.14979425512E+03  0.43220240546E+02  0.20544746897E+03  0.25790496421E+03  0.00000000000E+00 0.  1.
        -13    1    5    5    0    0 -0.44458219333E+02  0.14021088956E+02  0.26196535128E+01  0.46690328617E+02  0.00000000000E+00 0. -1.
          4    1    6    6  503    0  0.59409582221E+03  0.32611580342E+03  0.35112906270E+03  0.76327778815E+03  0.00000000000E+00 0.  1.
         -4    1    6    6    0  503  0.44983814371E+03  0.24890763699E+03  0.35918438662E+03  0.62715451914E+03  0.00000000000E+00 0. -1.
<mgrwt>
<rscale>  0 0.25108366E+04</rscale>
<asrwt>0</asrwt>
<pdfrwt beam="1">  1        2 0.11871243E+00 0.25108366E+04</pdfrwt>
<pdfrwt beam="2">  1       -1 0.31423462E+00 0.25108366E+04</pdfrwt>
<totfact> 0.98023673E-01</totfact>
</mgrwt>
</event>
<event>
12    7  0.1572140E-007  0.1434260E+04  0.7818608E-02  0.8929386E-01
         -3   -1    0    0    0  501 -0.00000000000E+00  0.00000000000E+00  0.81597204402E+03  0.81597204402E+03  0.00000000000E+00 0.  1.
          4   -1    0    0  501    0  0.00000000000E+00 -0.00000000000E+00 -0.63026140326E+03  0.63026140326E+03  0.00000000000E+00 0. -1.
         24    2    1    2    0    0  0.13785283277E+03 -0.34132612254E+03 -0.13748207096E+03  0.39667313406E+03  0.54234030113E+02 0.  0.
        254    2    1    2    0    0 -0.13785283277E+03  0.34132612254E+03  0.32319271171E+03  0.10495603132E+04  0.92823294315E+03 0.  0.
         23    2    4    4    0    0  0.19873739210E+03 -0.12866150495E+03 -0.15225084454E+03  0.29559815547E+03  0.90264145582E+02 0.  0.
         23    2    4    4    0    0 -0.33659022487E+03  0.46998762749E+03  0.47544355626E+03  0.75396215775E+03  0.90724917517E+02 0.  0.
          2    1    3    3  502    0  0.12360850954E+02 -0.70008362621E+02 -0.10399923572E+02  0.71847894078E+02  0.00000000000E+00 0. -1.
         -1    1    3    3    0  502  0.12549198182E+03 -0.27131775992E+03 -0.12708214738E+03  0.32482523998E+03  0.00000000000E+00 0.  1.
         13    1    5    5    0    0  0.10793602679E+02 -0.93725326457E+00 -0.41346138703E+02  0.42742057602E+02  0.00000000000E+00 0.  1.
        -13    1    5    5    0    0  0.18794378942E+03 -0.12772425169E+03 -0.11090470584E+03  0.25285609787E+03  0.00000000000E+00 0. -1.
          4    1    6    6  503    0 -0.29352187231E+03  0.44943637055E+03  0.44590769874E+03  0.69784082461E+03  0.00000000000E+00 0. -1.
         -4    1    6    6    0  503 -0.43068352554E+02  0.20551256937E+02  0.29535857519E+02  0.56121333134E+02  0.00000000000E+00 0.  1.
<mgrwt>
<rscale>  0 0.14342603E+04</rscale>
<asrwt>0</asrwt>
<pdfrwt beam="1">  1        4 0.96963292E-01 0.14342603E+04</pdfrwt>
<pdfrwt beam="2">  1       -3 0.12553416E+00 0.14342603E+04</pdfrwt>
<totfact> 0.99874385E-01</totfact>
</mgrwt>
</event>
<event>
12    7  0.1572140E-007  0.1571248E+04  0.7818608E-02  0.8838408E-01
         -1   -1    0    0    0  501 -0.00000000000E+00  0.00000000000E+00  0.69377765445E+03  0.69377765445E+03  0.00000000000E+00 0.  1.
          2   -1    0    0  501    0  0.00000000000E+00 -0.00000000000E+00 -0.88963003576E+03  0.88963003576E+03  0.00000000000E+00 0. -1.
         24    2    1    2    0    0  0.38970951424E+03 -0.22073303671E+03  0.22511814109E+03  0.50781382749E+03  0.81241165378E+02 0.  0.
        254    2    1    2    0    0 -0.38970951424E+03  0.22073303671E+03 -0.42097052241E+03  0.10755938627E+04  0.88266040911E+03 0.  0.
         23    2    4    4    0    0 -0.50240182249E+03 -0.53784252652E+02  0.45517457716E+02  0.51530134841E+03  0.90351002398E+02 0.  0.
         23    2    4    4    0    0  0.11269230825E+03  0.27451728937E+03 -0.46648798012E+03  0.56029251432E+03  0.90870058331E+02 0.  0.
          4    1    3    3  502    0  0.28837728316E+03 -0.14486320922E+03  0.12371215021E+03  0.34561756746E+03  0.00000000000E+00 0. -1.
         -3    1    3    3    0  502  0.10133223108E+03 -0.75869827498E+02  0.10140599088E+03  0.16219626003E+03  0.00000000000E+00 0.  1.
         13    1    5    5    0    0 -0.33949067734E+03 -0.46573713854E+01  0.58999870161E+02  0.34461078884E+03  0.00000000000E+00 0. -1.
        -13    1    5    5    0    0 -0.16291114515E+03 -0.49126881267E+02 -0.13482412445E+02  0.17069055956E+03  0.00000000000E+00 0.  1.
          3    1    6    6  503    0  0.10633896691E+03  0.24587879854E+03 -0.45651069610E+03  0.52930744856E+03  0.00000000000E+00 0. -1.
         -3    1    6    6    0  503  0.63533413382E+01  0.28638490831E+02 -0.99772840247E+01  0.30985065753E+02  0.00000000000E+00 0.  1.
<mgrwt>
<rscale>  0 0.15712485E+04</rscale>
<asrwt>0</asrwt>
<pdfrwt beam="1">  1        2 0.13686616E+00 0.15712485E+04</pdfrwt>
<pdfrwt beam="2">  1       -1 0.10673502E+00 0.15712485E+04</pdfrwt>
<totfact> 0.26789905E+01</totfact>
</mgrwt>
</event>
<event>
12    7  0.1572140E-007  0.2262896E+04  0.7818608E-02  0.8492696E-01
          2   -1    0    0  501    0  0.00000000000E+00  0.00000000000E+00  0.24777447910E+04  0.24777447910E+04  0.00000000000E+00 0. -1.
         -1   -1    0    0    0  501 -0.00000000000E+00 -0.00000000000E+00 -0.51666936857E+03  0.51666936857E+03  0.00000000000E+00 0.  1.
         24    2    1    2    0    0 -0.68557250651E+03  0.53130444569E+03  0.29299225636E+03  0.91907228796E+03  0.80965007943E+02 0.  0.
        254    2    1    2    0    0  0.68557250651E+03 -0.53130444569E+03  0.16680831661E+04  0.20753418717E+04  0.87877662662E+03 0.  0.
         23    2    4    4    0    0 -0.30283694551E+01 -0.64340639600E+02  0.99454525077E+03  0.10009405042E+04  0.92804893199E+02 0.  0.
         23    2    4    4    0    0  0.68860087596E+03 -0.46696380609E+03  0.67353791535E+03  0.10744013675E+04  0.91970714969E+02 0.  0.
          2    1    3    3  502    0  0.17239957877E+01  0.13672569134E+01 -0.14190956828E+01  0.26182791105E+01  0.00000000000E+00 0. -1.
         -1    1    3    3    0  502 -0.68729650229E+03  0.52993718878E+03  0.29441135205E+03  0.91645400885E+03  0.00000000000E+00 0.  1.
         13    1    5    5    0    0 -0.33849703367E+02  0.36724838447E+01  0.45204167901E+03  0.45332214717E+03  0.00000000000E+00 0. -1.
        -13    1    5    5    0    0  0.30821333912E+02 -0.68013123445E+02  0.54250357176E+03  0.54761835703E+03  0.00000000000E+00 0.  1.
          4    1    6    6  503    0  0.47540257005E+03 -0.36567367595E+03  0.50944527937E+03  0.78693032320E+03  0.00000000000E+00 0. -1.
         -4    1    6    6    0  503  0.21319830591E+03 -0.10129013014E+03  0.16409263598E+03  0.28747104426E+03  0.00000000000E+00 0.  1.
<mgrwt>
<rscale>  0 0.22628962E+04</rscale>
<asrwt>0</asrwt>
<pdfrwt beam="1">  1        2 0.38119150E+00 0.22628962E+04</pdfrwt>
<pdfrwt beam="2">  1       -1 0.79487597E-01 0.22628962E+04</pdfrwt>
<totfact> 0.58677856E+00</totfact>
</mgrwt>
</event>
<event>
12    7  0.1572140E-007  0.1701429E+04  0.7818608E-02  0.8760550E-01
          2   -1    0    0  501    0  0.00000000000E+00  0.00000000000E+00  0.46080766246E+04  0.46080766246E+04  0.00000000000E+00 0. -1.
         -1   -1    0    0    0  501 -0.00000000000E+00 -0.00000000000E+00 -0.15705368869E+03  0.15705368869E+03  0.00000000000E+00 0.  1.
         24    2    1    2    0    0 -0.26053959733E+03 -0.50543143875E+03  0.97975326706E+03  0.11356233088E+04  0.79887508549E+02 0.  0.
        254    2    1    2    0    0  0.26053959733E+03  0.50543143875E+03  0.34712696689E+04  0.36295070045E+04  0.89457596713E+03 0.  0.
         23    2    4    4    0    0  0.26264314334E+03  0.12752990833E+03  0.27967581142E+03  0.41432435982E+03  0.90558364517E+02 0.  0.
         23    2    4    4    0    0 -0.21035460060E+01  0.37790153042E+03  0.31915938574E+04  0.32151826447E+04  0.91181667175E+02 0.  0.
          2    1    3    3  502    0 -0.98099712678E+02 -0.18902917249E+03  0.29281354168E+03  0.36207092105E+03  0.00000000000E+00 0. -1.
         -1    1    3    3    0  502 -0.16243988466E+03 -0.31640226627E+03  0.68693972537E+03  0.77355238770E+03  0.00000000000E+00 0.  1.
         13    1    5    5    0    0  0.20074993308E+03  0.13508745389E+03  0.23747308671E+03  0.33903189045E+03  0.00000000000E+00 0.  1.
        -13    1    5    5    0    0  0.61893210259E+02 -0.75575455553E+01  0.42202724709E+02  0.75292469371E+02  0.00000000000E+00 0. -1.
          3    1    6    6  503    0 -0.24351298740E+02  0.34420341922E+03  0.27058737709E+04  0.27277869865E+04  0.00000000000E+00 0. -1.
         -3    1    6    6    0  503  0.22247752734E+02  0.33698111201E+02  0.48572008654E+03  0.48739565824E+03  0.00000000000E+00 0.  1.
<mgrwt>
<rscale>  0 0.17014293E+04</rscale>
<asrwt>0</asrwt>
<pdfrwt beam="1">  1        2 0.70893476E+00 0.17014293E+04</pdfrwt>
<pdfrwt beam="2">  1       -1 0.24162110E-01 0.17014293E+04</pdfrwt>
<totfact> 0.15873237E+00</totfact>
</mgrwt>
</event>
<event>
12    7  0.1572140E-007  0.2368342E+04  0.7818608E-02  0.8451452E-01
         -1   -1    0    0    0  501 -0.00000000000E+00  0.00000000000E+00  0.51804728814E+03  0.51804728814E+03  0.00000000000E+00 0.  1.
          2   -1    0    0  501    0  0.00000000000E+00 -0.00000000000E+00 -0.27068203401E+04  0.27068203401E+04  0.00000000000E+00 0. -1.
         24    2    1    2    0    0 -0.55133317538E+03  0.68127481330E+03 -0.25354020294E+03  0.91579030961E+03  0.79281871563E+02 0.  0.
        254    2    1    2    0    0  0.55133317538E+03 -0.68127481330E+03 -0.19352328491E+04  0.23090773187E+04  0.90476971763E+03 0.  0.
         23    2    4    4    0    0  0.55877681556E+03 -0.77151086643E+03 -0.19568714545E+04  0.21781796001E+04  0.87521049881E+02 0.  0.
         23    2    4    4    0    0 -0.74436401724E+01  0.90236053135E+02  0.21638605488E+02  0.13089771853E+03  0.92021901762E+02 0.  0.
          2    1    3    3  502    0 -0.33062444591E+03  0.34735904600E+03 -0.12906600198E+03  0.49661742211E+03  0.00000000000E+00 0. -1.
         -1    1    3    3    0  502 -0.22070872948E+03  0.33391576730E+03 -0.12447420096E+03  0.41917288751E+03  0.00000000000E+00 0.  1.
         13    1    5    5    0    0  0.63605127185E+02 -0.59211236578E+02 -0.22468170329E+03  0.24090132946E+03  0.00000000000E+00 0.  1.
        -13    1    5    5    0    0  0.49517168837E+03 -0.71229962986E+03 -0.17321897512E+04  0.19372782707E+04  0.00000000000E+00 0. -1.
          2    1    6    6  503    0  0.40832875416E+02  0.25329565887E+02  0.49802399479E+01  0.48308523189E+02  0.00000000000E+00 0.  1.
         -2    1    6    6    0  503 -0.48276515588E+02  0.64906487248E+02  0.16658365540E+02  0.82589195339E+02  0.00000000000E+00 0. -1.
<mgrwt>
<rscale>  0 0.23683420E+04</rscale>
<asrwt>0</asrwt>
<pdfrwt beam="1">  1        2 0.41643391E+00 0.23683420E+04</pdfrwt>
<pdfrwt beam="2">  1       -1 0.79699581E-01 0.23683420E+04</pdfrwt>
<totfact> 0.42429885E+00</totfact>
</mgrwt>
</event>
<event>
12    7  0.1572140E-007  0.1439764E+04  0.7818608E-02  0.8925528E-01
         -1   -1    0    0    0  501 -0.00000000000E+00  0.00000000000E+00  0.16738325689E+03  0.16738325689E+03  0.00000000000E+00 0.  1.
          2   -1    0    0  501    0  0.00000000000E+00 -0.00000000000E+00 -0.30960700554E+04  0.30960700554E+04  0.00000000000E+00 0. -1.
         24    2    1    2    0    0 -0.24864209710E+03 -0.20473409619E+03 -0.22110359460E+03  0.39843179126E+03  0.78244170071E+02 0.  0.
        254    2    1    2    0    0  0.24864209710E+03  0.20473409619E+03 -0.27075832039E+04  0.28650215210E+04  0.87954679651E+03 0.  0.
         23    2    4    4    0    0 -0.13905288944E+03 -0.24611209421E+03 -0.55580672547E+03  0.63024356966E+03  0.91536725128E+02 0.  0.
         23    2    4    4    0    0  0.38769498654E+03  0.45084619039E+03 -0.21517764784E+04  0.22347779513E+04  0.10257089623E+03 0.  0.
          2    1    3    3  502    0 -0.74246984479E+02 -0.10710845782E+03 -0.70438989627E+02  0.14814346999E+03  0.00000000000E+00 0. -1.
         -1    1    3    3    0  502 -0.17439511263E+03 -0.97625638366E+02 -0.15066460497E+03  0.25028832127E+03  0.00000000000E+00 0.  1.
         13    1    5    5    0    0 -0.14870466827E+03 -0.23730893275E+03 -0.54689844967E+03  0.61443186944E+03  0.00000000000E+00 0. -1.
        -13    1    5    5    0    0  0.96517788306E+01 -0.88031614606E+01 -0.89082757946E+01  0.15811700223E+02  0.00000000000E+00 0.  1.
          4    1    6    6  503    0  0.37579536053E+03  0.44900291692E+03 -0.20402578378E+04  0.21226110848E+04  0.00000000000E+00 0. -1.
         -4    1    6    6    0  503  0.11899626011E+02  0.18432734741E+01 -0.11151864058E+03  0.11216686656E+03  0.00000000000E+00 0.  1.
<mgrwt>
<rscale>  0 0.14397643E+04</rscale>
<asrwt>0</asrwt>
<pdfrwt beam="1">  1        2 0.47631847E+00 0.14397643E+04</pdfrwt>
<pdfrwt beam="2">  1       -1 0.25751270E-01 0.14397643E+04</pdfrwt>
<totfact> 0.22483241E+01</totfact>
</mgrwt>
</event>
<event>
12    7  0.1572140E-007  0.1913212E+04  0.7818608E-02  0.8648308E-01
          2   -1    0    0  501    0  0.00000000000E+00  0.00000000000E+00  0.22786643433E+04  0.22786643433E+04  0.00000000000E+00 0. -1.
         -1   -1    0    0    0  501 -0.00000000000E+00 -0.00000000000E+00 -0.40159258469E+03  0.40159258469E+03  0.00000000000E+00 0.  1.
         24    2    1    2    0    0 -0.69694878052E+03 -0.90117591174E+02  0.10462248464E+04  0.12630388283E+04  0.82594610080E+02 0.  0.
        254    2    1    2    0    0  0.69694878052E+03  0.90117591174E+02  0.83084691226E+03  0.14172180998E+04  0.90793268900E+03 0.  0.
         23    2    4    4    0    0  0.49176787075E+03 -0.36918601220E+03  0.56810128342E+03  0.84226413495E+03  0.92389688219E+02 0.  0.
         23    2    4    4    0    0  0.20518090977E+03  0.45930360337E+03  0.26274562884E+03  0.57495396481E+03  0.92074917180E+02 0.  0.
          4    1    3    3  502    0 -0.54232318213E+03 -0.60327913682E+02  0.74917311479E+03  0.92683021475E+03  0.00000000000E+00 0. -1.
         -3    1    3    3    0  502 -0.15462559839E+03 -0.29789677492E+02  0.29705173159E+03  0.33620861351E+03  0.00000000000E+00 0.  1.
         13    1    5    5    0    0  0.16715869925E+03 -0.15403038594E+03  0.26247457030E+03  0.34721792953E+03  0.00000000000E+00 0. -1.
        -13    1    5    5    0    0  0.32460917150E+03 -0.21515562626E+03  0.30562671312E+03  0.49504620542E+03  0.00000000000E+00 0.  1.
          1    1    6    6  503    0  0.37689447791E+02  0.11758745598E+03  0.24246438353E+02  0.12583796745E+03  0.00000000000E+00 0. -1.
         -1    1    6    6    0  503  0.16749146198E+03  0.34171614739E+03  0.23849919049E+03  0.44911599736E+03  0.00000000000E+00 0.  1.
<mgrwt>
<rscale>  0 0.19132116E+04</rscale>
<asrwt>0</asrwt>
<pdfrwt beam="1">  1        2 0.35056374E+00 0.19132116E+04</pdfrwt>
<pdfrwt beam="2">  1       -1 0.61783476E-01 0.19132116E+04</pdfrwt>
<totfact> 0.13197480E+01</totfact>
</mgrwt>
</event>
<event>
12    7  0.1572140E-007  0.2827514E+04  0.7818608E-02  0.8294777E-01
         -1   -1    0    0    0  501 -0.00000000000E+00  0.00000000000E+00  0.19036487474E+04  0.19036487474E+04  0.00000000000E+00 0.  1.
          2   -1    0    0  501    0  0.00000000000E+00 -0.00000000000E+00 -0.10499355382E+04  0.10499355382E+04  0.00000000000E+00 0. -1.
         24    2    1    2    0    0 -0.79189870937E+03  0.89140794027E+03  0.82807498052E+03  0.14538228421E+04  0.78619342448E+02 0.  0.
        254    2    1    2    0    0  0.79189870937E+03 -0.89140794027E+03  0.25638228661E+02  0.14997614434E+04  0.90934888056E+03 0.  0.
         23    2    4    4    0    0  0.53635813616E+03 -0.98768750448E+03 -0.18533426449E+03  0.11427861239E+04  0.91677034674E+02 0.  0.
         23    2    4    4    0    0  0.25554057321E+03  0.96279564210E+02  0.21097249315E+03  0.35697531952E+03  0.91385156582E+02 0.  0.
          4    1    3    3  502    0 -0.24299265348E+03  0.22100391320E+03  0.23216386304E+03  0.40222906235E+03  0.00000000000E+00 0. -1.
         -3    1    3    3    0  502 -0.54890605589E+03  0.67040402707E+03  0.59591111748E+03  0.10515937798E+04  0.00000000000E+00 0.  1.
         13    1    5    5    0    0  0.60767488548E+02 -0.64305105070E+02 -0.23954816555E+02  0.91660610071E+02  0.00000000000E+00 0. -1.
        -13    1    5    5    0    0  0.47559064762E+03 -0.92338239941E+03 -0.16137944793E+03  0.10511255138E+04  0.00000000000E+00 0.  1.
          2    1    6    6  503    0  0.78874315603E+02  0.53709441811E+02  0.28832712078E+02  0.99685440698E+02  0.00000000000E+00 0. -1.
         -2    1    6    6    0  503  0.17666625760E+03  0.42570122399E+02  0.18213978107E+03  0.25728987882E+03  0.00000000000E+00 0.  1.
<mgrwt>
<rscale>  0 0.28275137E+04</rscale>
<asrwt>0</asrwt>
<pdfrwt beam="1">  1        2 0.16152854E+00 0.28275137E+04</pdfrwt>
<pdfrwt beam="2">  1       -1 0.29286904E+00 0.28275137E+04</pdfrwt>
<totfact> 0.85085079E-01</totfact>
</mgrwt>
</event>
<event>
12    7  0.1572140E-007  0.1238937E+04  0.7818608E-02  0.9079441E-01
          2   -1    0    0  501    0  0.00000000000E+00  0.00000000000E+00  0.35712078172E+04  0.35712078172E+04  0.00000000000E+00 0. -1.
         -1   -1    0    0    0  501 -0.00000000000E+00 -0.00000000000E+00 -0.10745425387E+03  0.10745425387E+03  0.00000000000E+00 0.  1.
         24    2    1    2    0    0  0.18447274148E+03  0.12552375222E+03  0.13677259783E+04  0.13880569663E+04  0.79002437358E+02 0.  0.
        254    2    1    2    0    0 -0.18447274148E+03 -0.12552375222E+03  0.20960275850E+04  0.22906051048E+04  0.89652311977E+03 0.  0.
         23    2    4    4    0    0 -0.36967382629E+03  0.26331234482E+02  0.32378464287E+03  0.50024991325E+03  0.89785349514E+02 0.  0.
         23    2    4    4    0    0  0.18520108481E+03 -0.15185498670E+03  0.17722429422E+04  0.17903551916E+04  0.84659831955E+02 0.  0.
          2    1    3    3  502    0  0.13710273545E+03  0.12616102165E+03  0.99083702347E+03  0.10082022468E+04  0.00000000000E+00 0. -1.
         -1    1    3    3    0  502  0.47370006033E+02 -0.63726942904E+00  0.37688895485E+03  0.37985471943E+03  0.00000000000E+00 0.  1.
         13    1    5    5    0    0 -0.24102518357E+03  0.56515474769E+02  0.18868892423E+03  0.31127262670E+03  0.00000000000E+00 0. -1.
        -13    1    5    5    0    0 -0.12864864272E+03 -0.30184240287E+02  0.13509571865E+03  0.18897728655E+03  0.00000000000E+00 0.  1.
          3    1    6    6  503    0  0.27068097777E+02 -0.71210256177E+02  0.49126409570E+03  0.49713579053E+03  0.00000000000E+00 0. -1.
         -3    1    6    6    0  503  0.15813298703E+03 -0.80644730526E+02  0.12809788465E+04  0.12932194010E+04  0.00000000000E+00 0.  1.
<mgrwt>
<rscale>  0 0.12389374E+04</rscale>
<asrwt>0</asrwt>
<pdfrwt beam="1">  1        2 0.54941650E+00 0.12389374E+04</pdfrwt>
<pdfrwt beam="2">  1       -1 0.16531426E-01 0.12389374E+04</pdfrwt>
<totfact> 0.23360449E+01</totfact>
</mgrwt>
</event>
<event>
12    7  0.1572140E-007  0.1719306E+04  0.7818608E-02  0.8750430E-01
          2   -1    0    0  501    0  0.00000000000E+00  0.00000000000E+00  0.15109577628E+04  0.15109577628E+04  0.00000000000E+00 0. -1.
         -1   -1    0    0    0  501 -0.00000000000E+00 -0.00000000000E+00 -0.48909580742E+03  0.48909580742E+03  0.00000000000E+00 0.  1.
         24    2    1    2    0    0 -0.11652159150E+03  0.47322155711E+03  0.79801481616E+03  0.93933884255E+03  0.89520337967E+02 0.  0.
        254    2    1    2    0    0  0.11652159150E+03 -0.47322155711E+03  0.22384713925E+03  0.10607147277E+04  0.91514603665E+03 0.  0.
         23    2    4    4    0    0 -0.36950498045E+03 -0.28914511296E+03 -0.22338109356E+02  0.47808636944E+03  0.89043576887E+02 0.  0.
         23    2    4    4    0    0  0.48602657195E+03 -0.18407644415E+03  0.24618524860E+03  0.58262835826E+03  0.93502199330E+02 0.  0.
          4    1    3    3  502    0 -0.98375217041E+02  0.46143811790E+03  0.77789545236E+03  0.90979346820E+03  0.00000000000E+00 0. -1.
         -3    1    3    3    0  502 -0.18146374458E+02  0.11783439211E+02  0.20119363798E+02  0.29545374346E+02  0.00000000000E+00 0.  1.
         13    1    5    5    0    0 -0.25527984189E+03 -0.24758086309E+03 -0.81766299357E+01  0.35571187600E+03  0.00000000000E+00 0. -1.
        -13    1    5    5    0    0 -0.11422513856E+03 -0.41564249866E+02 -0.14161479420E+02  0.12237449344E+03  0.00000000000E+00 0.  1.
          2    1    6    6  503    0  0.34561845728E+03 -0.86427885127E+02  0.18098107235E+03  0.39959485218E+03  0.00000000000E+00 0. -1.
         -2    1    6    6    0  503  0.14040811467E+03 -0.97648559025E+02  0.65204176253E+02  0.18303350607E+03  0.00000000000E+00 0.  1.
<mgrwt>
<rscale>  0 0.17193058E+04</rscale>
<asrwt>0</asrwt>
<pdfrwt beam="1">  1        2 0.23245504E+00 0.17193058E+04</pdfrwt>
<pdfrwt beam="2">  1       -1 0.75245510E-01 0.17193058E+04</pdfrwt>
<totfact> 0.24057249E+01</totfact>
</mgrwt>
</event>
<event>
12    7  0.1572140E-007  0.1993738E+04  0.7818608E-02  0.8609554E-01
          2   -1    0    0  501    0  0.00000000000E+00  0.00000000000E+00  0.10784330226E+04  0.10784330226E+04  0.00000000000E+00 0. -1.
         -1   -1    0    0    0  501 -0.00000000000E+00 -0.00000000000E+00 -0.92147382833E+03  0.92147382833E+03  0.00000000000E+00 0.  1.
         24    2    1    2    0    0 -0.27257512109E+03  0.55741530131E+03  0.57396112374E+03  0.84903334451E+03  0.80107638584E+02 0.  0.
        254    2    1    2    0    0  0.27257512109E+03 -0.55741530131E+03 -0.41700192944E+03  0.11508735064E+04  0.87499154504E+03 0.  0.
         23    2    4    4    0    0  0.39057371315E+03  0.66317398409E+02 -0.28197932936E+03  0.49558324972E+03  0.95627362633E+02 0.  0.
         23    2    4    4    0    0 -0.11799859206E+03 -0.62373269971E+03 -0.13502260008E+03  0.65529025672E+03  0.90598397308E+02 0.  0.
          4    1    3    3  502    0 -0.27644907279E+03  0.53017069616E+03  0.55299786514E+03  0.81443949792E+03  0.00000000000E+00 0. -1.
         -3    1    3    3    0  502  0.38739516970E+01  0.27244605143E+02  0.20963258595E+02  0.34593846593E+02  0.00000000000E+00 0.  1.
         13    1    5    5    0    0  0.95572855071E+01 -0.39700102544E+01 -0.34083418938E+02  0.35619968194E+02  0.00000000000E+00 0. -1.
        -13    1    5    5    0    0  0.38101642764E+03  0.70287408663E+02 -0.24789591042E+03  0.45996328153E+03  0.00000000000E+00 0.  1.
          1    1    6    6  503    0 -0.15554905359E+02 -0.63704608228E+02  0.13420428522E+02  0.66935342622E+02  0.00000000000E+00 0. -1.
         -1    1    6    6    0  503 -0.10244368670E+03 -0.56002809149E+03 -0.14844302861E+03  0.58835491409E+03  0.00000000000E+00 0.  1.
<mgrwt>
<rscale>  0 0.19937380E+04</rscale>
<asrwt>0</asrwt>
<pdfrwt beam="1">  1        2 0.16591277E+00 0.19937380E+04</pdfrwt>
<pdfrwt beam="2">  1       -1 0.14176520E+00 0.19937380E+04</pdfrwt>
<totfact> 0.96613958E+00</totfact>
</mgrwt>
</event>
<event>
12    7  0.1886111E-007  0.1563621E+04  0.7818608E-02  0.8843214E-01
          2   -1    0    0  501    0  0.00000000000E+00  0.00000000000E+00  0.16995783815E+04  0.16995783815E+04  0.00000000000E+00 0. -1.
         -1   -1    0    0    0  501 -0.00000000000E+00 -0.00000000000E+00 -0.35963481759E+03  0.35963481759E+03  0.00000000000E+00 0.  1.
         24    2    1    2    0    0 -0.27894286294E+03  0.28597484301E+03  0.89687840171E+03  0.98559948617E+03  0.86166977841E+02 0.  0.
        254    2    1    2    0    0  0.27894286294E+03 -0.28597484301E+03  0.44306516218E+03  0.10736137129E+04  0.89260794024E+03 0.  0.
         23    2    4    4    0    0 -0.14559731017E+03  0.22833631944E+03  0.39621250380E+02  0.28867843867E+03  0.91811469704E+02 0.  0.
         23    2    4    4    0    0  0.42454017310E+03 -0.51431116245E+03  0.40344391180E+03  0.78493527423E+03  0.92768876044E+02 0.  0.
          4    1    3    3  502    0 -0.25693110845E+03  0.28462503640E+03  0.87056524633E+03  0.95126697301E+03  0.00000000000E+00 0. -1.
         -3    1    3    3    0  502 -0.22011754489E+02  0.13498066115E+01  0.26313155382E+02  0.34332513158E+02  0.00000000000E+00 0.  1.
         13    1    5    5    0    0  0.36185208695E+01  0.57592131273E+02 -0.36828602039E+01  0.57823098647E+02  0.00000000000E+00 0. -1.
        -13    1    5    5    0    0 -0.14921583104E+03  0.17074418817E+03  0.43304110584E+02  0.23085534003E+03  0.00000000000E+00 0.  1.
          2    1    6    6  503    0  0.68770843272E+02 -0.14272690586E+03  0.10728778172E+03  0.19134018566E+03  0.00000000000E+00 0. -1.
         -2    1    6    6    0  503  0.35576932983E+03 -0.37158425659E+03  0.29615613008E+03  0.59359508857E+03  0.00000000000E+00 0.  1.
<mgrwt>
<rscale>  0 0.15636209E+04</rscale>
<asrwt>0</asrwt>
<pdfrwt beam="1">  1        2 0.26147359E+00 0.15636209E+04</pdfrwt>
<pdfrwt beam="2">  1       -1 0.55328435E-01 0.15636209E+04</pdfrwt>
<totfact> 0.35498209E+01</totfact>
</mgrwt>
</event>
<event>
12    7  0.1572140E-007  0.1503081E+04  0.7818608E-02  0.8882407E-01
         -1   -1    0    0    0  501 -0.00000000000E+00  0.00000000000E+00  0.12494219317E+04  0.12494219317E+04  0.00000000000E+00 0.  1.
          2   -1    0    0  501    0  0.00000000000E+00 -0.00000000000E+00 -0.45205945495E+03  0.45205945495E+03  0.00000000000E+00 0. -1.
         24    2    1    2    0    0  0.36813831784E+03 -0.68332188092E+02  0.57425009965E+03  0.69011782937E+03  0.79399826630E+02 0.  0.
        254    2    1    2    0    0 -0.36813831784E+03  0.68332188092E+02  0.22311237710E+03  0.10113635573E+04  0.91262369199E+03 0.  0.
         23    2    4    4    0    0 -0.39034676425E+03 -0.78819099938E+02  0.52298385038E+03  0.66371242028E+03  0.91755229856E+02 0.  0.
         23    2    4    4    0    0  0.22208446409E+02  0.14715128803E+03 -0.29987147328E+03  0.34765113700E+03  0.93764043784E+02 0.  0.
          4    1    3    3  502    0  0.97106685037E+01  0.47118228472E+01  0.48164132196E+02  0.49358707312E+02  0.00000000000E+00 0. -1.
         -3    1    3    3    0  502  0.35842764934E+03 -0.73044010939E+02  0.52608596746E+03  0.64075912206E+03  0.00000000000E+00 0.  1.
         13    1    5    5    0    0 -0.38037911411E+03 -0.57340008762E+02  0.49830299074E+03  0.62950934675E+03  0.00000000000E+00 0.  1.
        -13    1    5    5    0    0 -0.99676501384E+01 -0.21479091176E+02  0.24680859635E+02  0.34203073537E+02  0.00000000000E+00 0. -1.
          3    1    6    6  503    0 -0.23586152327E+02  0.19906543571E+01 -0.41654103380E+02  0.47909640103E+02  0.00000000000E+00 0. -1.
         -3    1    6    6    0  503  0.45794598737E+02  0.14516063367E+03 -0.25821736990E+03  0.29974149689E+03  0.00000000000E+00 0.  1.
<mgrwt>
<rscale>  0 0.15030808E+04</rscale>
<asrwt>0</asrwt>
<pdfrwt beam="1">  1        2 0.69547609E-01 0.15030808E+04</pdfrwt>
<pdfrwt beam="2">  1       -1 0.19221876E+00 0.15030808E+04</pdfrwt>
<totfact> 0.13027454E+01</totfact>
</mgrwt>
</event>
<event>
12    7  0.1572140E-007  0.4950632E+04  0.7818608E-02  0.7836168E-01
         -1   -1    0    0    0  501 -0.00000000000E+00  0.00000000000E+00  0.17012569398E+04  0.17012569398E+04  0.00000000000E+00 0.  1.
          2   -1    0    0  501    0  0.00000000000E+00 -0.00000000000E+00 -0.36015657421E+04  0.36015657421E+04  0.00000000000E+00 0. -1.
         24    2    1    2    0    0 -0.20543431252E+03  0.14107994535E+04 -0.29788124066E+04  0.33033539318E+04  0.79154850374E+02 0.  0.
        254    2    1    2    0    0  0.20543431252E+03 -0.14107994535E+04  0.10785036044E+04  0.19994687501E+04  0.89562654220E+03 0.  0.
         23    2    4    4    0    0 -0.24214626705E+03 -0.12534773235E+03  0.34947527470E+03  0.45271248570E+03  0.92025857416E+02 0.  0.
         23    2    4    4    0    0  0.44758057957E+03 -0.12854517211E+04  0.72902832967E+03  0.15467562644E+04  0.90874271728E+02 0.  0.
          4    1    3    3  502    0 -0.12334208940E+03  0.10661662116E+04 -0.22089564350E+04  0.24558933596E+04  0.00000000000E+00 0. -1.
         -3    1    3    3    0  502 -0.82092223114E+02  0.34463324185E+03 -0.76985597160E+03  0.84746057224E+03  0.00000000000E+00 0.  1.
         13    1    5    5    0    0 -0.58048627759E+02 -0.18891376571E+02  0.14660056732E+03  0.15880256179E+03  0.00000000000E+00 0.  1.
        -13    1    5    5    0    0 -0.18409763930E+03 -0.10645635578E+03  0.20287470738E+03  0.29390992391E+03  0.00000000000E+00 0. -1.
          4    1    6    6  503    0  0.25192246248E+03 -0.72998538869E+03  0.46438238773E+03  0.90110742803E+03  0.00000000000E+00 0. -1.
         -4    1    6    6    0  503  0.19565811709E+03 -0.55546633245E+03  0.26464594193E+03  0.64564883632E+03  0.00000000000E+00 0.  1.
<mgrwt>
<rscale>  0 0.49506318E+04</rscale>
<asrwt>0</asrwt>
<pdfrwt beam="1">  1        2 0.55408703E+00 0.49506318E+04</pdfrwt>
<pdfrwt beam="2">  1       -1 0.26173184E+00 0.49506318E+04</pdfrwt>
<totfact> 0.33331308E-02</totfact>
</mgrwt>
</event>
<event>
12    7  0.1572140E-007  0.1533965E+04  0.7818608E-02  0.8862176E-01
          2   -1    0    0  501    0  0.00000000000E+00  0.00000000000E+00  0.16839024724E+04  0.16839024724E+04  0.00000000000E+00 0. -1.
         -1   -1    0    0    0  501 -0.00000000000E+00 -0.00000000000E+00 -0.34934456394E+03  0.34934456394E+03  0.00000000000E+00 0.  1.
         24    2    1    2    0    0  0.24299895661E+03 -0.42037695674E+03  0.56595024673E+03  0.74998072547E+03  0.80038291658E+02 0.  0.
        254    2    1    2    0    0 -0.24299895661E+03  0.42037695674E+03  0.76860766169E+03  0.12832663108E+04  0.90567621600E+03 0.  0.
         23    2    4    4    0    0 -0.47706324124E+03 -0.52050553473E+02  0.32957182974E+03  0.58939583228E+03  0.92039447430E+02 0.  0.
         23    2    4    4    0    0  0.23406428463E+03  0.47242751022E+03  0.43903583195E+03  0.69387047855E+03  0.10358541171E+03 0.  0.
          4    1    3    3  502    0  0.16900806170E+02 -0.49671323747E+02  0.30837676746E+02  0.60859181387E+02  0.00000000000E+00 0. -1.
         -3    1    3    3    0  502  0.22609815044E+03 -0.37070563300E+03  0.53511256998E+03  0.68912154408E+03  0.00000000000E+00 0.  1.
         13    1    5    5    0    0 -0.20032325021E+03 -0.61217920976E+02  0.17032144192E+03  0.26997487291E+03  0.00000000000E+00 0. -1.
        -13    1    5    5    0    0 -0.27673999103E+03  0.91673675033E+01  0.15925038783E+03  0.31942095937E+03  0.00000000000E+00 0.  1.
          4    1    6    6  503    0  0.69626685929E+02  0.21297608250E+03  0.23732911282E+03  0.32639208769E+03  0.00000000000E+00 0. -1.
         -4    1    6    6    0  503  0.16443759871E+03  0.25945142772E+03  0.20170671912E+03  0.36747839086E+03  0.00000000000E+00 0.  1.
<mgrwt>
<rscale>  0 0.15339650E+04</rscale>
<asrwt>0</asrwt>
<pdfrwt beam="1">  1        2 0.25906191E+00 0.15339650E+04</pdfrwt>
<pdfrwt beam="2">  1       -1 0.53745318E-01 0.15339650E+04</pdfrwt>
<totfact> 0.38403531E+01</totfact>
</mgrwt>
</event>
<event>
12    7  0.1572140E-007  0.2839445E+04  0.7818608E-02  0.8291126E-01
         -1   -1    0    0    0  501 -0.00000000000E+00  0.00000000000E+00  0.24589781564E+04  0.24589781564E+04  0.00000000000E+00 0.  1.
          2   -1    0    0  501    0  0.00000000000E+00 -0.00000000000E+00 -0.81969473908E+03  0.81969473908E+03  0.00000000000E+00 0. -1.
         24    2    1    2    0    0  0.32511182008E+03  0.10579229093E+04  0.21192327504E+02  0.11099328037E+04  0.81259684014E+02 0.  0.
        254    2    1    2    0    0 -0.32511182008E+03 -0.10579229093E+04  0.16180910899E+04  0.21687400919E+04  0.92753233543E+03 0.  0.
         23    2    4    4    0    0 -0.58319169373E+03 -0.79872090051E+03  0.82863455850E+03  0.12938410696E+04  0.96549745193E+02 0.  0.
         23    2    4    4    0    0  0.25807987365E+03 -0.25920200884E+03  0.78945653136E+03  0.87489902226E+03  0.91737569590E+02 0.  0.
          4    1    3    3  502    0  0.32116148480E+03  0.10580379946E+04  0.20364532982E+02  0.11058950274E+04  0.00000000000E+00 0. -1.
         -3    1    3    3    0  502  0.39503352849E+01 -0.11508529206E+00  0.82779452184E+00  0.40377762764E+01  0.00000000000E+00 0.  1.
         13    1    5    5    0    0 -0.39770107065E+02 -0.31118701775E+02  0.23088307371E+02  0.55525714344E+02  0.00000000000E+00 0. -1.
        -13    1    5    5    0    0 -0.54342158667E+03 -0.76760219873E+03  0.80554625113E+03  0.12383153553E+04  0.00000000000E+00 0.  1.
          2    1    6    6  503    0  0.16129267904E+03 -0.21703621249E+03  0.59708822627E+03  0.65546502255E+03  0.00000000000E+00 0. -1.
         -2    1    6    6    0  503  0.96787194613E+02 -0.42165796344E+02  0.19236830509E+03  0.21943399970E+03  0.00000000000E+00 0.  1.
<mgrwt>
<rscale>  0 0.28394446E+04</rscale>
<asrwt>0</asrwt>
<pdfrwt beam="1">  1        2 0.12610688E+00 0.28394446E+04</pdfrwt>
<pdfrwt beam="2">  1       -1 0.37830433E+00 0.28394446E+04</pdfrwt>
<totfact> 0.33110832E-01</totfact>
</mgrwt>
</event>
<event>
12    7  0.1572140E-007  0.1428768E+04  0.7818608E-02  0.8933254E-01
          2   -1    0    0  501    0  0.00000000000E+00  0.00000000000E+00  0.11400654040E+04  0.11400654040E+04  0.00000000000E+00 0. -1.
         -3   -1    0    0    0  501 -0.00000000000E+00 -0.00000000000E+00 -0.44764468568E+03  0.44764468568E+03  0.00000000000E+00 0.  1.
         24    2    1    2    0    0 -0.47246350675E+02  0.14553154671E+03 -0.23005061162E+03  0.28851146572E+03  0.83089910368E+02 0.  0.
        254    2    1    2    0    0  0.47246350675E+02 -0.14553154671E+03  0.92247132990E+03  0.12991986239E+04  0.90197120863E+03 0.  0.
         23    2    4    4    0    0 -0.29643028264E+03  0.23850339654E+03  0.39036639040E+03  0.55271071892E+03  0.91369784000E+02 0.  0.
         23    2    4    4    0    0  0.34367663331E+03 -0.38403494325E+03  0.53210493949E+03  0.74648790501E+03  0.92260824664E+02 0.  0.
          2    1    3    3  502    0 -0.59593443225E+02  0.51953957458E+02 -0.11747883866E+03  0.14160462458E+03  0.00000000000E+00 0. -1.
         -1    1    3    3    0  502  0.12347092549E+02  0.93577589257E+02 -0.11257177296E+03  0.14690684114E+03  0.00000000000E+00 0.  1.
         13    1    5    5    0    0 -0.19447788287E+03  0.17950135068E+03  0.21266348233E+03  0.33951161767E+03  0.00000000000E+00 0.  1.
        -13    1    5    5    0    0 -0.10195239977E+03  0.59002045864E+02  0.17770290807E+03  0.21319910125E+03  0.00000000000E+00 0. -1.
          1    1    6    6  503    0  0.79539910676E+02 -0.10703774911E+03  0.19629222149E+03  0.23730637021E+03  0.00000000000E+00 0. -1.
         -1    1    6    6    0  503  0.26413672264E+03 -0.27699719414E+03  0.33581271801E+03  0.50918153480E+03  0.00000000000E+00 0.  1.
<mgrwt>
<rscale>  0 0.14287676E+04</rscale>
<asrwt>0</asrwt>
<pdfrwt beam="1">  1        2 0.17539468E+00 0.14287676E+04</pdfrwt>
<pdfrwt beam="2">  1       -3 0.68868414E-01 0.14287676E+04</pdfrwt>
<totfact> 0.25737110E+01</totfact>
</mgrwt>
</event>
<event>
12    7  0.1572140E-007  0.1209355E+04  0.7818608E-02  0.9104707E-01
         -1   -1    0    0    0  501 -0.00000000000E+00  0.00000000000E+00  0.28099352513E+03  0.28099352513E+03  0.00000000000E+00 0.  1.
          2   -1    0    0  501    0  0.00000000000E+00 -0.00000000000E+00 -0.13012217712E+04  0.13012217712E+04  0.00000000000E+00 0. -1.
         24    2    1    2    0    0 -0.48590249807E+01  0.14181907735E+03 -0.51400179994E+03  0.53918297436E+03  0.79900992917E+02 0.  0.
        254    2    1    2    0    0  0.48590249807E+01 -0.14181907735E+03 -0.50622644614E+03  0.10430323220E+04  0.90084124524E+03 0.  0.
         23    2    4    4    0    0  0.27987117640E+03 -0.37803291524E+03 -0.97958788584E+02  0.48916035568E+03  0.91897600238E+02 0.  0.
         23    2    4    4    0    0 -0.27501215142E+03  0.23621383789E+03 -0.40826765756E+03  0.55387196631E+03  0.93075314761E+02 0.  0.
          2    1    3    3  502    0 -0.96813780052E+01  0.15161731272E+03 -0.47855213988E+03  0.50208932391E+03  0.00000000000E+00 0. -1.
         -1    1    3    3    0  502  0.48223530245E+01 -0.97982353762E+01 -0.35449660061E+02  0.37093650449E+02  0.00000000000E+00 0.  1.
         13    1    5    5    0    0  0.28423822915E+03 -0.36396429564E+03 -0.10378206190E+03  0.47332028880E+03  0.00000000000E+00 0.  1.
        -13    1    5    5    0    0 -0.43670527481E+01 -0.14068619592E+02  0.58232733139E+01  0.15840066888E+02  0.00000000000E+00 0. -1.
          1    1    6    6  503    0 -0.12050286978E+02  0.40060346427E+02 -0.22602051036E+02  0.47548853647E+02  0.00000000000E+00 0. -1.
         -1    1    6    6    0  503 -0.26296186444E+03  0.19615349146E+03 -0.38566560652E+03  0.50632311267E+03  0.00000000000E+00 0.  1.
<mgrwt>
<rscale>  0 0.12093550E+04</rscale>
<asrwt>0</asrwt>
<pdfrwt beam="1">  1        2 0.20018797E+00 0.12093550E+04</pdfrwt>
<pdfrwt beam="2">  1       -1 0.43229772E-01 0.12093550E+04</pdfrwt>
<totfact> 0.97857245E+01</totfact>
</mgrwt>
</event>
<event>
12    7  0.1572140E-007  0.1634255E+04  0.7818608E-02  0.8799776E-01
          2   -1    0    0  501    0  0.00000000000E+00  0.00000000000E+00  0.26801241049E+04  0.26801241049E+04  0.00000000000E+00 0. -1.
         -1   -1    0    0    0  501 -0.00000000000E+00 -0.00000000000E+00 -0.24912922047E+03  0.24912922047E+03  0.00000000000E+00 0.  1.
         24    2    1    2    0    0 -0.36990810268E+03 -0.29486767770E+03  0.29146516456E+03  0.56209205377E+03  0.84950473651E+02 0.  0.
        254    2    1    2    0    0  0.36990810268E+03  0.29486767770E+03  0.21395297198E+04  0.23671612716E+04  0.89559260370E+03 0.  0.
         23    2    4    4    0    0  0.37037678110E+03 -0.24610634818E+03  0.11415533534E+04  0.12283064108E+04  0.88573616333E+02 0.  0.
         23    2    4    4    0    0 -0.46867842279E+00  0.54097402588E+03  0.99797636643E+03  0.11388548608E+04  0.91544795880E+02 0.  0.
          4    1    3    3  502    0 -0.55572822972E+01 -0.26958243594E+02  0.24988843517E+02  0.37176236826E+02  0.00000000000E+00 0. -1.
         -3    1    3    3    0  502 -0.36435082038E+03 -0.26790943411E+03  0.26647632105E+03  0.52491581694E+03  0.00000000000E+00 0.  1.
         13    1    5    5    0    0  0.28698250274E+03 -0.23156088544E+03  0.92436579739E+03  0.99520426442E+03  0.00000000000E+00 0.  1.
        -13    1    5    5    0    0  0.83394278365E+02 -0.14545462741E+02  0.21718755601E+03  0.23310214636E+03  0.00000000000E+00 0. -1.
          1    1    6    6  503    0 -0.39164587195E+02  0.26632386586E+03  0.54151945046E+03  0.60473596027E+03  0.00000000000E+00 0. -1.
         -1    1    6    6    0  503  0.38695908772E+02  0.27465016002E+03  0.45645691597E+03  0.53411890052E+03  0.00000000000E+00 0.  1.
<mgrwt>
<rscale>  0 0.16342549E+04</rscale>
<asrwt>0</asrwt>
<pdfrwt beam="1">  1        2 0.41232676E+00 0.16342549E+04</pdfrwt>
<pdfrwt beam="2">  1       -1 0.38327574E-01 0.16342549E+04</pdfrwt>
<totfact> 0.19630312E+01</totfact>
</mgrwt>
</event>
<event>
12    7  0.1572140E-007  0.1395822E+04  0.7818608E-02  0.8956848E-01
         -1   -1    0    0    0  501 -0.00000000000E+00  0.00000000000E+00  0.60882436516E+03  0.60882436516E+03  0.00000000000E+00 0.  1.
          2   -1    0    0  501    0  0.00000000000E+00 -0.00000000000E+00 -0.80003315942E+03  0.80003315942E+03  0.00000000000E+00 0. -1.
         24    2    1    2    0    0 -0.16856997590E+03  0.33768542776E+03 -0.20872298042E+03  0.43884038986E+03  0.81045174569E+02 0.  0.
        254    2    1    2    0    0  0.16856997590E+03 -0.33768542776E+03  0.17514186158E+02  0.97001713472E+03  0.89340875866E+03 0.  0.
         23    2    4    4    0    0 -0.13612077643E+03  0.24946842263E+03  0.44532520564E+02  0.30176169930E+03  0.91179044248E+02 0.  0.
         23    2    4    4    0    0  0.30469075233E+03 -0.58715385039E+03 -0.27018334407E+02  0.66825543542E+03  0.90825315833E+02 0.  0.
          2    1    3    3  502    0 -0.16283988867E+03  0.33812193248E+03 -0.19281288764E+03  0.42192425885E+03  0.00000000000E+00 0. -1.
         -1    1    3    3    0  502 -0.57300872265E+01 -0.43650472311E+00 -0.15910092778E+02  0.16916131005E+02  0.00000000000E+00 0.  1.
         13    1    5    5    0    0 -0.24316739341E+02  0.28467360973E+02 -0.24384156004E+02  0.44679766303E+02  0.00000000000E+00 0.  1.
        -13    1    5    5    0    0 -0.11180403709E+03  0.22100106166E+03  0.68916676568E+02  0.25708193300E+03  0.00000000000E+00 0. -1.
          2    1    6    6  503    0  0.17904217886E+03 -0.34617978832E+03 -0.60605452778E+02  0.39442308320E+03  0.00000000000E+00 0. -1.
         -2    1    6    6    0  503  0.12564857348E+03 -0.24097406207E+03  0.33587118371E+02  0.27383235223E+03  0.00000000000E+00 0.  1.
<mgrwt>
<rscale>  0 0.13958219E+04</rscale>
<asrwt>0</asrwt>
<pdfrwt beam="1">  1        2 0.12308202E+00 0.13958219E+04</pdfrwt>
<pdfrwt beam="2">  1       -1 0.93665288E-01 0.13958219E+04</pdfrwt>
<totfact> 0.42336953E+01</totfact>
</mgrwt>
</event>
<event>
12    7  0.1572140E-007  0.2549163E+04  0.7818608E-02  0.8385677E-01
          2   -1    0    0  501    0  0.00000000000E+00  0.00000000000E+00  0.29666998974E+04  0.29666998974E+04  0.00000000000E+00 0. -1.
         -1   -1    0    0    0  501 -0.00000000000E+00 -0.00000000000E+00 -0.54759771836E+03  0.54759771836E+03  0.00000000000E+00 0.  1.
         24    2    1    2    0    0  0.75165556954E+02  0.10518141114E+04  0.56628675276E+03  0.11996611513E+04  0.80891320419E+02 0.  0.
        254    2    1    2    0    0 -0.75165556954E+02 -0.10518141114E+04  0.18528154262E+04  0.23146364644E+04  0.90147333447E+03 0.  0.
         23    2    4    4    0    0 -0.84738636617E+02 -0.51538683687E+03  0.18653179779E+03  0.56191671836E+03  0.90288751409E+02 0.  0.
         23    2    4    4    0    0  0.95730796634E+01 -0.53642727452E+03  0.16662836284E+04  0.17527197460E+04  0.87632830737E+02 0.  0.
          4    1    3    3  502    0  0.31779719752E+02  0.80268505640E+03  0.40394900291E+03  0.89915963394E+03  0.00000000000E+00 0. -1.
         -3    1    3    3    0  502  0.43385837202E+02  0.24912905500E+03  0.16233774986E+03  0.30050151737E+03  0.00000000000E+00 0.  1.
         13    1    5    5    0    0 -0.13032853110E+02 -0.86447927084E+02  0.69139010471E+02  0.11145986778E+03  0.00000000000E+00 0.  1.
        -13    1    5    5    0    0 -0.71705783507E+02 -0.42893890979E+03  0.11739278732E+03  0.45045685058E+03  0.00000000000E+00 0. -1.
          2    1    6    6  503    0 -0.20212263034E+02 -0.45459307648E+03  0.14433067870E+04  0.15133399758E+04  0.00000000000E+00 0.  1.
         -2    1    6    6    0  503  0.29785342697E+02 -0.81834198049E+02  0.22297684142E+03  0.23937977028E+03  0.00000000000E+00 0. -1.
<mgrwt>
<rscale>  0 0.25491631E+04</rscale>
<asrwt>0</asrwt>
<pdfrwt beam="1">  1        2 0.45641536E+00 0.25491631E+04</pdfrwt>
<pdfrwt beam="2">  1       -1 0.84245805E-01 0.25491631E+04</pdfrwt>
<totfact> 0.25754109E+00</totfact>
</mgrwt>
</event>
<event>
12    7  0.1572140E-007  0.1560559E+04  0.7818608E-02  0.8845151E-01
          2   -1    0    0  501    0  0.00000000000E+00  0.00000000000E+00  0.22222096522E+04  0.22222096522E+04  0.00000000000E+00 0. -1.
         -3   -1    0    0    0  501 -0.00000000000E+00 -0.00000000000E+00 -0.27397790613E+03  0.27397790613E+03  0.00000000000E+00 0.  1.
         24    2    1    2    0    0 -0.10321056345E+02 -0.21616545895E+02  0.14845625773E+04  0.14868758217E+04  0.79371682175E+02 0.  0.
        254    2    1    2    0    0  0.10321056345E+02  0.21616545895E+02  0.46366916878E+03  0.10093117366E+04  0.89618484946E+03 0.  0.
         23    2    4    4    0    0 -0.50389146857E+02  0.26580354298E+03 -0.16069026746E+03  0.33020440768E+03  0.10011493002E+03 0.  0.
         23    2    4    4    0    0  0.60710203202E+02 -0.24418699708E+03  0.62435943623E+03  0.67910732897E+03  0.89716444022E+02 0.  0.
          2    1    3    3  502    0 -0.26428042076E+02 -0.41319639338E+02  0.12448997264E+04  0.12458655958E+04  0.00000000000E+00 0. -1.
         -1    1    3    3    0  502  0.16106985731E+02  0.19703093443E+02  0.23966285096E+03  0.24101022595E+03  0.00000000000E+00 0.  1.
         13    1    5    5    0    0 -0.22295505078E+02  0.61827323140E+01  0.83088444202E+00  0.23151805426E+02  0.00000000000E+00 0. -1.
        -13    1    5    5    0    0 -0.28093641780E+02  0.25962081066E+03 -0.16152115190E+03  0.30705260225E+03  0.00000000000E+00 0.  1.
          4    1    6    6  503    0  0.60238800113E+02 -0.11059394754E+03  0.22306118251E+03  0.25615625195E+03  0.00000000000E+00 0. -1.
         -4    1    6    6    0  503  0.47140308991E+00 -0.13359304954E+03  0.40129825373E+03  0.42295107702E+03  0.00000000000E+00 0.  1.
<mgrwt>
<rscale>  0 0.15605593E+04</rscale>
<asrwt>0</asrwt>
<pdfrwt beam="1">  1        2 0.34187840E+00 0.15605593E+04</pdfrwt>
<pdfrwt beam="2">  1       -3 0.42150449E-01 0.15605593E+04</pdfrwt>
<totfact> 0.17442400E+01</totfact>
</mgrwt>
</event>
<event>
12    7  0.1572140E-007  0.2607806E+04  0.7818608E-02  0.8365554E-01
         -1   -1    0    0    0  501 -0.00000000000E+00  0.00000000000E+00  0.12492352596E+04  0.12492352596E+04  0.00000000000E+00 0.  1.
          2   -1    0    0  501    0  0.00000000000E+00 -0.00000000000E+00 -0.13609634455E+04  0.13609634455E+04  0.00000000000E+00 0. -1.
         24    2    1    2    0    0 -0.23977050993E+02 -0.10836935357E+04  0.32952850784E+03  0.11357933246E+04  0.80441658086E+02 0.  0.
        254    2    1    2    0    0  0.23977050993E+02  0.10836935357E+04 -0.44125669374E+03  0.14744053805E+04  0.89677041542E+03 0.  0.
         23    2    4    4    0    0  0.10232139596E+03  0.54795622973E+03 -0.67285206972E+03  0.87824797022E+03  0.88678586551E+02 0.  0.
         23    2    4    4    0    0 -0.78344344966E+02  0.53573730602E+03  0.23159537598E+03  0.59615741031E+03  0.92816713149E+02 0.  0.
          4    1    3    3  502    0 -0.20526716379E+02 -0.78543900554E+03  0.27587202429E+03  0.83273113986E+03  0.00000000000E+00 0. -1.
         -3    1    3    3    0  502 -0.34503346131E+01 -0.29825453020E+03  0.53656483551E+02  0.30306218475E+03  0.00000000000E+00 0.  1.
         13    1    5    5    0    0  0.12506508360E+02  0.79836130368E+01 -0.33105038648E+02  0.36278015551E+02  0.00000000000E+00 0. -1.
        -13    1    5    5    0    0  0.89814887599E+02  0.53997261669E+03 -0.63974703107E+03  0.84196995467E+03  0.00000000000E+00 0.  1.
          3    1    6    6  503    0  0.18723712779E+02  0.11549920085E+03  0.34752570909E+02  0.12205893660E+03  0.00000000000E+00 0. -1.
         -3    1    6    6    0  503 -0.97068057745E+02  0.42023810517E+03  0.19684280507E+03  0.47409847371E+03  0.00000000000E+00 0.  1.
<mgrwt>
<rscale>  0 0.26078064E+04</rscale>
<asrwt>0</asrwt>
<pdfrwt beam="1">  1        2 0.20937899E+00 0.26078064E+04</pdfrwt>
<pdfrwt beam="2">  1       -1 0.19219004E+00 0.26078064E+04</pdfrwt>
<totfact> 0.26174700E+00</totfact>
</mgrwt>
</event>
<event>
12    7  0.1572140E-007  0.1474572E+04  0.7818608E-02  0.8901541E-01
         -1   -1    0    0    0  501 -0.00000000000E+00  0.00000000000E+00  0.20506916621E+03  0.20506916621E+03  0.00000000000E+00 0.  1.
          2   -1    0    0  501    0  0.00000000000E+00 -0.00000000000E+00 -0.26507660878E+04  0.26507660878E+04  0.00000000000E+00 0. -1.
         24    2    1    2    0    0 -0.73652425170E+02  0.12473386548E+03  0.69872322620E+02  0.17955779714E+03  0.79847630611E+02 0.  0.
        254    2    1    2    0    0  0.73652425170E+02 -0.12473386548E+03 -0.25155692442E+04  0.26762774568E+04  0.90188091607E+03 0.  0.
         23    2    4    4    0    0  0.33134623487E+03  0.18365926047E+03 -0.59052307793E+03  0.70766614247E+03  0.92481416029E+02 0.  0.
         23    2    4    4    0    0 -0.25769380970E+03 -0.30839312595E+03 -0.19250461662E+04  0.19686113144E+04  0.90085210653E+02 0.  0.
          4    1    3    3  502    0 -0.26416355997E+02  0.32144257308E+02 -0.16155187005E+02  0.44632580132E+02  0.00000000000E+00 0. -1.
         -3    1    3    3    0  502 -0.47236069173E+02  0.92589608171E+02  0.86027509624E+02  0.13492521701E+03  0.00000000000E+00 0.  1.
         13    1    5    5    0    0  0.32389691464E+03  0.19354188165E+03 -0.57605779545E+03  0.68862925799E+03  0.00000000000E+00 0. -1.
        -13    1    5    5    0    0  0.74493202323E+01 -0.98826211821E+01 -0.14465282482E+02  0.19036884478E+02  0.00000000000E+00 0.  1.
          3    1    6    6  503    0 -0.24237969294E+03 -0.24601239064E+03 -0.16913266191E+04  0.17262258672E+04  0.00000000000E+00 0. -1.
         -3    1    6    6    0  503 -0.15314116764E+02 -0.62380735304E+02 -0.23371954710E+03  0.24238544719E+03  0.00000000000E+00 0.  1.
<mgrwt>
<rscale>  0 0.14745717E+04</rscale>
<asrwt>0</asrwt>
<pdfrwt beam="1">  1        2 0.40781018E+00 0.14745717E+04</pdfrwt>
<pdfrwt beam="2">  1       -1 0.31549102E-01 0.14745717E+04</pdfrwt>
<totfact> 0.29360602E+01</totfact>
</mgrwt>
</event>
<event>
12    7  0.1572140E-007  0.3078672E+04  0.7818608E-02  0.8221616E-01
          2   -1    0    0  501    0  0.00000000000E+00  0.00000000000E+00  0.13599305423E+04  0.13599305423E+04  0.00000000000E+00 0. -1.
         -1   -1    0    0    0  501 -0.00000000000E+00 -0.00000000000E+00 -0.17424092582E+04  0.17424092582E+04  0.00000000000E+00 0.  1.
         24    2    1    2    0    0  0.65567417500E+03 -0.10008377827E+04 -0.93222251432E+03  0.15188898460E+04  0.80016603567E+02 0.  0.
        254    2    1    2    0    0 -0.65567417500E+03  0.10008377827E+04  0.54974379845E+03  0.15834499546E+04  0.87949452732E+03 0.  0.
         23    2    4    4    0    0 -0.71397196034E+03  0.10852969172E+04  0.60473756758E+03  0.14357795262E+04  0.90166310743E+02 0.  0.
         23    2    4    4    0    0  0.58297785341E+02 -0.84459134434E+02 -0.54993769132E+02  0.14767042839E+03  0.90830961750E+02 0.  0.
          4    1    3    3  502    0  0.38702210367E+03 -0.57645054161E+03 -0.58962518772E+03  0.91090021278E+03  0.00000000000E+00 0. -1.
         -3    1    3    3    0  502  0.26865207133E+03 -0.42438724113E+03 -0.34259732660E+03  0.60798963318E+03  0.00000000000E+00 0.  1.
         13    1    5    5    0    0 -0.54382082588E+03  0.76286898353E+03  0.45748870936E+03  0.10425958449E+04  0.00000000000E+00 0.  1.
        -13    1    5    5    0    0 -0.17015113446E+03  0.32242793364E+03  0.14724885822E+03  0.39318368125E+03  0.00000000000E+00 0. -1.
          3    1    6    6  503    0  0.92384687632E+01  0.39342605475E+01  0.19607988799E+02  0.22029546883E+02  0.00000000000E+00 0. -1.
         -3    1    6    6    0  503  0.49059316577E+02 -0.88393394982E+02 -0.74601757931E+02  0.12564088151E+03  0.00000000000E+00 0.  1.
<mgrwt>
<rscale>  0 0.30786722E+04</rscale>
<asrwt>0</asrwt>
<pdfrwt beam="1">  1        2 0.20922008E+00 0.30786722E+04</pdfrwt>
<pdfrwt beam="2">  1       -1 0.26806296E+00 0.30786722E+04</pdfrwt>
<totfact> 0.78607735E-01</totfact>
</mgrwt>
</event>
<event>
12    7  0.1572140E-007  0.4073973E+04  0.7818608E-02  0.7989788E-01
          2   -1    0    0  501    0  0.00000000000E+00  0.00000000000E+00  0.17288708271E+04  0.17288708271E+04  0.00000000000E+00 0. -1.
         -1   -1    0    0    0  501 -0.00000000000E+00 -0.00000000000E+00 -0.24000133447E+04  0.24000133447E+04  0.00000000000E+00 0.  1.
         24    2    1    2    0    0 -0.57513739820E+02  0.12705685046E+04  0.11627304012E+04  0.17251047210E+04  0.79950968274E+02 0.  0.
        254    2    1    2    0    0  0.57513739820E+02 -0.12705685046E+04 -0.18338729188E+04  0.24037794509E+04  0.89298018514E+03 0.  0.
         23    2    4    4    0    0 -0.34259305919E+03 -0.28643452458E+03 -0.34011476845E+03  0.56839912160E+03  0.89357510258E+02 0.  0.
         23    2    4    4    0    0  0.40010679901E+03 -0.98413398000E+03 -0.14937581503E+04  0.18353803293E+04  0.93286655884E+02 0.  0.
          2    1    3    3  502    0 -0.13929904697E+02  0.96535083977E+03  0.85804850594E+03  0.12916437298E+04  0.00000000000E+00 0. -1.
         -1    1    3    3    0  502 -0.43583835123E+02  0.30521766482E+03  0.30468189527E+03  0.43346099122E+03  0.00000000000E+00 0.  1.
         13    1    5    5    0    0 -0.21974442802E+03 -0.16700552450E+03 -0.15659964833E+03  0.31733564047E+03  0.00000000000E+00 0. -1.
        -13    1    5    5    0    0 -0.12284863118E+03 -0.11942900008E+03 -0.18351512013E+03  0.25106348113E+03  0.00000000000E+00 0.  1.
          1    1    6    6  503    0  0.27176336534E+03 -0.59073822849E+03 -0.85219565909E+03  0.10719442256E+04  0.00000000000E+00 0. -1.
         -1    1    6    6    0  503  0.12834343367E+03 -0.39339575151E+03 -0.64156249123E+03  0.76343610370E+03  0.00000000000E+00 0.  1.
<mgrwt>
<rscale>  0 0.40739725E+04</rscale>
<asrwt>0</asrwt>
<pdfrwt beam="1">  1        2 0.26598013E+00 0.40739725E+04</pdfrwt>
<pdfrwt beam="2">  1       -1 0.36923282E+00 0.40739725E+04</pdfrwt>
<totfact> 0.97514194E-02</totfact>
</mgrwt>
</event>
<event>
12    7  0.1572140E-007  0.1766249E+04  0.7818608E-02  0.8724457E-01
         -1   -1    0    0    0  501 -0.00000000000E+00  0.00000000000E+00  0.91448019658E+03  0.91448019658E+03  0.00000000000E+00 0.  1.
          2   -1    0    0  501    0  0.00000000000E+00 -0.00000000000E+00 -0.85284402774E+03  0.85284402774E+03  0.00000000000E+00 0. -1.
         24    2    1    2    0    0  0.15754610566E+03  0.28093469691E+03  0.58768315512E+03  0.67474383519E+03  0.78502694107E+02 0.  0.
        254    2    1    2    0    0 -0.15754610566E+03 -0.28093469691E+03 -0.52604698628E+03  0.10925803891E+04  0.90181006626E+03 0.  0.
         23    2    4    4    0    0 -0.43832717593E+03 -0.11642563991E+03  0.45142465731E+01  0.46281990359E+03  0.92175061421E+02 0.  0.
         23    2    4    4    0    0  0.28078107027E+03 -0.16450905699E+03 -0.53056123286E+03  0.62976048554E+03  0.95926055278E+02 0.  0.
          2    1    3    3  502    0  0.84972727895E+02  0.76636196793E+02  0.18974083576E+03  0.22157404158E+03  0.00000000000E+00 0. -1.
         -1    1    3    3    0  502  0.72573377763E+02  0.20429850011E+03  0.39794231936E+03  0.45316979361E+03  0.00000000000E+00 0.  1.
         13    1    5    5    0    0 -0.54778293646E+02 -0.99279035282E+00  0.28119717774E+02  0.61582185859E+02  0.00000000000E+00 0. -1.
        -13    1    5    5    0    0 -0.38354888228E+03 -0.11543284956E+03 -0.23605471200E+02  0.40123771773E+03  0.00000000000E+00 0.  1.
          4    1    6    6  503    0  0.28075451201E+03 -0.13821740413E+03 -0.48668198709E+03  0.57860738275E+03  0.00000000000E+00 0.  1.
         -4    1    6    6    0  503  0.26558259939E-01 -0.26291652861E+02 -0.43879245772E+02  0.51153102790E+02  0.00000000000E+00 0. -1.
<mgrwt>
<rscale>  0 0.17662491E+04</rscale>
<asrwt>0</asrwt>
<pdfrwt beam="1">  1        2 0.13120677E+00 0.17662491E+04</pdfrwt>
<pdfrwt beam="2">  1       -1 0.14068926E+00 0.17662491E+04</pdfrwt>
<totfact> 0.14126173E+01</totfact>
</mgrwt>
</event>
<event>
12    7  0.1572140E-007  0.2894557E+04  0.7818608E-02  0.8274499E-01
          2   -1    0    0  501    0  0.00000000000E+00  0.00000000000E+00  0.16540467649E+04  0.16540467649E+04  0.00000000000E+00 0. -1.
         -1   -1    0    0    0  501 -0.00000000000E+00 -0.00000000000E+00 -0.12663582284E+04  0.12663582284E+04  0.00000000000E+00 0.  1.
         24    2    1    2    0    0 -0.17065751627E+03 -0.16424356508E+03  0.14675569191E+04  0.14886857049E+04  0.79761398319E+02 0.  0.
        254    2    1    2    0    0  0.17065751627E+03  0.16424356508E+03 -0.10798683826E+04  0.14317192884E+04  0.90972768480E+03 0.  0.
         23    2    4    4    0    0  0.19495014288E+03 -0.10882119778E+03 -0.11152908367E+04  0.11410591743E+04  0.91075668963E+02 0.  0.
         23    2    4    4    0    0 -0.24292626609E+02  0.27306476286E+03  0.35422454088E+02  0.29066011413E+03  0.89855746996E+02 0.  0.
          4    1    3    3  502    0 -0.16760852834E+03 -0.14193318560E+03  0.14077555988E+04  0.14247854133E+04  0.00000000000E+00 0. -1.
         -3    1    3    3    0  502 -0.30489879322E+01 -0.22310379487E+02  0.59801320324E+02  0.63900291649E+02  0.00000000000E+00 0.  1.
         13    1    5    5    0    0  0.17205156165E+03 -0.52167660412E+02 -0.85374665496E+03  0.87247152132E+03  0.00000000000E+00 0. -1.
        -13    1    5    5    0    0  0.22898581234E+02 -0.56653537366E+02 -0.26154418174E+03  0.26858765295E+03  0.00000000000E+00 0.  1.
          1    1    6    6  503    0 -0.12541462057E+02  0.13174768821E+03  0.62392668214E+02  0.14631331678E+03  0.00000000000E+00 0. -1.
         -1    1    6    6    0  503 -0.11751164552E+02  0.14131707465E+03 -0.26970214125E+02  0.14434679735E+03  0.00000000000E+00 0.  1.
<mgrwt>
<rscale>  0 0.28945575E+04</rscale>
<asrwt>0</asrwt>
<pdfrwt beam="1">  1        2 0.25446873E+00 0.28945575E+04</pdfrwt>
<pdfrwt beam="2">  1       -1 0.19482434E+00 0.28945575E+04</pdfrwt>
<totfact> 0.16716176E+00</totfact>
</mgrwt>
</event>
<event>
12    7  0.1572140E-007  0.1545074E+04  0.7818608E-02  0.8855020E-01
          2   -1    0    0  501    0  0.00000000000E+00  0.00000000000E+00  0.62772269444E+03  0.62772269444E+03  0.00000000000E+00 0. -1.
         -1   -1    0    0    0  501 -0.00000000000E+00 -0.00000000000E+00 -0.95075973994E+03  0.95075973994E+03  0.00000000000E+00 0.  1.
         24    2    1    2    0    0 -0.13042438219E+03  0.41390402076E+02  0.39387517739E+03  0.42457260744E+03  0.80003492271E+02 0.  0.
        254    2    1    2    0    0  0.13042438219E+03 -0.41390402076E+02 -0.71691222289E+03  0.11539098269E+04  0.89376790530E+03 0.  0.
         23    2    4    4    0    0 -0.14866875762E+03  0.34919985261E+03 -0.45611812637E+03  0.60044088027E+03  0.91883452984E+02 0.  0.
         23    2    4    4    0    0  0.27909313981E+03 -0.39059025468E+03 -0.26079409651E+03  0.55346894668E+03  0.88659948204E+02 0.  0.
          2    1    3    3  502    0 -0.13663223157E+03  0.49753979072E+02  0.34144608979E+03  0.37111892618E+03  0.00000000000E+00 0. -1.
         -1    1    3    3    0  502  0.62078493805E+01 -0.83635769960E+01  0.52429087598E+02  0.53453681262E+02  0.00000000000E+00 0.  1.
         13    1    5    5    0    0 -0.12966027333E+03  0.19717188781E+03 -0.25233704994E+03  0.34548882268E+03  0.00000000000E+00 0. -1.
        -13    1    5    5    0    0 -0.19008484293E+02  0.15202796479E+03 -0.20378107643E+03  0.25495205759E+03  0.00000000000E+00 0.  1.
          3    1    6    6  503    0  0.26618183954E+03 -0.33245082692E+03 -0.20836134895E+03  0.47412105602E+03  0.00000000000E+00 0. -1.
         -3    1    6    6    0  503  0.12911300271E+02 -0.58139427759E+02 -0.52432747562E+02  0.79347890658E+02  0.00000000000E+00 0.  1.
<mgrwt>
<rscale>  0 0.15450741E+04</rscale>
<asrwt>0</asrwt>
<pdfrwt beam="1">  1        2 0.96572722E-01 0.15450741E+04</pdfrwt>
<pdfrwt beam="2">  1       -1 0.14627073E+00 0.15450741E+04</pdfrwt>
<totfact> 0.19278403E+01</totfact>
</mgrwt>
</event>
<event>
12    7  0.1572140E-007  0.2865591E+04  0.7818608E-02  0.8283189E-01
          2   -1    0    0  501    0  0.00000000000E+00  0.00000000000E+00  0.24042059771E+04  0.24042059771E+04  0.00000000000E+00 0. -1.
         -1   -1    0    0    0  501 -0.00000000000E+00 -0.00000000000E+00 -0.85387996606E+03  0.85387996606E+03  0.00000000000E+00 0.  1.
         24    2    1    2    0    0 -0.98577269104E+03 -0.59304894077E+03  0.13533251936E+04  0.17780143907E+04  0.79945288656E+02 0.  0.
        254    2    1    2    0    0  0.98577269104E+03  0.59304894077E+03  0.19700081743E+03  0.14800715525E+04  0.91013605242E+03 0.  0.
         23    2    4    4    0    0  0.24405061368E+03  0.32219486067E+03  0.48076334083E+03  0.63581184732E+03  0.98757708716E+02 0.  0.
         23    2    4    4    0    0  0.74172207736E+03  0.27085408010E+03 -0.28376252340E+03  0.84425970518E+03  0.93486402015E+02 0.  0.
          4    1    3    3  502    0 -0.31232193928E+03 -0.21602369411E+03  0.40247234460E+03  0.55334909265E+03  0.00000000000E+00 0. -1.
         -3    1    3    3    0  502 -0.67345075177E+03 -0.37702524666E+03  0.95085284903E+03  0.12246652980E+04  0.00000000000E+00 0.  1.
         13    1    5    5    0    0  0.22307026665E+03  0.31774705319E+03  0.47525338303E+03  0.61366873128E+03  0.00000000000E+00 0. -1.
        -13    1    5    5    0    0  0.20980347038E+02  0.44478074838E+01  0.55099578028E+01  0.22143116047E+02  0.00000000000E+00 0.  1.
          1    1    6    6  503    0  0.72302832399E+02  0.36255609316E+02 -0.17040282723E+01  0.80901622309E+02  0.00000000000E+00 0.  1.
         -1    1    6    6    0  503  0.66941924496E+03  0.23459847078E+03 -0.28205849513E+03  0.76335808287E+03  0.00000000000E+00 0. -1.
<mgrwt>
<rscale>  0 0.28655913E+04</rscale>
<asrwt>0</asrwt>
<pdfrwt beam="1">  1        2 0.36987784E+00 0.28655913E+04</pdfrwt>
<pdfrwt beam="2">  1       -1 0.13136615E+00 0.28655913E+04</pdfrwt>
<totfact> 0.19208947E+00</totfact>
</mgrwt>
</event>
<event>
12    7  0.1586728E-007  0.2329044E+04  0.7818608E-02  0.8466557E-01
         -1   -1    0    0    0  501 -0.00000000000E+00  0.00000000000E+00  0.73291081861E+03  0.73291081861E+03  0.00000000000E+00 0.  1.
          2   -1    0    0  501    0  0.00000000000E+00 -0.00000000000E+00 -0.18503083460E+04  0.18503083460E+04  0.00000000000E+00 0. -1.
         24    2    1    2    0    0 -0.41628344372E+03  0.23297147936E+02  0.51807678445E+03  0.66986534582E+03  0.80506920938E+02 0.  0.
        254    2    1    2    0    0  0.41628344372E+03 -0.23297147936E+02 -0.16354743118E+04  0.19133538188E+04  0.90128350069E+03 0.  0.
         23    2    4    4    0    0  0.14629114939E+03 -0.12134871658E+03 -0.15950753961E+04  0.16092170576E+04  0.95850966893E+02 0.  0.
         23    2    4    4    0    0  0.26999229434E+03  0.98051568648E+02 -0.40398915746E+02  0.30413676120E+03  0.91417438183E+02 0.  0.
          4    1    3    3  502    0 -0.97040131781E+02  0.35605282469E+02  0.15420273331E+03  0.18564214575E+03  0.00000000000E+00 0. -1.
         -3    1    3    3    0  502 -0.31924331194E+03 -0.12308134534E+02  0.36387405114E+03  0.48422320007E+03  0.00000000000E+00 0.  1.
         13    1    5    5    0    0  0.95922741698E+02 -0.12884581683E+03 -0.12825868284E+04  0.12926064325E+04  0.00000000000E+00 0.  1.
        -13    1    5    5    0    0  0.50368407688E+02  0.74971002516E+01 -0.31248856772E+03  0.31661062515E+03  0.00000000000E+00 0. -1.
          2    1    6    6  503    0  0.11680937375E+03  0.88828756183E+02 -0.33490283154E+02  0.15052101776E+03  0.00000000000E+00 0.  1.
         -2    1    6    6    0  503  0.15318292059E+03  0.92228124650E+01 -0.69086325925E+01  0.15361574344E+03  0.00000000000E+00 0. -1.
<mgrwt>
<rscale>  0 0.23290436E+04</rscale>
<asrwt>0</asrwt>
<pdfrwt beam="1">  1        2 0.28466282E+00 0.23290436E+04</pdfrwt>
<pdfrwt beam="2">  1       -1 0.11275551E+00 0.23290436E+04</pdfrwt>
<totfact> 0.59944577E+00</totfact>
</mgrwt>
</event>
<event>
12    7  0.1572140E-007  0.2001627E+04  0.7818608E-02  0.8605860E-01
          2   -1    0    0  501    0  0.00000000000E+00  0.00000000000E+00  0.11899372100E+04  0.11899372100E+04  0.00000000000E+00 0. -1.
         -1   -1    0    0    0  501 -0.00000000000E+00 -0.00000000000E+00 -0.84174844009E+03  0.84174844009E+03  0.00000000000E+00 0.  1.
         24    2    1    2    0    0 -0.15439730756E+03  0.78408185396E+03  0.10818131836E+03  0.81019777251E+03  0.78066322122E+02 0.  0.
        254    2    1    2    0    0  0.15439730756E+03 -0.78408185396E+03  0.24000745150E+03  0.12214878775E+04  0.89207969144E+03 0.  0.
         23    2    4    4    0    0 -0.93619452381E+02 -0.51267321460E+03  0.52612346241E+03  0.74639362119E+03  0.93269036748E+02 0.  0.
         23    2    4    4    0    0  0.24801675994E+03 -0.27140863936E+03 -0.28611601091E+03  0.47509425634E+03  0.93151586050E+02 0.  0.
          2    1    3    3  502    0 -0.91589573315E+02  0.62413046539E+03  0.76110288627E+02  0.63538985182E+03  0.00000000000E+00 0. -1.
         -1    1    3    3    0  502 -0.62807734248E+02  0.15995138857E+03  0.32071029729E+02  0.17480792069E+03  0.00000000000E+00 0.  1.
         13    1    5    5    0    0 -0.22240002942E+02 -0.10475428672E+03  0.59492871437E+02  0.12250502059E+03  0.00000000000E+00 0.  1.
        -13    1    5    5    0    0 -0.71379449440E+02 -0.40791892788E+03  0.46663059097E+03  0.62388860060E+03  0.00000000000E+00 0. -1.
          1    1    6    6  503    0  0.23989673401E+03 -0.21656584386E+03 -0.25371204425E+03  0.41087833858E+03  0.00000000000E+00 0. -1.
         -1    1    6    6    0  503  0.81200259300E+01 -0.54842795499E+02 -0.32403966652E+02  0.64215917762E+02  0.00000000000E+00 0.  1.
<mgrwt>
<rscale>  0 0.20016271E+04</rscale>
<asrwt>0</asrwt>
<pdfrwt beam="1">  1        2 0.18306726E+00 0.20016271E+04</pdfrwt>
<pdfrwt beam="2">  1       -1 0.12949976E+00 0.20016271E+04</pdfrwt>
<totfact> 0.10418238E+01</totfact>
</mgrwt>
</event>
<event>
12    7  0.1572140E-007  0.2874530E+04  0.7818608E-02  0.8280496E-01
          2   -1    0    0  501    0  0.00000000000E+00  0.00000000000E+00  0.66787643849E+03  0.66787643849E+03  0.00000000000E+00 0. -1.
         -1   -1    0    0    0  501 -0.00000000000E+00 -0.00000000000E+00 -0.30929830310E+04  0.30929830310E+04  0.00000000000E+00 0.  1.
         24    2    1    2    0    0 -0.11755699223E+04 -0.14584822032E+03 -0.41055121145E+03  0.12562551014E+04  0.79926447033E+02 0.  0.
        254    2    1    2    0    0  0.11755699223E+04  0.14584822032E+03 -0.20145553811E+04  0.25046043681E+04  0.90076262772E+03 0.  0.
         23    2    4    4    0    0 -0.34735175886E+02  0.55114416463E+02 -0.71596780552E+03  0.72478676973E+03  0.91988214980E+02 0.  0.
         23    2    4    4    0    0  0.12103050982E+04  0.90733803852E+02 -0.12985875755E+04  0.17798175983E+04  0.91377995311E+02 0.  0.
          4    1    3    3  502    0 -0.79660073544E+03 -0.12735168621E+03 -0.25341283122E+03  0.84558219394E+03  0.00000000000E+00 0. -1.
         -3    1    3    3    0  502 -0.37896918690E+03 -0.18496534107E+02 -0.15713838023E+03  0.41067290748E+03  0.00000000000E+00 0.  1.
         13    1    5    5    0    0 -0.55553161277E+02  0.52206193367E+02 -0.34954678986E+03  0.35776332771E+03  0.00000000000E+00 0.  1.
        -13    1    5    5    0    0  0.20817985390E+02  0.29082230966E+01 -0.36642101566E+03  0.36702344202E+03  0.00000000000E+00 0. -1.
          2    1    6    6  503    0  0.59880539823E+03  0.54009256714E+02 -0.70871885935E+03  0.92939083617E+03  0.00000000000E+00 0.  1.
         -2    1    6    6    0  503  0.61149970000E+03  0.36724547139E+02 -0.58986871619E+03  0.85042676217E+03  0.00000000000E+00 0. -1.
<mgrwt>
<rscale>  0 0.28745299E+04</rscale>
<asrwt>0</asrwt>
<pdfrwt beam="1">  1        2 0.10275022E+00 0.28745299E+04</pdfrwt>
<pdfrwt beam="2">  1       -1 0.47584354E+00 0.28745299E+04</pdfrwt>
<totfact> 0.92170476E-02</totfact>
</mgrwt>
</event>
<event>
12    7  0.1572140E-007  0.1776666E+04  0.7818608E-02  0.8718808E-01
          2   -1    0    0  501    0  0.00000000000E+00  0.00000000000E+00  0.67095704541E+03  0.67095704541E+03  0.00000000000E+00 0. -1.
         -1   -1    0    0    0  501 -0.00000000000E+00 -0.00000000000E+00 -0.11761339484E+04  0.11761339484E+04  0.00000000000E+00 0.  1.
         24    2    1    2    0    0  0.34227402498E+03 -0.21413418537E+03  0.34476684540E+03  0.53826790357E+03  0.88674690899E+02 0.  0.
        254    2    1    2    0    0 -0.34227402498E+03  0.21413418537E+03 -0.84994374834E+03  0.13088230902E+04  0.90972993167E+03 0.  0.
         23    2    4    4    0    0  0.21411559628E+02 -0.31227036842E+03 -0.16502591652E+03  0.36684071931E+03  0.96784928251E+02 0.  0.
         23    2    4    4    0    0 -0.36368558461E+03  0.52640455379E+03 -0.68491783182E+03  0.94198237089E+03  0.94071207200E+02 0.  0.
          4    1    3    3  502    0  0.31096549624E+03 -0.19360431178E+03  0.34130176222E+03  0.50066861524E+03  0.00000000000E+00 0. -1.
         -3    1    3    3    0  502  0.31308528740E+02 -0.20529873590E+02  0.34650831803E+01  0.37599288330E+02  0.00000000000E+00 0.  1.
         13    1    5    5    0    0 -0.27038295388E+02 -0.29102683234E+02 -0.12903986251E+02  0.41767792018E+02  0.00000000000E+00 0.  1.
        -13    1    5    5    0    0  0.48449855015E+02 -0.28316768519E+03 -0.15212193027E+03  0.32507292729E+03  0.00000000000E+00 0. -1.
          2    1    6    6  503    0 -0.30664024340E+03  0.49104465689E+03 -0.60022268171E+03  0.83391867803E+03  0.00000000000E+00 0. -1.
         -2    1    6    6    0  503 -0.57045341210E+02  0.35359896902E+02 -0.84695150110E+02  0.10806369286E+03  0.00000000000E+00 0.  1.
<mgrwt>
<rscale>  0 0.17766658E+04</rscale>
<asrwt>0</asrwt>
<pdfrwt beam="1">  1        2 0.10322416E+00 0.17766658E+04</pdfrwt>
<pdfrwt beam="2">  1       -1 0.18094368E+00 0.17766658E+04</pdfrwt>
<totfact> 0.95637635E+00</totfact>
</mgrwt>
</event>
<event>
12    7  0.1572140E-007  0.1633242E+04  0.7818608E-02  0.8800382E-01
          2   -1    0    0  501    0  0.00000000000E+00  0.00000000000E+00  0.11174894290E+04  0.11174894290E+04  0.00000000000E+00 0. -1.
         -1   -1    0    0    0  501 -0.00000000000E+00 -0.00000000000E+00 -0.59675754754E+03  0.59675754754E+03  0.00000000000E+00 0.  1.
         24    2    1    2    0    0 -0.12690682583E+03  0.37668236972E+03 -0.24254996930E+03  0.47237712333E+03  0.79465142913E+02 0.  0.
        254    2    1    2    0    0  0.12690682583E+03 -0.37668236972E+03  0.76328185077E+03  0.12418698532E+04  0.89534719443E+03 0.  0.
         23    2    4    4    0    0  0.64742814714E+02  0.18054857529E+02 -0.17986180070E+03  0.21330284836E+03  0.92899019536E+02 0.  0.
         23    2    4    4    0    0  0.62164011118E+02 -0.39473722725E+03  0.94314365147E+03  0.10285670049E+04  0.93532311780E+02 0.  0.
          4    1    3    3  502    0 -0.26823006819E+02  0.46175100602E+02 -0.58628144185E+01  0.53721375665E+02  0.00000000000E+00 0. -1.
         -3    1    3    3    0  502 -0.10008381901E+03  0.33050726912E+03 -0.23668715488E+03  0.41865574766E+03  0.00000000000E+00 0.  1.
         13    1    5    5    0    0  0.60224507977E+02  0.37534013345E+02 -0.17980988942E+03  0.19330646615E+03  0.00000000000E+00 0.  1.
        -13    1    5    5    0    0  0.45183067374E+01 -0.19479155816E+02 -0.51911278866E-01  0.19996382219E+02  0.00000000000E+00 0. -1.
          1    1    6    6  503    0  0.71857231374E+02 -0.30996630076E+03  0.65736118730E+03  0.73031931364E+03  0.00000000000E+00 0.  1.
         -1    1    6    6    0  503 -0.96932202555E+01 -0.84770926482E+02  0.28578246418E+03  0.29824769124E+03  0.00000000000E+00 0. -1.
<mgrwt>
<rscale>  0 0.16332425E+04</rscale>
<asrwt>0</asrwt>
<pdfrwt beam="1">  1        2 0.17192145E+00 0.16332425E+04</pdfrwt>
<pdfrwt beam="2">  1       -1 0.91808853E-01 0.16332425E+04</pdfrwt>
<totfact> 0.26800908E+01</totfact>
</mgrwt>
</event>
<event>
12    7  0.1572140E-007  0.1492624E+04  0.7818608E-02  0.8889373E-01
          2   -1    0    0  501    0  0.00000000000E+00  0.00000000000E+00  0.20430479278E+04  0.20430479278E+04  0.00000000000E+00 0. -1.
         -1   -1    0    0    0  501 -0.00000000000E+00 -0.00000000000E+00 -0.27262272383E+03  0.27262272383E+03  0.00000000000E+00 0.  1.
         24    2    1    2    0    0  0.25692037762E+03 -0.14744464409E+03  0.11696766244E+04  0.12094960414E+04  0.83601822982E+02 0.  0.
        254    2    1    2    0    0 -0.25692037762E+03  0.14744464409E+03  0.60074857950E+03  0.11061746102E+04  0.88032687625E+03 0.  0.
         23    2    4    4    0    0 -0.34315613125E+03 -0.23330372724E+03  0.54311185634E+02  0.42881072333E+03  0.93499582904E+02 0.  0.
         23    2    4    4    0    0  0.86235753632E+02  0.38074837133E+03  0.54643739387E+03  0.67736388691E+03  0.88442537243E+02 0.  0.
          2    1    3    3  502    0  0.11038338868E+03 -0.64735922705E+02  0.67391452263E+03  0.68595627849E+03  0.00000000000E+00 0. -1.
         -1    1    3    3    0  502  0.14653698894E+03 -0.82708721388E+02  0.49576210180E+03  0.52353976287E+03  0.00000000000E+00 0.  1.
         13    1    5    5    0    0 -0.12029412025E+03 -0.83699649499E+02 -0.25559959555E+02  0.14876027099E+03  0.00000000000E+00 0.  1.
        -13    1    5    5    0    0 -0.22286201100E+03 -0.14960407774E+03  0.79871145190E+02  0.28005045234E+03  0.00000000000E+00 0. -1.
          3    1    6    6  503    0  0.73689919126E+02  0.15382037803E+03  0.19770938447E+03  0.26111283689E+03  0.00000000000E+00 0. -1.
         -3    1    6    6    0  503  0.12545834505E+02  0.22692799330E+03  0.34872800940E+03  0.41625105002E+03  0.00000000000E+00 0.  1.
<mgrwt>
<rscale>  0 0.14926236E+04</rscale>
<asrwt>0</asrwt>
<pdfrwt beam="1">  1        2 0.31431506E+00 0.14926236E+04</pdfrwt>
<pdfrwt beam="2">  1       -1 0.41941959E-01 0.14926236E+04</pdfrwt>
<totfact> 0.38881020E+01</totfact>
</mgrwt>
</event>
<event>
12    7  0.1572140E-007  0.1355248E+04  0.7818608E-02  0.8986865E-01
         -1   -1    0    0    0  501 -0.00000000000E+00  0.00000000000E+00  0.37349317294E+03  0.37349317294E+03  0.00000000000E+00 0.  1.
          2   -1    0    0  501    0  0.00000000000E+00 -0.00000000000E+00 -0.12294051967E+04  0.12294051967E+04  0.00000000000E+00 0. -1.
         24    2    1    2    0    0  0.16853423686E+03  0.25857905704E+02 -0.62661634664E+03  0.65425184470E+03  0.79529932315E+02 0.  0.
        254    2    1    2    0    0 -0.16853423686E+03 -0.25857905704E+02 -0.22929567710E+03  0.94864652492E+03  0.90458902349E+03 0.  0.
         23    2    4    4    0    0  0.25183533756E+03  0.19556124207E+03 -0.31460662766E+03  0.45701690342E+03  0.90674600610E+02 0.  0.
         23    2    4    4    0    0 -0.42036957442E+03 -0.22141914778E+03  0.85310950565E+02  0.49162962150E+03  0.93191782639E+02 0.  0.
          2    1    3    3  502    0  0.17033549530E+03  0.14690177030E+02 -0.52802959226E+03  0.55501822723E+03  0.00000000000E+00 0. -1.
         -1    1    3    3    0  502 -0.18012584432E+01  0.11167728675E+02 -0.98586754379E+02  0.99233617462E+02  0.00000000000E+00 0.  1.
         13    1    5    5    0    0  0.27919887647E+02  0.15294090873E+02 -0.13639966142E+01  0.31863612925E+02  0.00000000000E+00 0. -1.
        -13    1    5    5    0    0  0.22391544991E+03  0.18026715120E+03 -0.31324263105E+03  0.42515329049E+03  0.00000000000E+00 0.  1.
          3    1    6    6  503    0 -0.12117012532E+03 -0.90146595505E+02 -0.97838787479E+01  0.15134177294E+03  0.00000000000E+00 0. -1.
         -3    1    6    6    0  503 -0.29919944909E+03 -0.13127255227E+03  0.95094829313E+02  0.34028784856E+03  0.00000000000E+00 0.  1.
<mgrwt>
<rscale>  0 0.13552482E+04</rscale>
<asrwt>0</asrwt>
<pdfrwt beam="1">  1        2 0.18913926E+00 0.13552482E+04</pdfrwt>
<pdfrwt beam="2">  1       -1 0.57460488E-01 0.13552482E+04</pdfrwt>
<totfact> 0.62112537E+01</totfact>
</mgrwt>
</event>
<event>
12    7  0.1572140E-007  0.1339842E+04  0.7818608E-02  0.8998554E-01
         -3   -1    0    0    0  501 -0.00000000000E+00  0.00000000000E+00  0.29521674012E+03  0.29521674012E+03  0.00000000000E+00 0.  1.
          2   -1    0    0  501    0  0.00000000000E+00 -0.00000000000E+00 -0.15202186744E+04  0.15202186744E+04  0.00000000000E+00 0. -1.
         24    2    1    2    0    0 -0.23527152073E+03  0.52096468416E+02 -0.70633405479E+03  0.75040257263E+03  0.78291082318E+02 0.  0.
        254    2    1    2    0    0  0.23527152073E+03 -0.52096468416E+02 -0.51866787952E+03  0.10650328419E+04  0.89844969511E+03 0.  0.
         23    2    4    4    0    0 -0.19246023540E+03  0.17886522993E+03  0.78552062038E+02  0.28945148378E+03  0.92617613455E+02 0.  0.
         23    2    4    4    0    0  0.42773175613E+03 -0.23096169834E+03 -0.59721994156E+03  0.77558135815E+03  0.92504179432E+02 0.  0.
          4    1    3    3  502    0 -0.20572114044E+03  0.44757117703E+02 -0.67342900318E+03  0.70557140641E+03  0.00000000000E+00 0. -1.
         -3    1    3    3    0  502 -0.29550380285E+02  0.73393507130E+01 -0.32905051603E+02  0.44831166222E+02  0.00000000000E+00 0.  1.
         13    1    5    5    0    0 -0.13469735932E+03  0.10014826207E+03  0.91157402708E+02  0.19100451584E+03  0.00000000000E+00 0.  1.
        -13    1    5    5    0    0 -0.57762876079E+02  0.78716967860E+02 -0.12605340670E+02  0.98446967934E+02  0.00000000000E+00 0. -1.
          2    1    6    6  503    0  0.27403384455E+03 -0.12903950906E+03 -0.30366621588E+03  0.42890431744E+03  0.00000000000E+00 0. -1.
         -2    1    6    6    0  503  0.15369791158E+03 -0.10192218929E+03 -0.29355372568E+03  0.34667704071E+03  0.00000000000E+00 0.  1.
<mgrwt>
<rscale>  0 0.13398418E+04</rscale>
<asrwt>0</asrwt>
<pdfrwt beam="1">  1        2 0.23387979E+00 0.13398418E+04</pdfrwt>
<pdfrwt beam="2">  1       -3 0.45417961E-01 0.13398418E+04</pdfrwt>
<totfact> 0.37370712E+01</totfact>
</mgrwt>
</event>
<event>
12    7  0.1572140E-007  0.3013301E+04  0.7818608E-02  0.8239943E-01
         -1   -1    0    0    0  501 -0.00000000000E+00  0.00000000000E+00  0.84000144264E+03  0.84000144264E+03  0.00000000000E+00 0.  1.
          2   -1    0    0  501    0  0.00000000000E+00 -0.00000000000E+00 -0.27023713809E+04  0.27023713809E+04  0.00000000000E+00 0. -1.
         24    2    1    2    0    0 -0.93654014213E+03  0.82371973932E+03 -0.15744241144E+04  0.20113046603E+04  0.10446768794E+03 0.  0.
        254    2    1    2    0    0  0.93654014213E+03 -0.82371973932E+03 -0.28794582386E+03  0.15310681632E+04  0.84002099747E+03 0.  0.
         23    2    4    4    0    0  0.69199618973E+03 -0.96351695615E+02  0.59508261656E+01  0.70464258165E+03  0.91342102516E+02 0.  0.
         23    2    4    4    0    0  0.24454395240E+03 -0.72736804371E+03 -0.29389665003E+03  0.82642558158E+03  0.87965819079E+02 0.  0.
          2    1    3    3  502    0 -0.74833840311E+03  0.68756303196E+03 -0.12241237651E+04  0.15909846891E+04  0.00000000000E+00 0. -1.
         -1    1    3    3    0  502 -0.18820173902E+03  0.13615670736E+03 -0.35030034928E+03  0.42031997125E+03  0.00000000000E+00 0.  1.
         13    1    5    5    0    0  0.49518228441E+03 -0.50474566203E+02 -0.32969250104E+02  0.49883879969E+03  0.00000000000E+00 0. -1.
        -13    1    5    5    0    0  0.19681390532E+03 -0.45877129413E+02  0.38920076270E+02  0.20580378196E+03  0.00000000000E+00 0.  1.
          3    1    6    6  503    0  0.21676347340E+03 -0.63572164646E+03 -0.28701279021E+03  0.73041409962E+03  0.00000000000E+00 0. -1.
         -3    1    6    6    0  503  0.27780479003E+02 -0.91646397242E+02 -0.68838598163E+01  0.96011481954E+02  0.00000000000E+00 0.  1.
<mgrwt>
<rscale>  0 0.30133011E+04</rscale>
<asrwt>0</asrwt>
<pdfrwt beam="1">  1        2 0.41574944E+00 0.30133011E+04</pdfrwt>
<pdfrwt beam="2">  1       -1 0.12923099E+00 0.30133011E+04</pdfrwt>
<totfact> 0.13235536E+00</totfact>
</mgrwt>
</event>
<event>
12    7  0.1572140E-007  0.1728765E+04  0.7818608E-02  0.8745126E-01
         -1   -1    0    0    0  501 -0.00000000000E+00  0.00000000000E+00  0.39674229387E+03  0.39674229387E+03  0.00000000000E+00 0.  1.
          2   -1    0    0  501    0  0.00000000000E+00 -0.00000000000E+00 -0.18832311078E+04  0.18832311078E+04  0.00000000000E+00 0. -1.
         24    2    1    2    0    0  0.27162873949E+03  0.56156067697E+03 -0.47052353458E+03  0.78533139052E+03  0.78869704599E+02 0.  0.
        254    2    1    2    0    0 -0.27162873949E+03 -0.56156067697E+03 -0.10159652794E+04  0.14946420112E+04  0.90146365798E+03 0.  0.
         23    2    4    4    0    0 -0.50827961006E+03 -0.53090085256E+03 -0.43364522011E+03  0.85854571341E+03  0.94067464247E+02 0.  0.
         23    2    4    4    0    0  0.23665087057E+03 -0.30659824408E+02 -0.58232005927E+03  0.63609629778E+03  0.92618514624E+02 0.  0.
          2    1    3    3  502    0  0.12396419375E+03  0.18187800215E+03 -0.14144078569E+03  0.26163376092E+03  0.00000000000E+00 0. -1.
         -1    1    3    3    0  502  0.14766454574E+03  0.37968267482E+03 -0.32908274888E+03  0.52369762959E+03  0.00000000000E+00 0.  1.
         13    1    5    5    0    0 -0.28659970872E+03 -0.30186491591E+03 -0.19113744949E+03  0.45803421825E+03  0.00000000000E+00 0.  1.
        -13    1    5    5    0    0 -0.22167990133E+03 -0.22903593666E+03 -0.24250777062E+03  0.40051149515E+03  0.00000000000E+00 0. -1.
          1    1    6    6  503    0 -0.68916029202E+01 -0.90190046834E+01 -0.30095595004E+02  0.32164910616E+02  0.00000000000E+00 0. -1.
         -1    1    6    6    0  503  0.24354247349E+03 -0.21640819725E+02 -0.55222446427E+03  0.60393138717E+03  0.00000000000E+00 0.  1.
<mgrwt>
<rscale>  0 0.17287654E+04</rscale>
<asrwt>0</asrwt>
<pdfrwt beam="1">  1        2 0.28972786E+00 0.17287654E+04</pdfrwt>
<pdfrwt beam="2">  1       -1 0.61037276E-01 0.17287654E+04</pdfrwt>
<totfact> 0.22837165E+01</totfact>
</mgrwt>
</event>
<event>
12    7  0.1572140E-007  0.2741325E+04  0.7818608E-02  0.8321720E-01
          2   -1    0    0  501    0  0.00000000000E+00  0.00000000000E+00  0.35074893205E+04  0.35074893205E+04  0.00000000000E+00 0. -1.
         -1   -1    0    0    0  501 -0.00000000000E+00 -0.00000000000E+00 -0.53562962801E+03  0.53562962801E+03  0.00000000000E+00 0.  1.
         24    2    1    2    0    0  0.88428947250E+03  0.75372413992E+03  0.18654114365E+04  0.21990627128E+04  0.77775556350E+02 0.  0.
        254    2    1    2    0    0 -0.88428947250E+03 -0.75372413992E+03  0.11064482560E+04  0.18440562357E+04  0.90898168678E+03 0.  0.
         23    2    4    4    0    0  0.12610836981E+03 -0.29620459662E+03  0.11721466929E+03  0.35503915660E+03  0.93129157796E+02 0.  0.
         23    2    4    4    0    0 -0.10103978423E+04 -0.45751954330E+03  0.98923358668E+03  0.14890170791E+04  0.91437631647E+02 0.  0.
          2    1    3    3  502    0  0.48533920681E+03  0.39444856427E+03  0.93567421065E+03  0.11254465976E+04  0.00000000000E+00 0. -1.
         -1    1    3    3    0  502  0.39895026569E+03  0.35927557566E+03  0.92973722586E+03  0.10736161152E+04  0.00000000000E+00 0.  1.
         13    1    5    5    0    0  0.10161102155E+03 -0.28916519235E+03  0.94068085796E+02  0.32060897201E+03  0.00000000000E+00 0.  1.
        -13    1    5    5    0    0  0.24497348259E+02 -0.70394042729E+01  0.23146583489E+02  0.34430184598E+02  0.00000000000E+00 0. -1.
          3    1    6    6  503    0 -0.97304175856E+03 -0.43870236963E+03  0.92523206414E+03  0.14125595228E+04  0.00000000000E+00 0. -1.
         -3    1    6    6    0  503 -0.37356083756E+02 -0.18817173672E+02  0.64001522545E+02  0.76457556243E+02  0.00000000000E+00 0.  1.
<mgrwt>
<rscale>  0 0.27413246E+04</rscale>
<asrwt>0</asrwt>
<pdfrwt beam="1">  1        2 0.53961373E+00 0.27413246E+04</pdfrwt>
<pdfrwt beam="2">  1       -1 0.82404560E-01 0.27413246E+04</pdfrwt>
<totfact> 0.11687024E+00</totfact>
</mgrwt>
</event>
<event>
12    7  0.1572140E-007  0.1381482E+04  0.7818608E-02  0.8967333E-01
         -1   -1    0    0    0  501 -0.00000000000E+00  0.00000000000E+00  0.75962306575E+03  0.75962306575E+03  0.00000000000E+00 0.  1.
          2   -1    0    0  501    0  0.00000000000E+00 -0.00000000000E+00 -0.62810497644E+03  0.62810497644E+03  0.00000000000E+00 0. -1.
         24    2    1    2    0    0  0.19563101823E+03  0.33895022654E+03  0.66519793686E+02  0.40556259061E+03  0.83050470083E+02 0.  0.
        254    2    1    2    0    0 -0.19563101823E+03 -0.33895022654E+03  0.64998295622E+02  0.98216545158E+03  0.89847951811E+03 0.  0.
         23    2    4    4    0    0 -0.38419656115E+03 -0.55300536032E+03  0.63992591986E+02  0.68231384568E+03  0.89639310792E+02 0.  0.
         23    2    4    4    0    0  0.18856554292E+03  0.21405513377E+03  0.10057036355E+01  0.29985160589E+03  0.92376457200E+02 0.  0.
          2    1    3    3  502    0  0.14921694743E+03  0.31290721700E+03  0.53465722901E+02  0.35076374866E+03  0.00000000000E+00 0. -1.
         -1    1    3    3    0  502  0.46414070801E+02  0.26043009542E+02  0.13054070785E+02  0.54798841944E+02  0.00000000000E+00 0.  1.
         13    1    5    5    0    0 -0.39325873506E+02 -0.31819388936E+02 -0.14054911605E+02  0.52502746399E+02  0.00000000000E+00 0. -1.
        -13    1    5    5    0    0 -0.34487068765E+03 -0.52118597138E+03  0.78047503592E+02  0.62981109928E+03  0.00000000000E+00 0.  1.
          3    1    6    6  503    0  0.26976897134E+01 -0.84302911347E+01 -0.44184124542E+01  0.98929119586E+01  0.00000000000E+00 0. -1.
         -3    1    6    6    0  503  0.18586785321E+03  0.22248542491E+03  0.54241160897E+01  0.28995869393E+03  0.00000000000E+00 0.  1.
<mgrwt>
<rscale>  0 0.13814819E+04</rscale>
<asrwt>0</asrwt>
<pdfrwt beam="1">  1        2 0.96631535E-01 0.13814819E+04</pdfrwt>
<pdfrwt beam="2">  1       -1 0.11686509E+00 0.13814819E+04</pdfrwt>
<totfact> 0.34501754E+01</totfact>
</mgrwt>
</event>
<event>
12    7  0.1572140E-007  0.1299586E+04  0.7818608E-02  0.9029894E-01
         -1   -1    0    0    0  501 -0.00000000000E+00  0.00000000000E+00  0.18731317032E+03  0.18731317032E+03  0.00000000000E+00 0.  1.
          2   -1    0    0  501    0  0.00000000000E+00 -0.00000000000E+00 -0.22541434429E+04  0.22541434429E+04  0.00000000000E+00 0. -1.
         24    2    1    2    0    0  0.14083429006E+03  0.21095526277E+03 -0.15206229829E+03  0.30609481895E+03  0.78959961242E+02 0.  0.
        254    2    1    2    0    0 -0.14083429006E+03 -0.21095526277E+03 -0.19147679743E+04  0.21353617943E+04  0.91054773456E+03 0.  0.
         23    2    4    4    0    0 -0.50747408474E+03 -0.19839789781E+03 -0.13166772039E+04  0.14277765900E+04  0.89529096309E+02 0.  0.
         23    2    4    4    0    0  0.36663979468E+03 -0.12557364956E+02 -0.59809077044E+03  0.70758520434E+03  0.91552308846E+02 0.  0.
          4    1    3    3  502    0  0.24666851236E+02  0.15766381147E+02 -0.48061117268E+02  0.56275246045E+02  0.00000000000E+00 0. -1.
         -1    1    3    3    0  502  0.11616743882E+03  0.19518888162E+03 -0.10400118102E+03  0.24981957290E+03  0.00000000000E+00 0.  1.
         13    1    5    5    0    0 -0.48729855957E+03 -0.20710984493E+03 -0.12770101499E+04  0.13824287674E+04  0.00000000000E+00 0. -1.
        -13    1    5    5    0    0 -0.20175525167E+02  0.87119471147E+01 -0.39667053979E+02  0.45347822546E+02  0.00000000000E+00 0.  1.
          1    1    6    6  503    0  0.20689846220E+03 -0.30257187313E+02 -0.40953489862E+03  0.45982747224E+03  0.00000000000E+00 0. -1.
         -1    1    6    6    0  503  0.15974133248E+03  0.17699822358E+02 -0.18855587183E+03  0.24775773210E+03  0.00000000000E+00 0.  1.
<mgrwt>
<rscale>  0 0.12995857E+04</rscale>
<asrwt>0</asrwt>
<pdfrwt beam="1">  1        2 0.34679130E+00 0.12995857E+04</pdfrwt>
<pdfrwt beam="2">  1       -1 0.28817411E-01 0.12995857E+04</pdfrwt>
<totfact> 0.58987565E+01</totfact>
</mgrwt>
</event>
<event>
12    7  0.1572140E-007  0.3290398E+04  0.7818608E-02  0.8165343E-01
         -1   -1    0    0    0  501 -0.00000000000E+00  0.00000000000E+00  0.18936216733E+04  0.18936216733E+04  0.00000000000E+00 0.  1.
          2   -1    0    0  501    0  0.00000000000E+00 -0.00000000000E+00 -0.14293669429E+04  0.14293669429E+04  0.00000000000E+00 0. -1.
         24    2    1    2    0    0  0.12900971461E+04  0.56521164651E+03  0.80819851214E+03  0.16260238089E+04  0.83389089174E+02 0.  0.
        254    2    1    2    0    0 -0.12900971461E+04 -0.56521164651E+03 -0.34394378175E+03  0.16969648073E+04  0.88180348164E+03 0.  0.
         23    2    4    4    0    0 -0.28529000194E+03  0.20939715559E+03 -0.20213702620E+03  0.41723619749E+03  0.89381839106E+02 0.  0.
         23    2    4    4    0    0 -0.10048071442E+04 -0.77460880210E+03 -0.14180675556E+03  0.12797286098E+04  0.89106483481E+02 0.  0.
          4    1    3    3  502    0  0.43591797218E+03  0.23400530407E+03  0.27710987102E+03  0.56707392942E+03  0.00000000000E+00 0. -1.
         -3    1    3    3    0  502  0.85417917396E+03  0.33120634243E+03  0.53108864112E+03  0.10589498795E+04  0.00000000000E+00 0.  1.
         13    1    5    5    0    0 -0.10579328263E+02  0.54682377932E+01  0.92420420344E+01  0.15074453622E+02  0.00000000000E+00 0. -1.
        -13    1    5    5    0    0 -0.27471067367E+03  0.20392891780E+03 -0.21137906823E+03  0.40216174387E+03  0.00000000000E+00 0.  1.
          3    1    6    6  503    0 -0.27373605193E+03 -0.24399169342E+03 -0.72027995662E+02  0.37369961833E+03  0.00000000000E+00 0. -1.
         -3    1    6    6    0  503 -0.73107109227E+03 -0.53061710868E+03 -0.69778759895E+02  0.90602899143E+03  0.00000000000E+00 0.  1.
<mgrwt>
<rscale>  0 0.32903983E+04</rscale>
<asrwt>0</asrwt>
<pdfrwt beam="1">  1        2 0.21990261E+00 0.32903983E+04</pdfrwt>
<pdfrwt beam="2">  1       -1 0.29132641E+00 0.32903983E+04</pdfrwt>
<totfact> 0.49802097E-01</totfact>
</mgrwt>
</event>
<event>
12    7  0.1572140E-007  0.1910914E+04  0.7818608E-02  0.8649443E-01
          2   -1    0    0  501    0  0.00000000000E+00  0.00000000000E+00  0.97501144887E+03  0.97501144887E+03  0.00000000000E+00 0. -1.
         -1   -1    0    0    0  501 -0.00000000000E+00 -0.00000000000E+00 -0.93629461561E+03  0.93629461561E+03  0.00000000000E+00 0.  1.
         24    2    1    2    0    0  0.66858327026E+01 -0.28753172988E+03 -0.66937870169E+03  0.73310610800E+03  0.81593647244E+02 0.  0.
        254    2    1    2    0    0 -0.66858327026E+01  0.28753172988E+03  0.70809553495E+03  0.11781999565E+04  0.89668091024E+03 0.  0.
         23    2    4    4    0    0 -0.34669248800E+03  0.38459037549E+03  0.60028400710E+03  0.79773301559E+03  0.89059737475E+02 0.  0.
         23    2    4    4    0    0  0.34000665530E+03 -0.97058645613E+02  0.10781152785E+03  0.38046694089E+03  0.90038109912E+02 0.  0.
          2    1    3    3  502    0 -0.16162940699E+02 -0.14145655453E+03 -0.24081460058E+03  0.27975501662E+03  0.00000000000E+00 0. -1.
         -1    1    3    3    0  502  0.22848773402E+02 -0.14607517535E+03 -0.42856410110E+03  0.45335109138E+03  0.00000000000E+00 0.  1.
         13    1    5    5    0    0 -0.92492218166E+02  0.16350306423E+03  0.23408503946E+03  0.30013974767E+03  0.00000000000E+00 0. -1.
        -13    1    5    5    0    0 -0.25420026983E+03  0.22108731126E+03  0.36619896763E+03  0.49759326792E+03  0.00000000000E+00 0.  1.
          3    1    6    6  503    0  0.31340332619E+03 -0.10826386797E+03  0.11458367464E+03  0.35081637428E+03  0.00000000000E+00 0. -1.
         -3    1    6    6    0  503  0.26603329110E+02  0.11205222356E+02 -0.67721467872E+01  0.29650566603E+02  0.00000000000E+00 0.  1.
<mgrwt>
<rscale>  0 0.19109139E+04</rscale>
<asrwt>0</asrwt>
<pdfrwt beam="1">  1        2 0.15000176E+00 0.19109139E+04</pdfrwt>
<pdfrwt beam="2">  1       -1 0.14404532E+00 0.19109139E+04</pdfrwt>
<totfact> 0.10853588E+01</totfact>
</mgrwt>
</event>
<event>
12    7  0.1572140E-007  0.2034274E+04  0.7818608E-02  0.8590762E-01
          2   -1    0    0  501    0  0.00000000000E+00  0.00000000000E+00  0.18752948901E+04  0.18752948901E+04  0.00000000000E+00 0. -1.
         -1   -1    0    0    0  501 -0.00000000000E+00 -0.00000000000E+00 -0.55168259334E+03  0.55168259334E+03  0.00000000000E+00 0.  1.
         24    2    1    2    0    0  0.23107476549E+03 -0.59497462490E+02  0.14646684233E+04  0.14860915600E+04  0.79240389011E+02 0.  0.
        254    2    1    2    0    0 -0.23107476549E+03  0.59497462490E+02 -0.14105612653E+03  0.94088592343E+03  0.89912957620E+03 0.  0.
         23    2    4    4    0    0 -0.83263175508E+02  0.35587590364E+03  0.22596240349E+03  0.43822935154E+03  0.86055456379E+02 0.  0.
         23    2    4    4    0    0 -0.14781158998E+03 -0.29637844115E+03 -0.36701853002E+03  0.50265657189E+03  0.90953732087E+02 0.  0.
          4    1    3    3  502    0  0.22398319969E+03 -0.36023164419E+02  0.13135931773E+04  0.13330390758E+04  0.00000000000E+00 0. -1.
         -3    1    3    3    0  502  0.70915657924E+01 -0.23474298071E+02  0.15107524601E+03  0.15305248424E+03  0.00000000000E+00 0.  1.
         13    1    5    5    0    0 -0.41259654878E+02  0.46342851273E+02  0.25595934743E+02  0.67120569576E+02  0.00000000000E+00 0.  1.
        -13    1    5    5    0    0 -0.42003520631E+02  0.30953305237E+03  0.20036646874E+03  0.37110878196E+03  0.00000000000E+00 0. -1.
          3    1    6    6  503    0 -0.32247268551E+02 -0.13879285192E+02 -0.19607426948E+02  0.40211591339E+02  0.00000000000E+00 0.  1.
         -3    1    6    6    0  503 -0.11556432143E+03 -0.28249915596E+03 -0.34741110307E+03  0.46244498055E+03  0.00000000000E+00 0. -1.
<mgrwt>
<rscale>  0 0.20342739E+04</rscale>
<asrwt>0</asrwt>
<pdfrwt beam="1">  1        2 0.28850690E+00 0.20342739E+04</pdfrwt>
<pdfrwt beam="2">  1       -1 0.84874246E-01 0.20342739E+04</pdfrwt>
<totfact> 0.11354948E+01</totfact>
</mgrwt>
</event>
<event>
12    7  0.1572140E-007  0.1468442E+04  0.7818608E-02  0.8905714E-01
         -1   -1    0    0    0  501 -0.00000000000E+00  0.00000000000E+00  0.78060761278E+03  0.78060761278E+03  0.00000000000E+00 0.  1.
          2   -1    0    0  501    0  0.00000000000E+00 -0.00000000000E+00 -0.69059068300E+03  0.69059068300E+03  0.00000000000E+00 0. -1.
         24    2    1    2    0    0  0.22498294795E+02  0.25765012655E+03  0.39952340109E+03  0.48265616595E+03  0.80301092986E+02 0.  0.
        254    2    1    2    0    0 -0.22498294795E+02 -0.25765012655E+03 -0.30950647131E+03  0.98854212982E+03  0.90251400304E+03 0.  0.
         23    2    4    4    0    0 -0.32409280939E+03 -0.18014412071E+03  0.16258454378E+03  0.41535571090E+03  0.92728525158E+02 0.  0.
         23    2    4    4    0    0  0.30159451460E+03 -0.77506005838E+02 -0.47209101508E+03  0.57318641892E+03  0.93307621012E+02 0.  0.
          4    1    3    3  502    0 -0.72235898575E+01  0.14454674151E+03  0.15772648418E+03  0.21406444017E+03  0.00000000000E+00 0. -1.
         -3    1    3    3    0  502  0.29721884653E+02  0.11310338504E+03  0.24179691691E+03  0.26859172578E+03  0.00000000000E+00 0.  1.
         13    1    5    5    0    0 -0.15735190172E+03 -0.36233563903E+02  0.58450808267E+02  0.17172358346E+03  0.00000000000E+00 0.  1.
        -13    1    5    5    0    0 -0.16674090767E+03 -0.14391055681E+03  0.10413373551E+03  0.24363212744E+03  0.00000000000E+00 0. -1.
          1    1    6    6  503    0  0.56852559477E+01 -0.57860228309E+01 -0.61433159600E+02  0.61966388420E+02  0.00000000000E+00 0.  1.
         -1    1    6    6    0  503  0.29590925865E+03 -0.71719983007E+02 -0.41065785548E+03  0.51122003050E+03  0.00000000000E+00 0. -1.
<mgrwt>
<rscale>  0 0.14684418E+04</rscale>
<asrwt>0</asrwt>
<pdfrwt beam="1">  1        2 0.10624472E+00 0.14684418E+04</pdfrwt>
<pdfrwt beam="2">  1       -1 0.12009348E+00 0.14684418E+04</pdfrwt>
<totfact> 0.28499053E+01</totfact>
</mgrwt>
</event>
<event>
12    7  0.1572140E-007  0.2142294E+04  0.7818608E-02  0.8542838E-01
         -1   -1    0    0    0  501 -0.00000000000E+00  0.00000000000E+00  0.64649172743E+03  0.64649172743E+03  0.00000000000E+00 0.  1.
          2   -1    0    0  501    0  0.00000000000E+00 -0.00000000000E+00 -0.17747413568E+04  0.17747413568E+04  0.00000000000E+00 0. -1.
         24    2    1    2    0    0  0.44196571409E+03  0.45923173618E+03 -0.11526076866E+04  0.13194983948E+04  0.79649574548E+02 0.  0.
        254    2    1    2    0    0 -0.44196571409E+03 -0.45923173618E+03  0.24358057234E+02  0.11017346894E+04  0.89833096961E+03 0.  0.
         23    2    4    4    0    0 -0.53426121445E+03 -0.36158469418E+03 -0.31623958184E+03  0.72390891675E+03  0.88645982961E+02 0.  0.
         23    2    4    4    0    0  0.92295500357E+02 -0.97647042002E+02  0.34059763908E+03  0.37782577267E+03  0.93231746465E+02 0.  0.
          2    1    3    3  502    0  0.44115509023E+03  0.45356113345E+03 -0.11511683929E+04  0.13135920920E+04  0.00000000000E+00 0. -1.
         -1    1    3    3    0  502  0.81062386126E+00  0.56706027321E+01 -0.14392937303E+01  0.59063028056E+01  0.00000000000E+00 0.  1.
         13    1    5    5    0    0 -0.40604070135E+03 -0.23990170332E+03 -0.25928057246E+03  0.53818983051E+03  0.00000000000E+00 0. -1.
        -13    1    5    5    0    0 -0.12822051310E+03 -0.12168299086E+03 -0.56959009380E+02  0.18571908624E+03  0.00000000000E+00 0.  1.
          3    1    6    6  503    0  0.65763003786E+02 -0.69101654337E+02  0.31965070363E+03  0.33358114999E+03  0.00000000000E+00 0. -1.
         -3    1    6    6    0  503  0.26532496571E+02 -0.28545387665E+02  0.20946935452E+02  0.44244622680E+02  0.00000000000E+00 0.  1.
<mgrwt>
<rscale>  0 0.21422937E+04</rscale>
<asrwt>0</asrwt>
<pdfrwt beam="1">  1        2 0.27303713E+00 0.21422937E+04</pdfrwt>
<pdfrwt beam="2">  1       -1 0.99460266E-01 0.21422937E+04</pdfrwt>
<totfact> 0.89930085E+00</totfact>
</mgrwt>
</event>
<event>
12    7  0.1572140E-007  0.4105419E+04  0.7818608E-02  0.7983611E-01
          2   -1    0    0  501    0  0.00000000000E+00  0.00000000000E+00  0.35985964088E+04  0.35985964088E+04  0.00000000000E+00 0. -1.
         -1   -1    0    0    0  501 -0.00000000000E+00 -0.00000000000E+00 -0.11709056627E+04  0.11709056627E+04  0.00000000000E+00 0.  1.
         24    2    1    2    0    0 -0.18403722239E+04  0.61648490181E+03  0.13822005778E+04  0.23841544133E+04  0.81794086152E+02 0.  0.
        254    2    1    2    0    0  0.18403722239E+04 -0.61648490181E+03  0.10454901684E+04  0.23853476582E+04  0.91093918670E+03 0.  0.
         23    2    4    4    0    0  0.63900394898E+03 -0.50169498817E+03  0.81279143458E+03  0.11528103569E+04  0.91202493272E+02 0.  0.
         23    2    4    4    0    0  0.12013682749E+04 -0.11478991364E+03  0.23269873377E+03  0.12325373013E+04  0.92396116579E+02 0.  0.
          2    1    3    3  502    0 -0.15668001745E+04  0.50439571698E+03  0.11441508700E+04  0.20045845054E+04  0.00000000000E+00 0. -1.
         -1    1    3    3    0  502 -0.27357204938E+03  0.11208918483E+03  0.23804970785E+03  0.37956990788E+03  0.00000000000E+00 0.  1.
         13    1    5    5    0    0  0.58148240763E+03 -0.41875861064E+03  0.71016082209E+03  0.10088651831E+04  0.00000000000E+00 0. -1.
        -13    1    5    5    0    0  0.57521541345E+02 -0.82936377535E+02  0.10263061250E+03  0.14394517379E+03  0.00000000000E+00 0.  1.
          1    1    6    6  503    0  0.65414965104E+03 -0.28525476613E+02  0.94222987307E+02  0.66151601652E+03  0.00000000000E+00 0. -1.
         -1    1    6    6    0  503  0.54721862384E+03 -0.86264437031E+02  0.13847574647E+03  0.57102128483E+03  0.00000000000E+00 0.  1.
<mgrwt>
<rscale>  0 0.41054193E+04</rscale>
<asrwt>0</asrwt>
<pdfrwt beam="1">  1        2 0.55363021E+00 0.41054193E+04</pdfrwt>
<pdfrwt beam="2">  1       -1 0.18013933E+00 0.41054193E+04</pdfrwt>
<totfact> 0.12725969E-01</totfact>
</mgrwt>
</event>
<event>
12    7  0.1572140E-007  0.1335148E+04  0.7818608E-02  0.9002148E-01
          2   -1    0    0  501    0  0.00000000000E+00  0.00000000000E+00  0.15884225353E+04  0.15884225353E+04  0.00000000000E+00 0. -1.
         -1   -1    0    0    0  501 -0.00000000000E+00 -0.00000000000E+00 -0.28056454165E+03  0.28056454165E+03  0.00000000000E+00 0.  1.
         24    2    1    2    0    0  0.11713979423E+03 -0.71820064434E+02  0.82719560709E+03  0.84235294046E+03  0.80162652646E+02 0.  0.
        254    2    1    2    0    0 -0.11713979423E+03  0.71820064434E+02  0.48066238658E+03  0.10266341365E+04  0.89669474588E+03 0.  0.
         23    2    4    4    0    0 -0.37440077969E+03 -0.41295348352E+02 -0.78120399942E+02  0.39476444606E+03  0.88627994218E+02 0.  0.
         23    2    4    4    0    0  0.25726098546E+03  0.11311541279E+03  0.55878278652E+03  0.63186969044E+03  0.89681614235E+02 0.  0.
          2    1    3    3  502    0  0.83984458184E+02 -0.23934003220E+02  0.64976537294E+03  0.65560755456E+03  0.00000000000E+00 0. -1.
         -1    1    3    3    0  502  0.33155336043E+02 -0.47886061214E+02  0.17743023415E+03  0.18674538591E+03  0.00000000000E+00 0.  1.
         13    1    5    5    0    0 -0.36454352791E+03 -0.34213431351E+02 -0.90774733810E+02  0.37723016174E+03  0.00000000000E+00 0.  1.
        -13    1    5    5    0    0 -0.98572517754E+01 -0.70819170003E+01  0.12654333868E+02  0.17534284320E+02  0.00000000000E+00 0. -1.
          3    1    6    6  503    0  0.14935104472E+03  0.17437711588E+02  0.26855828412E+03  0.30778784952E+03  0.00000000000E+00 0. -1.
         -3    1    6    6    0  503  0.10790994074E+03  0.95677701198E+02  0.29022450240E+03  0.32408184091E+03  0.00000000000E+00 0.  1.
<mgrwt>
<rscale>  0 0.13351480E+04</rscale>
<asrwt>0</asrwt>
<pdfrwt beam="1">  1        2 0.24437269E+00 0.13351480E+04</pdfrwt>
<pdfrwt beam="2">  1       -1 0.43163777E-01 0.13351480E+04</pdfrwt>
<totfact> 0.66734272E+01</totfact>
</mgrwt>
</event>
<event>
12    7  0.1572140E-007  0.2217057E+04  0.7818608E-02  0.8511362E-01
         -1   -1    0    0    0  501 -0.00000000000E+00  0.00000000000E+00  0.87884761485E+03  0.87884761485E+03  0.00000000000E+00 0.  1.
          2   -1    0    0  501    0  0.00000000000E+00 -0.00000000000E+00 -0.13982348278E+04  0.13982348278E+04  0.00000000000E+00 0. -1.
         24    2    1    2    0    0 -0.84769954459E+03  0.31849443768E+03 -0.39733317978E+03  0.99210285917E+03  0.79757148256E+02 0.  0.
        254    2    1    2    0    0  0.84769954459E+03 -0.31849443768E+03 -0.12205403317E+03  0.12849795835E+04  0.90346118799E+03 0.  0.
         23    2    4    4    0    0  0.99501602544E+03 -0.37758521658E+03 -0.66984635345E+01  0.10681531239E+04  0.90987581600E+02 0.  0.
         23    2    4    4    0    0 -0.14731648085E+03  0.59090778895E+02 -0.11535556964E+03  0.21682645958E+03  0.92265597317E+02 0.  0.
          2    1    3    3  502    0 -0.54342851103E+03  0.18735111410E+03 -0.21346329075E+03  0.61317335482E+03  0.00000000000E+00 0. -1.
         -1    1    3    3    0  502 -0.30427103355E+03  0.13114332359E+03 -0.18386988903E+03  0.37892950436E+03  0.00000000000E+00 0.  1.
         13    1    5    5    0    0  0.47575372057E+02 -0.31654694211E+02  0.15784188287E+02  0.59283861985E+02  0.00000000000E+00 0.  1.
        -13    1    5    5    0    0  0.94744065338E+03 -0.34593052237E+03 -0.22482651821E+02  0.10088692619E+04  0.00000000000E+00 0. -1.
          4    1    6    6  503    0 -0.11622631330E+03  0.39698524000E+02 -0.33750017470E+02  0.12737186656E+03  0.00000000000E+00 0. -1.
         -4    1    6    6    0  503 -0.31090167546E+02  0.19392254895E+02 -0.81605552169E+02  0.89454593022E+02  0.00000000000E+00 0.  1.
<mgrwt>
<rscale>  0 0.22170569E+04</rscale>
<asrwt>0</asrwt>
<pdfrwt beam="1">  1        2 0.21511305E+00 0.22170569E+04</pdfrwt>
<pdfrwt beam="2">  1       -1 0.13520733E+00 0.22170569E+04</pdfrwt>
<totfact> 0.69220143E+00</totfact>
</mgrwt>
</event>
<event>
12    7  0.1572140E-007  0.3400477E+04  0.7818608E-02  0.8137789E-01
         -1   -1    0    0    0  501 -0.00000000000E+00  0.00000000000E+00  0.81496741344E+03  0.81496741344E+03  0.00000000000E+00 0.  1.
          2   -1    0    0  501    0  0.00000000000E+00 -0.00000000000E+00 -0.35471486354E+04  0.35471486354E+04  0.00000000000E+00 0. -1.
         24    2    1    2    0    0 -0.17746235956E+03 -0.14725148879E+04 -0.19716970242E+04  0.24685415967E+04  0.79469963963E+02 0.  0.
        254    2    1    2    0    0  0.17746235956E+03  0.14725148879E+04 -0.76048419776E+03  0.18935744521E+04  0.89860725934E+03 0.  0.
         23    2    4    4    0    0 -0.13765699856E+03  0.70833078522E+03  0.54346911717E+02  0.72916847058E+03  0.89728039840E+02 0.  0.
         23    2    4    4    0    0  0.31511935811E+03  0.76418410271E+03 -0.81483110948E+03  0.11644059816E+04  0.92811638486E+02 0.  0.
          4    1    3    3  502    0 -0.14088880268E+03 -0.12160933799E+04 -0.15762975894E+04  0.19958574232E+04  0.00000000000E+00 0. -1.
         -3    1    3    3    0  502 -0.36573556880E+02 -0.25642150798E+03 -0.39539943484E+03  0.47268417351E+03  0.00000000000E+00 0.  1.
         13    1    5    5    0    0 -0.46493090405E+02  0.10098333883E+03 -0.10177156573E+02  0.11163698622E+03  0.00000000000E+00 0. -1.
        -13    1    5    5    0    0 -0.91163908151E+02  0.60734744639E+03  0.64524068290E+02  0.61753148436E+03  0.00000000000E+00 0.  1.
          2    1    6    6  503    0  0.21089786010E+02  0.22720845744E+02 -0.53035200473E+02  0.61430842371E+02  0.00000000000E+00 0. -1.
         -2    1    6    6    0  503  0.29402957210E+03  0.74146325697E+03 -0.76179590901E+03  0.11029751392E+04  0.00000000000E+00 0.  1.
<mgrwt>
<rscale>  0 0.34004768E+04</rscale>
<asrwt>0</asrwt>
<pdfrwt beam="1">  1        2 0.54571517E+00 0.34004768E+04</pdfrwt>
<pdfrwt beam="2">  1       -1 0.12537960E+00 0.34004768E+04</pdfrwt>
<totfact> 0.39273528E-01</totfact>
</mgrwt>
</event>
<event>
12    7  0.1572140E-007  0.1730913E+04  0.7818608E-02  0.8743927E-01
          2   -1    0    0  501    0  0.00000000000E+00  0.00000000000E+00  0.11036977006E+04  0.11036977006E+04  0.00000000000E+00 0. -1.
         -1   -1    0    0    0  501 -0.00000000000E+00 -0.00000000000E+00 -0.67864176615E+03  0.67864176615E+03  0.00000000000E+00 0.  1.
         24    2    1    2    0    0  0.13476001215E+03  0.76152954697E+02  0.77513877537E+03  0.79456810813E+03  0.80862995155E+02 0.  0.
        254    2    1    2    0    0 -0.13476001215E+03 -0.76152954697E+02 -0.35008284091E+03  0.98777135864E+03  0.91059031846E+03 0.  0.
         23    2    4    4    0    0 -0.24196633551E+03 -0.43515143096E+03 -0.70740617043E+02  0.51121842980E+03  0.91845373781E+02 0.  0.
         23    2    4    4    0    0  0.10720632336E+03  0.35899847626E+03 -0.27934222387E+03  0.47655292884E+03  0.93260464411E+02 0.  0.
          2    1    3    3  502    0  0.14525175811E+03  0.65055473110E+02  0.69543556709E+03  0.71341496745E+03  0.00000000000E+00 0. -1.
         -3    1    3    3    0  502 -0.10491745955E+02  0.11097481586E+02  0.79703208281E+02  0.81153140673E+02  0.00000000000E+00 0.  1.
         13    1    5    5    0    0 -0.45898273044E+02 -0.11138010509E+03 -0.54872163507E+02  0.13237497349E+03  0.00000000000E+00 0. -1.
        -13    1    5    5    0    0 -0.19606806247E+03 -0.32377132587E+03 -0.15868453535E+02  0.37884345632E+03  0.00000000000E+00 0.  1.
          3    1    6    6  503    0  0.45645310353E+02  0.41068571012E+02 -0.33286823808E+02  0.69843643385E+02  0.00000000000E+00 0. -1.
         -3    1    6    6    0  503  0.61561013008E+02  0.31792990525E+03 -0.24605540006E+03  0.40670928545E+03  0.00000000000E+00 0.  1.
<mgrwt>
<rscale>  0 0.17309135E+04</rscale>
<asrwt>0</asrwt>
<pdfrwt beam="1">  1        2 0.16979965E+00 0.17309135E+04</pdfrwt>
<pdfrwt beam="2">  1       -1 0.10440643E+00 0.17309135E+04</pdfrwt>
<totfact> 0.20244796E+01</totfact>
</mgrwt>
</event>
<event>
12    7  0.1572140E-007  0.2686092E+04  0.7818608E-02  0.8339532E-01
         -1   -1    0    0    0  501 -0.00000000000E+00  0.00000000000E+00  0.11671744077E+04  0.11671744077E+04  0.00000000000E+00 0.  1.
          2   -1    0    0  501    0  0.00000000000E+00 -0.00000000000E+00 -0.15454176419E+04  0.15454176419E+04  0.00000000000E+00 0. -1.
         24    2    1    2    0    0  0.18808608716E+03 -0.62798262532E+03  0.83680270254E+03  0.10660116362E+04  0.80021820261E+02 0.  0.
        254    2    1    2    0    0 -0.18808608716E+03  0.62798262532E+03 -0.12150459367E+04  0.16465804134E+04  0.89730255520E+03 0.  0.
         23    2    4    4    0    0  0.21729122954E+03 -0.11263931283E+03 -0.26013246594E+03  0.36853533091E+03  0.90809124348E+02 0.  0.
         23    2    4    4    0    0 -0.40537731669E+03  0.74062193815E+03 -0.95491347074E+03  0.12780450825E+04  0.93208755191E+02 0.  0.
          4    1    3    3  502    0  0.56674214055E+02 -0.12657661020E+03  0.22320180195E+03  0.26277870763E+03  0.00000000000E+00 0. -1.
         -3    1    3    3    0  502  0.13141187310E+03 -0.50140601512E+03  0.61360090059E+03  0.80323292860E+03  0.00000000000E+00 0.  1.
         13    1    5    5    0    0  0.20306906163E+03 -0.10518414425E+03 -0.26657744392E+03  0.35123251785E+03  0.00000000000E+00 0. -1.
        -13    1    5    5    0    0  0.14222167906E+02 -0.74551685793E+01  0.64449779774E+01  0.17302813055E+02  0.00000000000E+00 0.  1.
          1    1    6    6  503    0 -0.38073633218E+03  0.69561919462E+03 -0.85765546572E+03  0.11680835229E+04  0.00000000000E+00 0. -1.
         -1    1    6    6    0  503 -0.24640984509E+02  0.45002743529E+02 -0.97258005018E+02  0.10996155957E+03  0.00000000000E+00 0.  1.
<mgrwt>
<rscale>  0 0.26860915E+04</rscale>
<asrwt>0</asrwt>
<pdfrwt beam="1">  1        2 0.23775656E+00 0.26860915E+04</pdfrwt>
<pdfrwt beam="2">  1       -1 0.17956529E+00 0.26860915E+04</pdfrwt>
<totfact> 0.25089295E+00</totfact>
</mgrwt>
</event>
<event>
12    7  0.1572140E-007  0.1719394E+04  0.7818608E-02  0.8750380E-01
          2   -1    0    0  501    0  0.00000000000E+00  0.00000000000E+00  0.74182368423E+03  0.74182368423E+03  0.00000000000E+00 0. -1.
         -1   -1    0    0    0  501 -0.00000000000E+00 -0.00000000000E+00 -0.99630007459E+03  0.99630007459E+03  0.00000000000E+00 0.  1.
         24    2    1    2    0    0  0.38065703036E+03 -0.47943677432E+03  0.50274110581E+01  0.61906307241E+03  0.91947906028E+02 0.  0.
        254    2    1    2    0    0 -0.38065703036E+03  0.47943677432E+03 -0.25950380141E+03  0.11190606864E+04  0.90010843880E+03 0.  0.
         23    2    4    4    0    0 -0.46725173589E+03 -0.10775607361E+03 -0.11968730766E+03  0.50229821023E+03  0.89682129131E+02 0.  0.
         23    2    4    4    0    0  0.86594705534E+02  0.58719284793E+03 -0.13981649375E+03  0.61676247619E+03  0.92483600836E+02 0.  0.
          2    1    3    3  502    0  0.11127305181E+03 -0.14026756490E+03  0.43417500460E+02  0.18423289925E+03  0.00000000000E+00 0. -1.
         -1    1    3    3    0  502  0.26938397855E+03 -0.33916920943E+03 -0.38390089402E+02  0.43483017316E+03  0.00000000000E+00 0.  1.
         13    1    5    5    0    0 -0.27027421268E+03 -0.40370911702E+02 -0.10782498035E+03  0.29377574259E+03  0.00000000000E+00 0. -1.
        -13    1    5    5    0    0 -0.19697752322E+03 -0.67385161906E+02 -0.11862327314E+02  0.20852246763E+03  0.00000000000E+00 0.  1.
          3    1    6    6  503    0  0.10026865187E+03  0.56856481408E+03 -0.13088682103E+03  0.59198911331E+03  0.00000000000E+00 0. -1.
         -3    1    6    6    0  503 -0.13673946334E+02  0.18628033849E+02 -0.89296727245E+01  0.24773362880E+02  0.00000000000E+00 0.  1.
<mgrwt>
<rscale>  0 0.17193941E+04</rscale>
<asrwt>0</asrwt>
<pdfrwt beam="1">  1        2 0.11412672E+00 0.17193941E+04</pdfrwt>
<pdfrwt beam="2">  1       -1 0.15327693E+00 0.17193941E+04</pdfrwt>
<totfact> 0.13577516E+01</totfact>
</mgrwt>
</event>
<event>
12    7  0.1572140E-007  0.1352727E+04  0.7818608E-02  0.8988766E-01
         -1   -1    0    0    0  501 -0.00000000000E+00  0.00000000000E+00  0.15774687134E+03  0.15774687134E+03  0.00000000000E+00 0.  1.
          2   -1    0    0  501    0  0.00000000000E+00 -0.00000000000E+00 -0.29000118283E+04  0.29000118283E+04  0.00000000000E+00 0. -1.
         24    2    1    2    0    0  0.22506225889E+03 -0.10598619064E+03 -0.13979853693E+04  0.14221329116E+04  0.78821523912E+02 0.  0.
        254    2    1    2    0    0 -0.22506225889E+03  0.10598619064E+03 -0.13442795877E+04  0.16356257880E+04  0.89794098669E+03 0.  0.
         23    2    4    4    0    0 -0.15700300503E+03  0.38560123624E+03 -0.12471485687E+04  0.13178723117E+04  0.89831066150E+02 0.  0.
         23    2    4    4    0    0 -0.68059253865E+02 -0.27961504561E+03 -0.97131018985E+02  0.31775347636E+03  0.93360597265E+02 0.  0.
          2    1    3    3  502    0  0.10718683630E+03 -0.35992716647E+02 -0.83889076958E+03  0.84647635337E+03  0.00000000000E+00 0. -1.
         -1    1    3    3    0  502  0.11787542259E+03 -0.69993473992E+02 -0.55909459971E+03  0.57565655827E+03  0.00000000000E+00 0.  1.
         13    1    5    5    0    0 -0.12172455042E+03  0.32908973413E+03 -0.93442970268E+03  0.99813615731E+03  0.00000000000E+00 0.  1.
        -13    1    5    5    0    0 -0.35278454603E+02  0.56511502117E+02 -0.31271886605E+03  0.31973615437E+03  0.00000000000E+00 0. -1.
          1    1    6    6  503    0 -0.47883969127E+02 -0.17515272637E+03 -0.12870116835E+02  0.18203568870E+03  0.00000000000E+00 0. -1.
         -1    1    6    6    0  503 -0.20175284738E+02 -0.10446231923E+03 -0.84260902150E+02  0.13571778765E+03  0.00000000000E+00 0.  1.
<mgrwt>
<rscale>  0 0.13527273E+04</rscale>
<asrwt>0</asrwt>
<pdfrwt beam="1">  1        2 0.44615565E+00 0.13527273E+04</pdfrwt>
<pdfrwt beam="2">  1       -1 0.24268750E-01 0.13527273E+04</pdfrwt>
<totfact> 0.33222963E+01</totfact>
</mgrwt>
</event>
<event>
12    7  0.1572140E-007  0.1846357E+04  0.7818608E-02  0.8682028E-01
          2   -1    0    0  501    0  0.00000000000E+00  0.00000000000E+00  0.17946034626E+04  0.17946034626E+04  0.00000000000E+00 0. -1.
         -1   -1    0    0    0  501 -0.00000000000E+00 -0.00000000000E+00 -0.47490090398E+03  0.47490090398E+03  0.00000000000E+00 0.  1.
         24    2    1    2    0    0 -0.66644036491E+03 -0.11696379940E+03  0.27297831367E+03  0.73353938801E+03  0.75760040166E+02 0.  0.
        254    2    1    2    0    0  0.66644036491E+03  0.11696379940E+03  0.10467242449E+04  0.15359649785E+04  0.89762658163E+03 0.  0.
         23    2    4    4    0    0  0.51239679184E+03  0.34881652966E+03  0.22979175431E+03  0.66766748108E+03  0.93553040003E+02 0.  0.
         23    2    4    4    0    0  0.15404357306E+03 -0.23185273026E+03  0.81693249060E+03  0.86829749745E+03  0.95271921117E+02 0.  0.
          4    1    3    3  502    0 -0.34206445700E+03 -0.94142453569E+02  0.12364564723E+03  0.37571151218E+03  0.00000000000E+00 0. -1.
         -3    1    3    3    0  502 -0.32437590790E+03 -0.22821345829E+02  0.14933266645E+03  0.35782787583E+03  0.00000000000E+00 0.  1.
         13    1    5    5    0    0  0.51552531899E+03  0.34110390342E+03  0.22384403674E+03  0.65743773867E+03  0.00000000000E+00 0. -1.
        -13    1    5    5    0    0 -0.31285271413E+01  0.77126262354E+01  0.59477175751E+01  0.10229742415E+02  0.00000000000E+00 0.  1.
          3    1    6    6  503    0  0.12420563943E+03 -0.14090381884E+03  0.64171665774E+03  0.66864130582E+03  0.00000000000E+00 0. -1.
         -3    1    6    6    0  503  0.29837933627E+02 -0.90948911416E+02  0.17521583286E+03  0.19965619163E+03  0.00000000000E+00 0.  1.
<mgrwt>
<rscale>  0 0.18463573E+04</rscale>
<asrwt>0</asrwt>
<pdfrwt beam="1">  1        2 0.27609284E+00 0.18463573E+04</pdfrwt>
<pdfrwt beam="2">  1       -1 0.73061678E-01 0.18463573E+04</pdfrwt>
<totfact> 0.17575255E+01</totfact>
</mgrwt>
</event>
<event>
12    7  0.1572140E-007  0.3215357E+04  0.7818608E-02  0.8184773E-01
          2   -1    0    0  501    0  0.00000000000E+00  0.00000000000E+00  0.17875614037E+04  0.17875614037E+04  0.00000000000E+00 0. -1.
         -1   -1    0    0    0  501 -0.00000000000E+00 -0.00000000000E+00 -0.14458972423E+04  0.14458972423E+04  0.00000000000E+00 0.  1.
         24    2    1    2    0    0 -0.12351238854E+04 -0.19302710779E+03  0.95573008409E+03  0.15756631255E+04  0.80646233623E+02 0.  0.
        254    2    1    2    0    0  0.12351238854E+04  0.19302710779E+03 -0.61406592266E+03  0.16577955205E+04  0.89912098950E+03 0.  0.
         23    2    4    4    0    0  0.43720240046E+03  0.28702673911E+03  0.14321196147E+03  0.55002566204E+03  0.92131835218E+02 0.  0.
         23    2    4    4    0    0  0.79792148489E+03 -0.93999631314E+02 -0.75727788413E+03  0.11077698584E+04  0.90386053570E+02 0.  0.
          4    1    3    3  502    0 -0.59522538369E+03 -0.73587632679E+02  0.41381788250E+03  0.72866565512E+03  0.00000000000E+00 0. -1.
         -3    1    3    3    0  502 -0.63989850166E+03 -0.11943947511E+03  0.54191220159E+03  0.84699747040E+03  0.00000000000E+00 0.  1.
         13    1    5    5    0    0  0.40606017324E+03  0.28712257671E+03  0.12115103946E+03  0.51186112639E+03  0.00000000000E+00 0. -1.
        -13    1    5    5    0    0  0.31142227220E+02 -0.95837601255E-01  0.22060922015E+02  0.38164535648E+02  0.00000000000E+00 0.  1.
          2    1    6    6  503    0  0.74395618039E+03 -0.87259629555E+02 -0.67025117402E+03  0.10051475899E+04  0.00000000000E+00 0. -1.
         -2    1    6    6    0  503  0.53965304500E+02 -0.67400017592E+01 -0.87026710115E+02  0.10262226848E+03  0.00000000000E+00 0.  1.
<mgrwt>
<rscale>  0 0.32153570E+04</rscale>
<asrwt>0</asrwt>
<pdfrwt beam="1">  1        2 0.27500945E+00 0.32153570E+04</pdfrwt>
<pdfrwt beam="2">  1       -1 0.22244573E+00 0.32153570E+04</pdfrwt>
<totfact> 0.88919762E-01</totfact>
</mgrwt>
</event>
<event>
12    7  0.1572140E-007  0.1680948E+04  0.7818608E-02  0.8772306E-01
          2   -1    0    0  501    0  0.00000000000E+00  0.00000000000E+00  0.99576495409E+03  0.99576495409E+03  0.00000000000E+00 0. -1.
         -1   -1    0    0    0  501 -0.00000000000E+00 -0.00000000000E+00 -0.70940094069E+03  0.70940094069E+03  0.00000000000E+00 0.  1.
         24    2    1    2    0    0  0.60184806566E+03 -0.66552884873E+02  0.62122785433E+02  0.61449562480E+03  0.84233317633E+02 0.  0.
        254    2    1    2    0    0 -0.60184806566E+03  0.66552884873E+02  0.22424122796E+03  0.10906702700E+04  0.87899210968E+03 0.  0.
         23    2    4    4    0    0 -0.19488205213E+03 -0.35569427945E+03 -0.80441534645E+02  0.42333320132E+03  0.90789449661E+02 0.  0.
         23    2    4    4    0    0 -0.40696601354E+03  0.42224716433E+03  0.30468276261E+03  0.66733706866E+03  0.92699371171E+02 0.  0.
          4    1    3    3  502    0  0.12009567371E+03 -0.59206776571E+01 -0.20460365414E+02  0.12196988079E+03  0.00000000000E+00 0. -1.
         -3    1    3    3    0  502  0.48175239195E+03 -0.60632207216E+02  0.82583150848E+02  0.49252574401E+03  0.00000000000E+00 0.  1.
         13    1    5    5    0    0 -0.72231264028E+02 -0.10569097235E+03  0.15162136954E+02  0.12891015296E+03  0.00000000000E+00 0.  1.
        -13    1    5    5    0    0 -0.12265078810E+03 -0.25000330710E+03 -0.95603671599E+02  0.29442304836E+03  0.00000000000E+00 0. -1.
          1    1    6    6  503    0 -0.38035226649E+03  0.37792576146E+03  0.30241454892E+03  0.61558938197E+03  0.00000000000E+00 0. -1.
         -1    1    6    6    0  503 -0.26613747043E+02  0.44321402865E+02  0.22682136934E+01  0.51747686682E+02  0.00000000000E+00 0.  1.
<mgrwt>
<rscale>  0 0.16809481E+04</rscale>
<asrwt>0</asrwt>
<pdfrwt beam="1">  1        2 0.15319461E+00 0.16809481E+04</pdfrwt>
<pdfrwt beam="2">  1       -1 0.10913861E+00 0.16809481E+04</pdfrwt>
<totfact> 0.21431416E+01</totfact>
</mgrwt>
</event>
<event>
12    7  0.1572140E-007  0.2166406E+04  0.7818608E-02  0.8532542E-01
         -1   -1    0    0    0  501 -0.00000000000E+00  0.00000000000E+00  0.18964018977E+04  0.18964018977E+04  0.00000000000E+00 0.  1.
          2   -1    0    0  501    0  0.00000000000E+00 -0.00000000000E+00 -0.61871316873E+03  0.61871316873E+03  0.00000000000E+00 0. -1.
         24    2    1    2    0    0  0.35513975124E+03 -0.77032053932E+03  0.19705604541E+03  0.87454878687E+03  0.80538930737E+02 0.  0.
        254    2    1    2    0    0 -0.35513975124E+03  0.77032053932E+03  0.10806326836E+04  0.16405662796E+04  0.89675679235E+03 0.  0.
         23    2    4    4    0    0 -0.75385541971E+02  0.51621059692E+03  0.42614975170E+02  0.53211657734E+03  0.95789641711E+02 0.  0.
         23    2    4    4    0    0 -0.27975420927E+03  0.25410994240E+03  0.10380177084E+04  0.11084497022E+04  0.91354797223E+02 0.  0.
          2    1    3    3  502    0  0.16924876654E+03 -0.42574105501E+03  0.13881602179E+03  0.47871753551E+03  0.00000000000E+00 0. -1.
         -1    1    3    3    0  502  0.18589098470E+03 -0.34457948431E+03  0.58240023618E+02  0.39583125136E+03  0.00000000000E+00 0.  1.
         13    1    5    5    0    0 -0.70460302303E+02  0.51272457044E+03  0.30331963725E+02  0.51843144904E+03  0.00000000000E+00 0.  1.
        -13    1    5    5    0    0 -0.49252396674E+01  0.34860264851E+01  0.12283011445E+02  0.13685128300E+02  0.00000000000E+00 0. -1.
          1    1    6    6  503    0 -0.11287823692E+03  0.65971884447E+02  0.45717869638E+03  0.47550620010E+03  0.00000000000E+00 0. -1.
         -1    1    6    6    0  503 -0.16687597235E+03  0.18813805795E+03  0.58083901201E+03  0.63294350212E+03  0.00000000000E+00 0.  1.
<mgrwt>
<rscale>  0 0.21664061E+04</rscale>
<asrwt>0</asrwt>
<pdfrwt beam="1">  1        2 0.95186642E-01 0.21664061E+04</pdfrwt>
<pdfrwt beam="2">  1       -1 0.29175414E+00 0.21664061E+04</pdfrwt>
<totfact> 0.18677063E+00</totfact>
</mgrwt>
</event>
<event>
12    7  0.1572140E-007  0.1665224E+04  0.7818608E-02  0.8781451E-01
         -1   -1    0    0    0  501 -0.00000000000E+00  0.00000000000E+00  0.49900910840E+03  0.49900910840E+03  0.00000000000E+00 0.  1.
          2   -1    0    0  501    0  0.00000000000E+00 -0.00000000000E+00 -0.13892389785E+04  0.13892389785E+04  0.00000000000E+00 0. -1.
         24    2    1    2    0    0  0.59619061499E+03  0.13961314742E+03 -0.26992664395E+03  0.67343691990E+03  0.75642657479E+02 0.  0.
        254    2    1    2    0    0 -0.59619061499E+03 -0.13961314742E+03 -0.62030322616E+03  0.12148111670E+04  0.84620033016E+03 0.  0.
         23    2    4    4    0    0 -0.72657211215E+03 -0.29188735889E+03 -0.33473607807E+03  0.85607371869E+03  0.87799233660E+02 0.  0.
         23    2    4    4    0    0  0.13038149716E+03  0.15227421147E+03 -0.28556714808E+03  0.35873744832E+03  0.83409774489E+02 0.  0.
          4    1    3    3  502    0  0.21029418377E+03  0.67524517589E+02 -0.13217841958E+03  0.25739918183E+03  0.00000000000E+00 0. -1.
         -3    1    3    3    0  502  0.38589643122E+03  0.72088629829E+02 -0.13774822437E+03  0.41603773807E+03  0.00000000000E+00 0.  1.
         13    1    5    5    0    0 -0.42790834304E+02  0.34774620522E+01 -0.14649029318E+02  0.45362344546E+02  0.00000000000E+00 0. -1.
        -13    1    5    5    0    0 -0.68378127785E+03 -0.29536482094E+03 -0.32008704876E+03  0.81071137414E+03  0.00000000000E+00 0.  1.
          1    1    6    6  503    0  0.33055536165E+02  0.14871271248E+01 -0.75582348762E+02  0.82508008476E+02  0.00000000000E+00 0. -1.
         -1    1    6    6    0  503  0.97325960992E+02  0.15078708435E+03 -0.20998479932E+03  0.27622943984E+03  0.00000000000E+00 0.  1.
<mgrwt>
<rscale>  0 0.16652242E+04</rscale>
<asrwt>0</asrwt>
<pdfrwt beam="1">  1        2 0.21372907E+00 0.16652242E+04</pdfrwt>
<pdfrwt beam="2">  1       -1 0.76770633E-01 0.16652242E+04</pdfrwt>
<totfact> 0.27172973E+01</totfact>
</mgrwt>
</event>
<event>
12    7  0.1572140E-007  0.4145143E+04  0.7818608E-02  0.7975890E-01
         -1   -1    0    0    0  501 -0.00000000000E+00  0.00000000000E+00  0.12354560844E+04  0.12354560844E+04  0.00000000000E+00 0.  1.
          2   -1    0    0  501    0  0.00000000000E+00 -0.00000000000E+00 -0.34768964669E+04  0.34768964669E+04  0.00000000000E+00 0. -1.
         24    2    1    2    0    0  0.18333721956E+04 -0.68285011466E+03 -0.14006969754E+04  0.24073719871E+04  0.77136115945E+02 0.  0.
        254    2    1    2    0    0 -0.18333721956E+04  0.68285011466E+03 -0.84074340717E+03  0.23049805643E+04  0.88235369223E+03 0.  0.
         23    2    4    4    0    0 -0.52229695354E+03  0.56640426815E+03 -0.55763889020E+03  0.95564440000E+03  0.93205068145E+02 0.  0.
         23    2    4    4    0    0 -0.13110752421E+04  0.11644584651E+03 -0.28310451697E+03  0.13493361643E+04  0.89899894923E+02 0.  0.
          2    1    3    3  502    0  0.11245167413E+04 -0.40947806314E+03 -0.81160000140E+03  0.14459961092E+04  0.00000000000E+00 0. -1.
         -1    1    3    3    0  502  0.70885545436E+03 -0.27337205151E+03 -0.58909697399E+03  0.96137587784E+03  0.00000000000E+00 0.  1.
         13    1    5    5    0    0 -0.13814297625E+03  0.13647242030E+03 -0.19106512287E+03  0.27242262125E+03  0.00000000000E+00 0. -1.
        -13    1    5    5    0    0 -0.38415397729E+03  0.42993184785E+03 -0.36657376733E+03  0.68322177875E+03  0.00000000000E+00 0.  1.
          4    1    6    6  503    0 -0.31419107924E+03  0.59540380368E+02 -0.91451848886E+02  0.33260266359E+03  0.00000000000E+00 0. -1.
         -4    1    6    6    0  503 -0.99688416286E+03  0.56905466141E+02 -0.19165266808E+03  0.10167335007E+04  0.00000000000E+00 0.  1.
<mgrwt>
<rscale>  0 0.41451431E+04</rscale>
<asrwt>0</asrwt>
<pdfrwt beam="1">  1        2 0.53490714E+00 0.41451431E+04</pdfrwt>
<pdfrwt beam="2">  1       -1 0.19007017E+00 0.41451431E+04</pdfrwt>
<totfact> 0.13155328E-01</totfact>
</mgrwt>
</event>
<event>
12    7  0.1572140E-007  0.1311766E+04  0.7818608E-02  0.9020286E-01
          2   -1    0    0  501    0  0.00000000000E+00  0.00000000000E+00  0.45849398112E+03  0.45849398112E+03  0.00000000000E+00 0. -1.
         -1   -1    0    0    0  501 -0.00000000000E+00 -0.00000000000E+00 -0.93825166549E+03  0.93825166549E+03  0.00000000000E+00 0.  1.
         24    2    1    2    0    0 -0.13437683455E+03  0.29134873958E+03 -0.26577304305E+03  0.42444275275E+03  0.81087102734E+02 0.  0.
        254    2    1    2    0    0  0.13437683455E+03 -0.29134873958E+03 -0.21398464132E+03  0.97230289386E+03  0.89254818860E+03 0.  0.
         23    2    4    4    0    0  0.35478388384E+03 -0.23080499941E+02 -0.42059738462E+03  0.55755055815E+03  0.86926125160E+02 0.  0.
         23    2    4    4    0    0 -0.22040704928E+03 -0.26826823964E+03  0.20661274330E+03  0.41475233571E+03  0.93720640788E+02 0.  0.
          4    1    3    3  502    0 -0.83263206804E+02  0.19937295098E+03 -0.22402634799E+03  0.31123968221E+03  0.00000000000E+00 0. -1.
         -3    1    3    3    0  502 -0.51113627751E+02  0.91975788606E+02 -0.41746695059E+02  0.11320307054E+03  0.00000000000E+00 0.  1.
         13    1    5    5    0    0  0.34248285627E+03 -0.40262964772E+02 -0.39453432570E+03  0.52399708713E+03  0.00000000000E+00 0. -1.
        -13    1    5    5    0    0  0.12301027570E+02  0.17182464830E+02 -0.26063058923E+02  0.33553471018E+02  0.00000000000E+00 0.  1.
          4    1    6    6  503    0 -0.21943141874E+03 -0.26355616920E+03  0.21522466190E+03  0.40488721509E+03  0.00000000000E+00 0. -1.
         -4    1    6    6    0  503 -0.97563053851E+00 -0.47120704391E+01 -0.86119186014E+01  0.98651206160E+01  0.00000000000E+00 0.  1.
<mgrwt>
<rscale>  0 0.13117664E+04</rscale>
<asrwt>0</asrwt>
<pdfrwt beam="1">  1        2 0.70537536E-01 0.13117664E+04</pdfrwt>
<pdfrwt beam="2">  1       -1 0.14434641E+00 0.13117664E+04</pdfrwt>
<totfact> 0.29492958E+01</totfact>
</mgrwt>
</event>
<event>
12    7  0.1572140E-007  0.3276990E+04  0.7818608E-02  0.8168775E-01
         -1   -1    0    0    0  501 -0.00000000000E+00  0.00000000000E+00  0.19231515762E+04  0.19231515762E+04  0.00000000000E+00 0.  1.
          2   -1    0    0  501    0  0.00000000000E+00 -0.00000000000E+00 -0.13959717119E+04  0.13959717119E+04  0.00000000000E+00 0. -1.
         24    2    1    2    0    0  0.11274550847E+04  0.53909324580E+03 -0.61909358292E+03  0.13969647928E+04  0.80357154585E+02 0.  0.
        254    2    1    2    0    0 -0.11274550847E+04 -0.53909324580E+03  0.11462734472E+04  0.19221584952E+04  0.90497180578E+03 0.  0.
         23    2    4    4    0    0 -0.83901561260E+03 -0.78491986424E+03  0.82773216445E+03  0.14188732852E+04  0.89523583748E+02 0.  0.
         23    2    4    4    0    0 -0.28843947211E+03  0.24582661844E+03  0.31854128279E+03  0.50328521000E+03  0.90550529278E+02 0.  0.
          2    1    3    3  502    0  0.10293925825E+04  0.47175241981E+03 -0.57616181294E+03  0.12704967018E+04  0.00000000000E+00 0. -1.
         -1    1    3    3    0  502  0.98062502224E+02  0.67340825988E+02 -0.42931769972E+02  0.12646809107E+03  0.00000000000E+00 0.  1.
         13    1    5    5    0    0 -0.29123187922E+03 -0.22481288490E+03  0.29316011916E+03  0.47042501651E+03  0.00000000000E+00 0. -1.
        -13    1    5    5    0    0 -0.54778373338E+03 -0.56010697934E+03  0.53457204529E+03  0.94844826873E+03  0.00000000000E+00 0.  1.
          4    1    6    6  503    0 -0.87101519341E+01  0.34497301005E+02  0.11892491303E+02  0.37514822041E+02  0.00000000000E+00 0. -1.
         -4    1    6    6    0  503 -0.27972932018E+03  0.21132931744E+03  0.30664879149E+03  0.46577038796E+03  0.00000000000E+00 0.  1.
<mgrwt>
<rscale>  0 0.32769896E+04</rscale>
<asrwt>0</asrwt>
<pdfrwt beam="1">  1        2 0.21476488E+00 0.32769896E+04</pdfrwt>
<pdfrwt beam="2">  1       -1 0.29586947E+00 0.32769896E+04</pdfrwt>
<totfact> 0.48685556E-01</totfact>
</mgrwt>
</event>
<event>
12    7  0.1572140E-007  0.2107848E+04  0.7818608E-02  0.8557794E-01
         -1   -1    0    0    0  501 -0.00000000000E+00  0.00000000000E+00  0.37869777476E+03  0.37869777476E+03  0.00000000000E+00 0.  1.
          2   -1    0    0  501    0  0.00000000000E+00 -0.00000000000E+00 -0.29330936790E+04  0.29330936790E+04  0.00000000000E+00 0. -1.
         24    2    1    2    0    0  0.25241090009E+03 -0.83308869354E+03 -0.88029194299E+03  0.12406060252E+04  0.80258152613E+02 0.  0.
        254    2    1    2    0    0 -0.25241090009E+03  0.83308869354E+03 -0.16741039613E+04  0.20711854286E+04  0.85407082413E+03 0.  0.
         23    2    4    4    0    0  0.20745439432E+03 -0.20492326390E+02 -0.19626066989E+03  0.30124814950E+03  0.93674627673E+02 0.  0.
         23    2    4    4    0    0 -0.45986529440E+03  0.85358101993E+03 -0.14778432914E+04  0.17699372791E+04  0.92631157863E+02 0.  0.
          2    1    3    3  502    0  0.24569036470E+03 -0.82445848999E+03 -0.85429073552E+03  0.12123977144E+04  0.00000000000E+00 0. -1.
         -1    1    3    3    0  502  0.67205353887E+01 -0.86302035483E+01 -0.26001207474E+02  0.28208310820E+02  0.00000000000E+00 0.  1.
         13    1    5    5    0    0  0.29556581548E+02  0.14645170051E+02  0.13920167153E+01  0.33015302954E+02  0.00000000000E+00 0. -1.
        -13    1    5    5    0    0  0.17789781277E+03 -0.35137496441E+02 -0.19765268661E+03  0.26823284655E+03  0.00000000000E+00 0.  1.
          2    1    6    6  503    0 -0.10321851191E+03  0.12108595642E+03 -0.25403438983E+03  0.29974879693E+03  0.00000000000E+00 0. -1.
         -2    1    6    6    0  503 -0.35664678249E+03  0.73249506351E+03 -0.12238089015E+04  0.14701884821E+04  0.00000000000E+00 0.  1.
<mgrwt>
<rscale>  0 0.21078482E+04</rscale>
<asrwt>0</asrwt>
<pdfrwt beam="1">  1        2 0.45124518E+00 0.21078482E+04</pdfrwt>
<pdfrwt beam="2">  1       -1 0.58261197E-01 0.21078482E+04</pdfrwt>
<totfact> 0.60054260E+00</totfact>
</mgrwt>
</event>
<event>
12    7  0.1572140E-007  0.1785513E+04  0.7818608E-02  0.8714041E-01
          2   -1    0    0  501    0  0.00000000000E+00  0.00000000000E+00  0.21297225572E+04  0.21297225572E+04  0.00000000000E+00 0. -1.
         -1   -1    0    0    0  501 -0.00000000000E+00 -0.00000000000E+00 -0.37423400859E+03  0.37423400859E+03  0.00000000000E+00 0.  1.
         24    2    1    2    0    0 -0.19968294571E+03 -0.36898563150E+03 -0.62096530901E+02  0.43210864498E+03  0.82693572051E+02 0.  0.
        254    2    1    2    0    0  0.19968294571E+03  0.36898563150E+03  0.18175850795E+04  0.20718479208E+04  0.90161777415E+03 0.  0.
         23    2    4    4    0    0  0.18427265052E+03  0.41538457434E+03  0.18905426365E+04  0.19465557364E+04  0.91798802387E+02 0.  0.
         23    2    4    4    0    0  0.15410295192E+02 -0.46398942839E+02 -0.72957556971E+02  0.12529218444E+03  0.89358755973E+02 0.  0.
          4    1    3    3  502    0 -0.94291004364E+02 -0.20866322642E+03  0.44863865993E+01  0.22902240770E+03  0.00000000000E+00 0. -1.
         -3    1    3    3    0  502 -0.10539194134E+03 -0.16032240508E+03 -0.66582917500E+02  0.20308623728E+03  0.00000000000E+00 0.  1.
         13    1    5    5    0    0  0.17124062866E+03  0.30569751297E+03  0.15222022738E+04  0.15620096301E+04  0.00000000000E+00 0. -1.
        -13    1    5    5    0    0  0.13032021860E+02  0.10968706137E+03  0.36834036271E+03  0.38454610624E+03  0.00000000000E+00 0.  1.
          1    1    6    6  503    0  0.34864431428E+02 -0.53156210280E+02 -0.81187705675E+02  0.10311428040E+03  0.00000000000E+00 0. -1.
         -1    1    6    6    0  503 -0.19454136236E+02  0.67572674408E+01  0.82301487041E+01  0.22177904041E+02  0.00000000000E+00 0.  1.
<mgrwt>
<rscale>  0 0.17855135E+04</rscale>
<asrwt>0</asrwt>
<pdfrwt beam="1">  1        2 0.32764962E+00 0.17855135E+04</pdfrwt>
<pdfrwt beam="2">  1       -1 0.57574464E-01 0.17855135E+04</pdfrwt>
<totfact> 0.18601394E+01</totfact>
</mgrwt>
</event>
<event>
12    7  0.1572140E-007  0.1111068E+04  0.7818608E-02  0.9194471E-01
         -1   -1    0    0    0  501 -0.00000000000E+00  0.00000000000E+00  0.41176057555E+03  0.41176057555E+03  0.00000000000E+00 0.  1.
          2   -1    0    0  501    0  0.00000000000E+00 -0.00000000000E+00 -0.74950793139E+03  0.74950793139E+03  0.00000000000E+00 0. -1.
         24    2    1    2    0    0  0.15690836505E+03  0.80670770505E+01  0.19258226634E+02  0.17751923898E+03  0.80354764399E+02 0.  0.
        254    2    1    2    0    0 -0.15690836505E+03 -0.80670770505E+01 -0.35700558247E+03  0.98374926796E+03  0.90311921889E+03 0.  0.
         23    2    4    4    0    0 -0.29096409955E+03 -0.33060667448E+03  0.34239081394E+02  0.45129573955E+03  0.92383166211E+02 0.  0.
         23    2    4    4    0    0  0.13405573450E+03  0.32253959743E+03 -0.39124466386E+03  0.53245352841E+03  0.91823967694E+02 0.  0.
          2    1    3    3  502    0  0.48204621209E+02  0.67946062416E+00 -0.31224209174E+02  0.57437778606E+02  0.00000000000E+00 0. -1.
         -1    1    3    3    0  502  0.10870374384E+03  0.73876164263E+01  0.50482435808E+02  0.12008146038E+03  0.00000000000E+00 0.  1.
         13    1    5    5    0    0 -0.86687663680E+02 -0.74810962858E+02 -0.28466649610E+02  0.11799059852E+03  0.00000000000E+00 0.  1.
        -13    1    5    5    0    0 -0.20427643587E+03 -0.25579571163E+03  0.62705731004E+02  0.33330514103E+03  0.00000000000E+00 0. -1.
          2    1    6    6  503    0  0.70126074623E+02  0.19315197162E+03 -0.29297280713E+03  0.35785250620E+03  0.00000000000E+00 0. -1.
         -2    1    6    6    0  503  0.63929659882E+02  0.12938762582E+03 -0.98271856740E+02  0.17460102220E+03  0.00000000000E+00 0.  1.
<mgrwt>
<rscale>  0 0.11110676E+04</rscale>
<asrwt>0</asrwt>
<pdfrwt beam="1">  1        2 0.11530891E+00 0.11110676E+04</pdfrwt>
<pdfrwt beam="2">  1       -1 0.63347781E-01 0.11110676E+04</pdfrwt>
<totfact> 0.10748696E+02</totfact>
</mgrwt>
</event>
<event>
12    7  0.1572140E-007  0.1486448E+04  0.7818608E-02  0.8893515E-01
          2   -1    0    0  501    0  0.00000000000E+00  0.00000000000E+00  0.47913736554E+03  0.47913736554E+03  0.00000000000E+00 0. -1.
         -1   -1    0    0    0  501 -0.00000000000E+00 -0.00000000000E+00 -0.11528677781E+04  0.11528677781E+04  0.00000000000E+00 0.  1.
         24    2    1    2    0    0 -0.15640565042E+03  0.62401606179E+02  0.27416191400E+03  0.33154463317E+03  0.80002504712E+02 0.  0.
        254    2    1    2    0    0  0.15640565042E+03 -0.62401606179E+02 -0.94789232654E+03  0.13004605104E+04  0.87426597130E+03 0.  0.
         23    2    4    4    0    0  0.29488039434E+03 -0.40476510238E+03 -0.52706839476E+03  0.73289177922E+03  0.92412294763E+02 0.  0.
         23    2    4    4    0    0 -0.13847474393E+03  0.34236349620E+03 -0.42082393178E+03  0.56756873122E+03  0.93024001610E+02 0.  0.
          4    1    3    3  502    0 -0.65486312354E+02 -0.87701881507E+01  0.13811914127E+03  0.15310868849E+03  0.00000000000E+00 0. -1.
         -3    1    3    3    0  502 -0.90919338062E+02  0.71171794330E+02  0.13604277273E+03  0.17843594468E+03  0.00000000000E+00 0.  1.
         13    1    5    5    0    0  0.21570725862E+03 -0.31791170873E+03 -0.34598116375E+03  0.51701106530E+03  0.00000000000E+00 0.  1.
        -13    1    5    5    0    0  0.79173135719E+02 -0.86853393641E+02 -0.18108723102E+03  0.21588071392E+03  0.00000000000E+00 0. -1.
          3    1    6    6  503    0 -0.22925093295E+02  0.83176668030E+02 -0.47043909447E+02  0.98270277415E+02  0.00000000000E+00 0. -1.
         -3    1    6    6    0  503 -0.11554965063E+03  0.25918682817E+03 -0.37378002233E+03  0.46929845381E+03  0.00000000000E+00 0.  1.
<mgrwt>
<rscale>  0 0.14864482E+04</rscale>
<asrwt>0</asrwt>
<pdfrwt beam="1">  1        2 0.73713441E-01 0.14864482E+04</pdfrwt>
<pdfrwt beam="2">  1       -1 0.17736427E+00 0.14864482E+04</pdfrwt>
<totfact> 0.15555870E+01</totfact>
</mgrwt>
</event>
<event>
12    7  0.1572140E-007  0.1373651E+04  0.7818608E-02  0.8973115E-01
         -1   -1    0    0    0  501 -0.00000000000E+00  0.00000000000E+00  0.38785443353E+03  0.38785443353E+03  0.00000000000E+00 0.  1.
          2   -1    0    0  501    0  0.00000000000E+00 -0.00000000000E+00 -0.12162536995E+04  0.12162536995E+04  0.00000000000E+00 0. -1.
         24    2    1    2    0    0  0.24515474417E+03 -0.41714062286E+02  0.75613374771E+02  0.27207417108E+03  0.80411818439E+02 0.  0.
        254    2    1    2    0    0 -0.24515474417E+03  0.41714062286E+02 -0.90401264079E+03  0.13320339620E+04  0.94616843617E+03 0.  0.
         23    2    4    4    0    0 -0.33767691890E+03  0.51126257575E+02 -0.10670876651E+04  0.11243716910E+04  0.94318708295E+02 0.  0.
         23    2    4    4    0    0  0.92522174731E+02 -0.94121952891E+01  0.16307502429E+03  0.20766227101E+03  0.88776196235E+02 0.  0.
          4    1    3    3  502    0  0.10072199252E+03 -0.18969807397E+02 -0.94335366220E+01  0.10292601704E+03  0.00000000000E+00 0. -1.
         -3    1    3    3    0  502  0.14443275165E+03 -0.22744254889E+02  0.85046911393E+02  0.16914815404E+03  0.00000000000E+00 0.  1.
         13    1    5    5    0    0 -0.31993480653E+03  0.70934677221E+02 -0.98954719415E+03  0.10423980326E+04  0.00000000000E+00 0. -1.
        -13    1    5    5    0    0 -0.17742112375E+02 -0.19808419647E+02 -0.77540470929E+02  0.81973658405E+02  0.00000000000E+00 0.  1.
          3    1    6    6  503    0  0.95009537224E+02  0.15053274971E+02  0.15374839491E+03  0.18136146831E+03  0.00000000000E+00 0. -1.
         -3    1    6    6    0  503 -0.24873624926E+01 -0.24465470260E+02  0.93266293828E+01  0.26300802704E+02  0.00000000000E+00 0.  1.
<mgrwt>
<rscale>  0 0.13736512E+04</rscale>
<asrwt>0</asrwt>
<pdfrwt beam="1">  1        2 0.18711596E+00 0.13736512E+04</pdfrwt>
<pdfrwt beam="2">  1       -1 0.59669912E-01 0.13736512E+04</pdfrwt>
<totfact> 0.58635805E+01</totfact>
</mgrwt>
</event>
<event>
12    7  0.1572140E-007  0.2829364E+04  0.7818608E-02  0.8294210E-01
         -1   -1    0    0    0  501 -0.00000000000E+00  0.00000000000E+00  0.78179884346E+03  0.78179884346E+03  0.00000000000E+00 0.  1.
          2   -1    0    0  501    0  0.00000000000E+00 -0.00000000000E+00 -0.25598972229E+04  0.25598972229E+04  0.00000000000E+00 0. -1.
         24    2    1    2    0    0 -0.31614108776E+03 -0.98010851874E+03 -0.16767356110E+04  0.19692940152E+04  0.78222204048E+02 0.  0.
        254    2    1    2    0    0  0.31614108776E+03  0.98010851874E+03 -0.10136276847E+03  0.13724020512E+04  0.90147383956E+03 0.  0.
         23    2    4    4    0    0  0.49843757771E+03  0.64941850785E+03  0.23750864789E+03  0.85729477234E+03  0.91430583722E+02 0.  0.
         23    2    4    4    0    0 -0.18229648995E+03  0.33069001089E+03 -0.33887141635E+03  0.51510727885E+03  0.88959419710E+02 0.  0.
          2    1    3    3  502    0 -0.25162930136E+03 -0.75002680697E+03 -0.13458977672E+04  0.15611849078E+04  0.00000000000E+00 0. -1.
         -1    1    3    3    0  502 -0.64511786403E+02 -0.23008171178E+03 -0.33083784377E+03  0.40810910741E+03  0.00000000000E+00 0.  1.
         13    1    5    5    0    0  0.10654517267E+03  0.20602783009E+03  0.70445963025E+02  0.24240869270E+03  0.00000000000E+00 0. -1.
        -13    1    5    5    0    0  0.39189240505E+03  0.44339067777E+03  0.16706268486E+03  0.61488607964E+03  0.00000000000E+00 0.  1.
          1    1    6    6  503    0 -0.81185358969E+02  0.71008341057E+02 -0.11484415641E+03  0.15755134805E+03  0.00000000000E+00 0. -1.
         -1    1    6    6    0  503 -0.10111113098E+03  0.25968166983E+03 -0.22402725994E+03  0.35755593080E+03  0.00000000000E+00 0.  1.
<mgrwt>
<rscale>  0 0.28293637E+04</rscale>
<asrwt>0</asrwt>
<pdfrwt beam="1">  1        2 0.39383034E+00 0.28293637E+04</pdfrwt>
<pdfrwt beam="2">  1       -1 0.12027675E+00 0.28293637E+04</pdfrwt>
<totfact> 0.19509076E+00</totfact>
</mgrwt>
</event>
<event>
12    7  0.1572140E-007  0.1898219E+04  0.7818608E-02  0.8655743E-01
         -1   -1    0    0    0  501 -0.00000000000E+00  0.00000000000E+00  0.72095697094E+03  0.72095697094E+03  0.00000000000E+00 0.  1.
          2   -1    0    0  501    0  0.00000000000E+00 -0.00000000000E+00 -0.12494629465E+04  0.12494629465E+04  0.00000000000E+00 0. -1.
         24    2    1    2    0    0  0.36264945342E+02  0.55902134853E+03 -0.69605050973E+03  0.89706923160E+03  0.80167822791E+02 0.  0.
        254    2    1    2    0    0 -0.36264945342E+02 -0.55902134853E+03  0.16754453420E+03  0.10733506858E+04  0.90010583234E+03 0.  0.
         23    2    4    4    0    0 -0.43198530479E+03 -0.27889029179E+03 -0.67831073343E+02  0.52681537474E+03  0.92424488847E+02 0.  0.
         23    2    4    4    0    0  0.39572035945E+03 -0.28013105674E+03  0.23537560754E+03  0.54653531107E+03  0.90725728357E+02 0.  0.
          4    1    3    3  502    0  0.55349651083E+02  0.24027487235E+03 -0.29967337167E+03  0.38807180759E+03  0.00000000000E+00 0. -1.
         -3    1    3    3    0  502 -0.19084705741E+02  0.31874647617E+03 -0.39637713806E+03  0.50899742401E+03  0.00000000000E+00 0.  1.
         13    1    5    5    0    0 -0.10548211039E+03 -0.93149991203E+02  0.16912289894E+02  0.14173715823E+03  0.00000000000E+00 0. -1.
        -13    1    5    5    0    0 -0.32650319440E+03 -0.18574030059E+03 -0.84743363237E+02  0.38507821651E+03  0.00000000000E+00 0.  1.
          2    1    6    6  503    0  0.73146680572E+02 -0.97956378935E+02  0.69570503122E+02  0.14066251795E+03  0.00000000000E+00 0. -1.
         -2    1    6    6    0  503  0.32257367888E+03 -0.18217467780E+03  0.16580510442E+03  0.40587279312E+03  0.00000000000E+00 0.  1.
<mgrwt>
<rscale>  0 0.18982192E+04</rscale>
<asrwt>0</asrwt>
<pdfrwt beam="1">  1        2 0.19222507E+00 0.18982192E+04</pdfrwt>
<pdfrwt beam="2">  1       -1 0.11091646E+00 0.18982192E+04</pdfrwt>
<totfact> 0.14146293E+01</totfact>
</mgrwt>
</event>
<event>
12    7  0.1572140E-007  0.1606601E+04  0.7818608E-02  0.8816503E-01
         -1   -1    0    0    0  501 -0.00000000000E+00  0.00000000000E+00  0.10869728312E+04  0.10869728312E+04  0.00000000000E+00 0.  1.
          2   -1    0    0  501    0  0.00000000000E+00 -0.00000000000E+00 -0.59365979679E+03  0.59365979679E+03  0.00000000000E+00 0. -1.
         24    2    1    2    0    0 -0.54833594701E+03  0.41028644271E+01  0.15718734128E+03  0.57521392256E+03  0.73986837788E+02 0.  0.
        254    2    1    2    0    0  0.54833594701E+03 -0.41028644271E+01  0.33612569310E+03  0.11054187054E+04  0.89904443073E+03 0.  0.
         23    2    4    4    0    0  0.68113495163E+03  0.15414574616E+03  0.46673748074E+03  0.84467842492E+03  0.89061957130E+02 0.  0.
         23    2    4    4    0    0 -0.13279900462E+03 -0.15824861058E+03 -0.13061178764E+03  0.26074028049E+03  0.90817709848E+02 0.  0.
          2    1    3    3  502    0 -0.13730525414E+03 -0.17617755940E+02  0.12808780629E+02  0.13902223922E+03  0.00000000000E+00 0. -1.
         -1    1    3    3    0  502 -0.41103069288E+03  0.21720620367E+02  0.14437856066E+03  0.43619168334E+03  0.00000000000E+00 0.  1.
         13    1    5    5    0    0  0.39807470795E+03  0.46936579519E+02  0.25011612688E+03  0.47246649885E+03  0.00000000000E+00 0. -1.
        -13    1    5    5    0    0  0.28306024368E+03  0.10720916664E+03  0.21662135386E+03  0.37221192607E+03  0.00000000000E+00 0.  1.
          2    1    6    6  503    0 -0.43107221281E+02 -0.22268961042E+02  0.50096593684E+01  0.48777411160E+02  0.00000000000E+00 0. -1.
         -2    1    6    6    0  503 -0.89691783337E+02 -0.13597964954E+03 -0.13562144701E+03  0.21196286933E+03  0.00000000000E+00 0.  1.
<mgrwt>
<rscale>  0 0.16066015E+04</rscale>
<asrwt>0</asrwt>
<pdfrwt beam="1">  1        2 0.91332276E-01 0.16066015E+04</pdfrwt>
<pdfrwt beam="2">  1       -1 0.16722659E+00 0.16066015E+04</pdfrwt>
<totfact> 0.14190694E+01</totfact>
</mgrwt>
</event>
<event>
12    7  0.1572140E-007  0.1955702E+04  0.7818608E-02  0.8627616E-01
          2   -1    0    0  501    0  0.00000000000E+00  0.00000000000E+00  0.17575309404E+04  0.17575309404E+04  0.00000000000E+00 0. -1.
         -1   -1    0    0    0  501 -0.00000000000E+00 -0.00000000000E+00 -0.54405462774E+03  0.54405462774E+03  0.00000000000E+00 0.  1.
         24    2    1    2    0    0 -0.35011937025E+03 -0.43993102975E+03  0.11013257714E+04  0.12391556894E+04  0.80408230016E+02 0.  0.
        254    2    1    2    0    0  0.35011937025E+03  0.43993102975E+03  0.11215054118E+03  0.10624298787E+04  0.89445884134E+03 0.  0.
         23    2    4    4    0    0  0.35541212107E+03 -0.11527093500E+03 -0.18429912090E+03  0.42687045390E+03  0.92989538051E+02 0.  0.
         23    2    4    4    0    0 -0.52927508201E+01  0.55520196475E+03  0.29644966209E+03  0.63555942478E+03  0.88182455147E+02 0.  0.
          4    1    3    3  502    0 -0.23591622804E+03 -0.35217829459E+03  0.82919166407E+03  0.93125980994E+03  0.00000000000E+00 0. -1.
         -3    1    3    3    0  502 -0.11420314221E+03 -0.87752735158E+02  0.27213410737E+03  0.30789587950E+03  0.00000000000E+00 0.  1.
         13    1    5    5    0    0  0.33565375743E+03 -0.13004492467E+03 -0.17708591240E+03  0.40116648375E+03  0.00000000000E+00 0.  1.
        -13    1    5    5    0    0  0.19758363645E+02  0.14773989676E+02 -0.72132084999E+01  0.25703970155E+02  0.00000000000E+00 0. -1.
          4    1    6    6  503    0 -0.90076304168E+01  0.37825056589E+01  0.10694871837E+02  0.14485338739E+02  0.00000000000E+00 0. -1.
         -4    1    6    6    0  503  0.37148795967E+01  0.55141945909E+03  0.28575479025E+03  0.62107408604E+03  0.00000000000E+00 0.  1.
<mgrwt>
<rscale>  0 0.19557023E+04</rscale>
<asrwt>0</asrwt>
<pdfrwt beam="1">  1        2 0.27038937E+00 0.19557023E+04</pdfrwt>
<pdfrwt beam="2">  1       -1 0.83700713E-01 0.19557023E+04</pdfrwt>
<totfact> 0.13693805E+01</totfact>
</mgrwt>
</event>
<event>
12    7  0.1572140E-007  0.1228387E+04  0.7818608E-02  0.9088366E-01
          2   -1    0    0  501    0  0.00000000000E+00  0.00000000000E+00  0.12923448020E+04  0.12923448020E+04  0.00000000000E+00 0. -1.
         -1   -1    0    0    0  501 -0.00000000000E+00 -0.00000000000E+00 -0.29189840004E+03  0.29189840004E+03  0.00000000000E+00 0.  1.
         24    2    1    2    0    0  0.11439745245E+03 -0.18859206390E+03  0.43609753911E+03  0.49511606605E+03  0.79404732534E+02 0.  0.
        254    2    1    2    0    0 -0.11439745245E+03  0.18859206390E+03  0.56434886283E+03  0.10891271360E+04  0.90501631789E+03 0.  0.
         23    2    4    4    0    0  0.19569310139E+03  0.36120808405E+03  0.60616953145E+01  0.42150551140E+03  0.94143943389E+02 0.  0.
         23    2    4    4    0    0 -0.31009055384E+03 -0.17261602015E+03  0.55828716752E+03  0.66762162458E+03  0.89897887622E+02 0.  0.
          4    1    3    3  502    0  0.41219905629E+02 -0.36669782712E+02  0.52798791426E+02  0.76364035777E+02  0.00000000000E+00 0. -1.
         -3    1    3    3    0  502  0.73177546821E+02 -0.15192228119E+03  0.38329874769E+03  0.41875203028E+03  0.00000000000E+00 0.  1.
         13    1    5    5    0    0  0.10034576298E+03  0.10812927410E+03 -0.23775466106E+02  0.14942049677E+03  0.00000000000E+00 0.  1.
        -13    1    5    5    0    0  0.95347338411E+02  0.25307880995E+03  0.29837161421E+02  0.27208501463E+03  0.00000000000E+00 0. -1.
          2    1    6    6  503    0 -0.15402008323E+03 -0.13621176120E+03  0.30181354031E+03  0.36519480149E+03  0.00000000000E+00 0. -1.
         -2    1    6    6    0  503 -0.15607047061E+03 -0.36404258949E+02  0.25647362721E+03  0.30242682308E+03  0.00000000000E+00 0.  1.
<mgrwt>
<rscale>  0 0.12283866E+04</rscale>
<asrwt>0</asrwt>
<pdfrwt beam="1">  1        2 0.19882227E+00 0.12283866E+04</pdfrwt>
<pdfrwt beam="2">  1       -1 0.44907447E-01 0.12283866E+04</pdfrwt>
<totfact> 0.92144245E+01</totfact>
</mgrwt>
</event>
<event>
12    7  0.1572140E-007  0.1256397E+04  0.7818608E-02  0.9064876E-01
          2   -1    0    0  501    0  0.00000000000E+00  0.00000000000E+00  0.21561922300E+04  0.21561922300E+04  0.00000000000E+00 0. -1.
         -1   -1    0    0    0  501 -0.00000000000E+00 -0.00000000000E+00 -0.18302318948E+03  0.18302318948E+03  0.00000000000E+00 0.  1.
         24    2    1    2    0    0  0.14378666778E+03 -0.15271423928E+03  0.93153321498E+03  0.95994863033E+03  0.98747139454E+02 0.  0.
        254    2    1    2    0    0 -0.14378666778E+03  0.15271423928E+03  0.10416358255E+04  0.13792667891E+04  0.87941766973E+03 0.  0.
         23    2    4    4    0    0 -0.50005438550E+03  0.59975858168E+02  0.48181280724E+03  0.70302630573E+03  0.91928849191E+02 0.  0.
         23    2    4    4    0    0  0.35626771772E+03  0.92738381113E+02  0.55982301826E+03  0.67624048337E+03  0.91500194280E+02 0.  0.
          4    1    3    3  502    0  0.41282341400E+02 -0.26858091909E+02  0.42980458125E+03  0.43261711348E+03  0.00000000000E+00 0. -1.
         -3    1    3    3    0  502  0.10250432638E+03 -0.12585614737E+03  0.50172863373E+03  0.52733151685E+03  0.00000000000E+00 0.  1.
         13    1    5    5    0    0 -0.50040492001E+03  0.51467649513E+02  0.47702018865E+03  0.69325483287E+03  0.00000000000E+00 0.  1.
        -13    1    5    5    0    0  0.35053451350E+00  0.85082086547E+01  0.47926185882E+01  0.97714728618E+01  0.00000000000E+00 0. -1.
          4    1    6    6  503    0  0.13524722903E+03 -0.45338424551E+01  0.16461136615E+03  0.21309451085E+03  0.00000000000E+00 0. -1.
         -4    1    6    6    0  503  0.22102048868E+03  0.97272223568E+02  0.39521165211E+03  0.46314597252E+03  0.00000000000E+00 0.  1.
<mgrwt>
<rscale>  0 0.12563967E+04</rscale>
<asrwt>0</asrwt>
<pdfrwt beam="1">  1        2 0.33172186E+00 0.12563967E+04</pdfrwt>
<pdfrwt beam="2">  1       -1 0.28157415E-01 0.12563967E+04</pdfrwt>
<totfact> 0.69920244E+01</totfact>
</mgrwt>
</event>
<event>
12    7  0.1572140E-007  0.2301040E+04  0.7818608E-02  0.8477511E-01
          2   -1    0    0  501    0  0.00000000000E+00  0.00000000000E+00  0.19649412644E+04  0.19649412644E+04  0.00000000000E+00 0. -1.
         -1   -1    0    0    0  501 -0.00000000000E+00 -0.00000000000E+00 -0.67365682050E+03  0.67365682050E+03  0.00000000000E+00 0.  1.
         24    2    1    2    0    0 -0.94319228193E+03 -0.15681714047E+03  0.32942853615E+03  0.10146080921E+04  0.81872607141E+02 0.  0.
        254    2    1    2    0    0  0.94319228193E+03  0.15681714047E+03  0.96185590771E+03  0.16239899928E+04  0.89329357621E+03 0.  0.
         23    2    4    4    0    0  0.95955213083E+03 -0.12197953563E+03  0.89847729142E+03  0.13233114648E+04  0.90953234149E+02 0.  0.
         23    2    4    4    0    0 -0.16359848898E+02  0.27879667610E+03  0.63378616290E+02  0.30067852800E+03  0.91626944371E+02 0.  0.
          4    1    3    3  502    0 -0.30482612382E+02 -0.11416633161E+02 -0.23669508580E+01  0.32636354372E+02  0.00000000000E+00 0. -1.
         -3    1    3    3    0  502 -0.91270966955E+03 -0.14540050731E+03  0.33179548701E+03  0.98197173768E+03  0.00000000000E+00 0.  1.
         13    1    5    5    0    0  0.44975612244E+03 -0.80039407276E+02  0.47760418343E+03  0.66090289182E+03  0.00000000000E+00 0. -1.
        -13    1    5    5    0    0  0.50979600838E+03 -0.41940128356E+02  0.42087310799E+03  0.66240857298E+03  0.00000000000E+00 0.  1.
          4    1    6    6  503    0  0.23506463687E+02  0.15842353696E+03  0.67517613573E+02  0.17380793722E+03  0.00000000000E+00 0. -1.
         -4    1    6    6    0  503 -0.39866312585E+02  0.12037313914E+03 -0.41389972832E+01  0.12687059077E+03  0.00000000000E+00 0.  1.
<mgrwt>
<rscale>  0 0.23010398E+04</rscale>
<asrwt>0</asrwt>
<pdfrwt beam="1">  1        2 0.30229865E+00 0.23010398E+04</pdfrwt>
<pdfrwt beam="2">  1       -1 0.10363951E+00 0.23010398E+04</pdfrwt>
<totfact> 0.63273113E+00</totfact>
</mgrwt>
</event>
<event>
12    7  0.1572140E-007  0.2368048E+04  0.7818608E-02  0.8451564E-01
         -1   -1    0    0    0  501 -0.00000000000E+00  0.00000000000E+00  0.12479606077E+04  0.12479606077E+04  0.00000000000E+00 0.  1.
          2   -1    0    0  501    0  0.00000000000E+00 -0.00000000000E+00 -0.11233631729E+04  0.11233631729E+04  0.00000000000E+00 0. -1.
         24    2    1    2    0    0  0.22426718875E+03  0.94212649931E+03 -0.23044160933E+03  0.99879088699E+03  0.81128219376E+02 0.  0.
        254    2    1    2    0    0 -0.22426718875E+03 -0.94212649931E+03  0.35503904413E+03  0.13725328935E+04  0.90548092656E+03 0.  0.
         23    2    4    4    0    0 -0.27420461369E+03 -0.73634423239E+03 -0.16137694744E+03  0.80711130948E+03  0.89415591367E+02 0.  0.
         23    2    4    4    0    0  0.49937424934E+02 -0.20578226692E+03  0.51641599157E+03  0.56542158406E+03  0.90421256320E+02 0.  0.
          2    1    3    3  502    0  0.14924113588E+03  0.71173835789E+03 -0.20252629291E+03  0.75489158562E+03  0.00000000000E+00 0. -1.
         -1    1    3    3    0  502  0.75026052872E+02  0.23038814142E+03 -0.27915316418E+02  0.24389930137E+03  0.00000000000E+00 0.  1.
         13    1    5    5    0    0 -0.13422318317E+02 -0.13044253093E+03 -0.29890200187E+02  0.13449474551E+03  0.00000000000E+00 0. -1.
        -13    1    5    5    0    0 -0.26078229537E+03 -0.60590170147E+03 -0.13148674725E+03  0.67261656397E+03  0.00000000000E+00 0.  1.
          2    1    6    6  503    0 -0.45817411284E+01 -0.96058844050E+01  0.35834536402E+00  0.10648651481E+02  0.00000000000E+00 0. -1.
         -2    1    6    6    0  503  0.54519166063E+02 -0.19617638251E+03  0.51605764620E+03  0.55477293258E+03  0.00000000000E+00 0.  1.
<mgrwt>
<rscale>  0 0.23680481E+04</rscale>
<asrwt>0</asrwt>
<pdfrwt beam="1">  1        2 0.17282510E+00 0.23680481E+04</pdfrwt>
<pdfrwt beam="2">  1       -1 0.19199394E+00 0.23680481E+04</pdfrwt>
<totfact> 0.37064974E+00</totfact>
</mgrwt>
</event>
<event>
12    7  0.1572140E-007  0.2248477E+04  0.7818608E-02  0.8498518E-01
         -1   -1    0    0    0  501 -0.00000000000E+00  0.00000000000E+00  0.39557741151E+03  0.39557741151E+03  0.00000000000E+00 0.  1.
          2   -1    0    0  501    0  0.00000000000E+00 -0.00000000000E+00 -0.31951069179E+04  0.31951069179E+04  0.00000000000E+00 0. -1.
         24    2    1    2    0    0  0.99703737089E+02 -0.93411774312E+03 -0.10543084043E+04  0.14144449272E+04  0.81064463829E+02 0.  0.
        254    2    1    2    0    0 -0.99703737089E+02  0.93411774312E+03 -0.17452211021E+04  0.21762394023E+04  0.89872378830E+03 0.  0.
         23    2    4    4    0    0 -0.77595442599E+02  0.61766147097E+03 -0.17352510099E+04  0.18458063497E+04  0.91532879167E+02 0.  0.
         23    2    4    4    0    0 -0.22108294491E+02  0.31645627215E+03 -0.99700921985E+01  0.33043305255E+03  0.91941560840E+02 0.  0.
          2    1    3    3  502    0  0.14258702197E+02 -0.96323766336E+02 -0.75472405238E+02  0.12319765624E+03  0.00000000000E+00 0. -1.
         -1    1    3    3    0  502  0.85445034892E+02 -0.83779397678E+03 -0.97883599910E+03  0.12912472709E+04  0.00000000000E+00 0.  1.
         13    1    5    5    0    0 -0.36385297039E+02  0.33601033224E+03 -0.80769129353E+03  0.87555243067E+03  0.00000000000E+00 0. -1.
        -13    1    5    5    0    0 -0.41210145560E+02  0.28165113873E+03 -0.92755971634E+03  0.97025391904E+03  0.00000000000E+00 0.  1.
          1    1    6    6  503    0  0.16238527977E+01  0.54110009418E+02 -0.37092331936E+02  0.65622946487E+02  0.00000000000E+00 0. -1.
         -1    1    6    6    0  503 -0.23732147288E+02  0.26234626273E+03  0.27122239737E+02  0.26481010606E+03  0.00000000000E+00 0.  1.
<mgrwt>
<rscale>  0 0.22484769E+04</rscale>
<asrwt>0</asrwt>
<pdfrwt beam="1">  1        2 0.49155491E+00 0.22484769E+04</pdfrwt>
<pdfrwt beam="2">  1       -1 0.60858063E-01 0.22484769E+04</pdfrwt>
<totfact> 0.37114989E+00</totfact>
</mgrwt>
</event>
<event>
12    7  0.1572140E-007  0.1658094E+04  0.7818608E-02  0.8785632E-01
         -3   -1    0    0    0  501 -0.00000000000E+00  0.00000000000E+00  0.10997800867E+04  0.10997800867E+04  0.00000000000E+00 0.  1.
          4   -1    0    0  501    0  0.00000000000E+00 -0.00000000000E+00 -0.62496050346E+03  0.62496050346E+03  0.00000000000E+00 0. -1.
         24    2    1    2    0    0  0.49596034298E+03 -0.25957083382E+03  0.31581835053E+03  0.64712474166E+03  0.75336054877E+02 0.  0.
        254    2    1    2    0    0 -0.49596034298E+03  0.25957083382E+03  0.15900123275E+03  0.10776158485E+04  0.90698447915E+03 0.  0.
         23    2    4    4    0    0 -0.74437009578E+02  0.34454582844E+03 -0.27797691555E+03  0.45789225068E+03  0.90229991451E+02 0.  0.
         23    2    4    4    0    0 -0.42152333340E+03 -0.84974994626E+02  0.43697814830E+03  0.61972359785E+03  0.90580159697E+02 0.  0.
          2    1    3    3  502    0  0.30571867433E+03 -0.14220846728E+03  0.22766597300E+03  0.40684020359E+03  0.00000000000E+00 0. -1.
         -1    1    3    3    0  502  0.19024166865E+03 -0.11736236654E+03  0.88152377527E+02  0.24028453807E+03  0.00000000000E+00 0.  1.
         13    1    5    5    0    0 -0.21258350941E+02  0.30074058086E+02 -0.32952450798E+01  0.36976007013E+02  0.00000000000E+00 0. -1.
        -13    1    5    5    0    0 -0.53178658636E+02  0.31447177036E+03 -0.27468167047E+03  0.42091624366E+03  0.00000000000E+00 0.  1.
          3    1    6    6  503    0  0.37104606585E+01  0.36451140907E+00  0.11765108174E+02  0.12341724240E+02  0.00000000000E+00 0. -1.
         -3    1    6    6    0  503 -0.42523379406E+03 -0.85339506035E+02  0.42521304013E+03  0.60738187361E+03  0.00000000000E+00 0.  1.
<mgrwt>
<rscale>  0 0.16580942E+04</rscale>
<asrwt>0</asrwt>
<pdfrwt beam="1">  1        4 0.96147770E-01 0.16580942E+04</pdfrwt>
<pdfrwt beam="2">  1       -3 0.16919694E+00 0.16580942E+04</pdfrwt>
<totfact> 0.46398992E-01</totfact>
</mgrwt>
</event>
<event>
12    7  0.1572140E-007  0.1519409E+04  0.7818608E-02  0.8871648E-01
         -1   -1    0    0    0  501 -0.00000000000E+00  0.00000000000E+00  0.18505427796E+03  0.18505427796E+03  0.00000000000E+00 0.  1.
          2   -1    0    0  501    0  0.00000000000E+00 -0.00000000000E+00 -0.31188213139E+04  0.31188213139E+04  0.00000000000E+00 0. -1.
         24    2    1    2    0    0 -0.29093842303E+03  0.25861472576E+03 -0.31771879206E+03  0.50882242108E+03  0.80176573832E+02 0.  0.
        254    2    1    2    0    0  0.29093842303E+03 -0.25861472576E+03 -0.26160482438E+04  0.27950531707E+04  0.90392868679E+03 0.  0.
         23    2    4    4    0    0  0.34197134735E+03 -0.55157148266E+03 -0.20104143858E+04  0.21146883951E+04  0.94686339479E+02 0.  0.
         23    2    4    4    0    0 -0.51032924319E+02  0.29295675691E+03 -0.60563385806E+03  0.68036477565E+03  0.87611855014E+02 0.  0.
          4    1    3    3  502    0 -0.76050197696E+02  0.47088380500E+02 -0.36836831480E+02  0.96736240888E+02  0.00000000000E+00 0. -1.
         -3    1    3    3    0  502 -0.21488822533E+03  0.21152634526E+03 -0.28088196058E+03  0.41208618019E+03  0.00000000000E+00 0.  1.
         13    1    5    5    0    0  0.15863010551E+03 -0.34173961750E+03 -0.11170307406E+04  0.11788584104E+04  0.00000000000E+00 0.  1.
        -13    1    5    5    0    0  0.18334124184E+03 -0.20983186516E+03 -0.89338364521E+03  0.93582998463E+03  0.00000000000E+00 0. -1.
          2    1    6    6  503    0  0.23805268201E+02  0.62589870775E+02 -0.11163665156E+03  0.13018035447E+03  0.00000000000E+00 0. -1.
         -2    1    6    6    0  503 -0.74838192520E+02  0.23036688613E+03 -0.49399720650E+03  0.55018442118E+03  0.00000000000E+00 0.  1.
<mgrwt>
<rscale>  0 0.15194094E+04</rscale>
<asrwt>0</asrwt>
<pdfrwt beam="1">  1        2 0.47981859E+00 0.15194094E+04</pdfrwt>
<pdfrwt beam="2">  1       -1 0.28469893E-01 0.15194094E+04</pdfrwt>
<totfact> 0.18135456E+01</totfact>
</mgrwt>
</event>
<event>
12    7  0.1572140E-007  0.1749594E+04  0.7818608E-02  0.8733574E-01
          2   -1    0    0  501    0  0.00000000000E+00  0.00000000000E+00  0.62682006399E+03  0.62682006399E+03  0.00000000000E+00 0. -1.
         -1   -1    0    0    0  501 -0.00000000000E+00 -0.00000000000E+00 -0.12208758486E+04  0.12208758486E+04  0.00000000000E+00 0.  1.
         24    2    1    2    0    0 -0.62257692566E+03 -0.12183271687E+03 -0.27605208890E+03  0.69653268320E+03  0.80670835592E+02 0.  0.
        254    2    1    2    0    0  0.62257692566E+03  0.12183271687E+03 -0.31800369568E+03  0.11511632294E+04  0.90642439889E+03 0.  0.
         23    2    4    4    0    0  0.59147995453E+03  0.44688277495E+03 -0.31586760056E+03  0.81105247865E+03  0.92092512594E+02 0.  0.
         23    2    4    4    0    0  0.31096971126E+02 -0.32505005808E+03 -0.21360951187E+01  0.34011075072E+03  0.95111502884E+02 0.  0.
          4    1    3    3  502    0 -0.46108288125E+02 -0.25955940383E+02 -0.39742299369E+02  0.66175036337E+02  0.00000000000E+00 0. -1.
         -3    1    3    3    0  502 -0.57646863753E+03 -0.95876776491E+02 -0.23630978953E+03  0.63035764686E+03  0.00000000000E+00 0.  1.
         13    1    5    5    0    0  0.28710436709E+03  0.20027520355E+03 -0.10139433899E+03  0.36444462780E+03  0.00000000000E+00 0.  1.
        -13    1    5    5    0    0  0.30437558745E+03  0.24660757140E+03 -0.21447326157E+03  0.44660785084E+03  0.00000000000E+00 0. -1.
          4    1    6    6  503    0  0.19443116262E+02 -0.50630478709E+02 -0.33361317972E+02  0.63674623525E+02  0.00000000000E+00 0. -1.
         -4    1    6    6    0  503  0.11653854864E+02 -0.27441957937E+03  0.31225222853E+02  0.27643612719E+03  0.00000000000E+00 0.  1.
<mgrwt>
<rscale>  0 0.17495936E+04</rscale>
<asrwt>0</asrwt>
<pdfrwt beam="1">  1        2 0.96433856E-01 0.17495936E+04</pdfrwt>
<pdfrwt beam="2">  1       -1 0.18782705E+00 0.17495936E+04</pdfrwt>
<totfact> 0.93166081E+00</totfact>
</mgrwt>
</event>
<event>
12    7  0.1572140E-007  0.1597681E+04  0.7818608E-02  0.8821974E-01
         -1   -1    0    0    0  501 -0.00000000000E+00  0.00000000000E+00  0.35676826497E+03  0.35676826497E+03  0.00000000000E+00 0.  1.
          2   -1    0    0  501    0  0.00000000000E+00 -0.00000000000E+00 -0.17886858070E+04  0.17886858070E+04  0.00000000000E+00 0. -1.
         24    2    1    2    0    0  0.51980327711E+03 -0.11238541600E+03 -0.63445906583E+03  0.83189342932E+03  0.81746210379E+02 0.  0.
        254    2    1    2    0    0 -0.51980327711E+03  0.11238541600E+03 -0.79745847617E+03  0.13135606426E+04  0.89815121888E+03 0.  0.
         23    2    4    4    0    0  0.18092640960E+03 -0.15923915368E+03 -0.34875554906E+03  0.43354863976E+03  0.90788304745E+02 0.  0.
         23    2    4    4    0    0 -0.70072968671E+03  0.27162456968E+03 -0.44870292711E+03  0.88001200285E+03  0.91020918878E+02 0.  0.
          4    1    3    3  502    0  0.38559077881E+03 -0.10913174594E+03 -0.51199949849E+03  0.65017956991E+03  0.00000000000E+00 0. -1.
         -3    1    3    3    0  502  0.13421249830E+03 -0.32536700525E+01 -0.12245956734E+03  0.18171385941E+03  0.00000000000E+00 0.  1.
         13    1    5    5    0    0  0.34609302506E+02 -0.72169057228E+02 -0.67171290810E+02  0.10448999450E+03  0.00000000000E+00 0.  1.
        -13    1    5    5    0    0  0.14631710709E+03 -0.87070096452E+02 -0.28158425825E+03  0.32905864526E+03  0.00000000000E+00 0. -1.
          2    1    6    6  503    0 -0.32886366633E+03  0.14061212831E+03 -0.16268738970E+03  0.39292527079E+03  0.00000000000E+00 0. -1.
         -2    1    6    6    0  503 -0.37186602038E+03  0.13101244137E+03 -0.28601553741E+03  0.48708673206E+03  0.00000000000E+00 0.  1.
<mgrwt>
<rscale>  0 0.15976812E+04</rscale>
<asrwt>0</asrwt>
<pdfrwt beam="1">  1        2 0.27518243E+00 0.15976812E+04</pdfrwt>
<pdfrwt beam="2">  1       -1 0.54887425E-01 0.15976812E+04</pdfrwt>
<totfact> 0.32083967E+01</totfact>
</mgrwt>
</event>
<event>
12    7  0.1572140E-007  0.1735020E+04  0.7818608E-02  0.8741640E-01
          2   -1    0    0  501    0  0.00000000000E+00  0.00000000000E+00  0.14353389036E+04  0.14353389036E+04  0.00000000000E+00 0. -1.
         -1   -1    0    0    0  501 -0.00000000000E+00 -0.00000000000E+00 -0.52431751923E+03  0.52431751923E+03  0.00000000000E+00 0.  1.
         24    2    1    2    0    0 -0.27581416038E+03 -0.42844690000E+03 -0.73393617780E+02  0.52092736474E+03  0.79614690965E+02 0.  0.
        254    2    1    2    0    0  0.27581416038E+03  0.42844690000E+03  0.98441500216E+03  0.14387290581E+04  0.91718493715E+03 0.  0.
         23    2    4    4    0    0  0.49467582466E+03  0.57925693105E+03  0.71711664093E+03  0.10501712408E+04  0.91436286785E+02 0.  0.
         23    2    4    4    0    0 -0.21886166428E+03 -0.15081003104E+03  0.26729836122E+03  0.38855781733E+03  0.94258527164E+02 0.  0.
          4    1    3    3  502    0 -0.26732104137E+03 -0.38041682759E+03 -0.79752834732E+02  0.47173935232E+03  0.00000000000E+00 0. -1.
         -3    1    3    3    0  502 -0.84931190110E+01 -0.48030072411E+02  0.63592169519E+01  0.49188012427E+02  0.00000000000E+00 0.  1.
         13    1    5    5    0    0  0.15636465218E+03  0.14648380241E+03  0.15681474327E+03  0.26551510791E+03  0.00000000000E+00 0. -1.
        -13    1    5    5    0    0  0.33831117248E+03  0.43277312864E+03  0.56030189766E+03  0.78465613285E+03  0.00000000000E+00 0.  1.
          4    1    6    6  503    0 -0.10122849291E+02 -0.12381546553E+02  0.63998355840E+02  0.65966387828E+02  0.00000000000E+00 0. -1.
         -4    1    6    6    0  503 -0.20873881499E+03 -0.13842848449E+03  0.20330000538E+03  0.32259142951E+03  0.00000000000E+00 0.  1.
<mgrwt>
<rscale>  0 0.17350197E+04</rscale>
<asrwt>0</asrwt>
<pdfrwt beam="1">  1        2 0.22082137E+00 0.17350197E+04</pdfrwt>
<pdfrwt beam="2">  1       -1 0.80664235E-01 0.17350197E+04</pdfrwt>
<totfact> 0.22894496E+01</totfact>
</mgrwt>
</event>
<event>
12    7  0.1572140E-007  0.3469144E+04  0.7818608E-02  0.8121142E-01
         -1   -1    0    0    0  501 -0.00000000000E+00  0.00000000000E+00  0.80608430076E+03  0.80608430076E+03  0.00000000000E+00 0.  1.
          2   -1    0    0  501    0  0.00000000000E+00 -0.00000000000E+00 -0.37325372683E+04  0.37325372683E+04  0.00000000000E+00 0. -1.
         24    2    1    2    0    0 -0.14209205024E+03  0.14478575552E+04 -0.22794920600E+04  0.27053750167E+04  0.80549852551E+02 0.  0.
        254    2    1    2    0    0  0.14209205024E+03 -0.14478575552E+04 -0.64696090755E+03  0.18332465523E+04  0.90870944478E+03 0.  0.
         23    2    4    4    0    0  0.47405227954E+03 -0.45291940031E+03 -0.27124524495E+03  0.71541249892E+03  0.91539684269E+02 0.  0.
         23    2    4    4    0    0 -0.33196022929E+03 -0.99493815484E+03 -0.37571566260E+03  0.11178340534E+04  0.91055950248E+02 0.  0.
          2    1    3    3  502    0 -0.24398076247E+02  0.25243590592E+03 -0.34284206858E+03  0.42645027460E+03  0.00000000000E+00 0. -1.
         -1    1    3    3    0  502 -0.11769397400E+03  0.11954216492E+04 -0.19366499914E+04  0.22789247421E+04  0.00000000000E+00 0.  1.
         13    1    5    5    0    0  0.60460126187E+02 -0.65646905578E+02 -0.72435787929E+02  0.11494297040E+03  0.00000000000E+00 0.  1.
        -13    1    5    5    0    0  0.41359215335E+03 -0.38727249473E+03 -0.19880945702E+03  0.60046952853E+03  0.00000000000E+00 0. -1.
          1    1    6    6  503    0 -0.29514772241E+03 -0.77641314316E+03 -0.28137181992E+03  0.87698326550E+03  0.00000000000E+00 0. -1.
         -1    1    6    6    0  503 -0.36812506887E+02 -0.21852501168E+03 -0.94343842674E+02  0.24085078792E+03  0.00000000000E+00 0.  1.
<mgrwt>
<rscale>  0 0.34691438E+04</rscale>
<asrwt>0</asrwt>
<pdfrwt beam="1">  1        2 0.57423651E+00 0.34691438E+04</pdfrwt>
<pdfrwt beam="2">  1       -1 0.12401297E+00 0.34691438E+04</pdfrwt>
<totfact> 0.29406806E-01</totfact>
</mgrwt>
</event>
<event>
12    7  0.1572140E-007  0.1500670E+04  0.7818608E-02  0.8884008E-01
         -1   -1    0    0    0  501 -0.00000000000E+00  0.00000000000E+00  0.10864404487E+04  0.10864404487E+04  0.00000000000E+00 0.  1.
          2   -1    0    0  501    0  0.00000000000E+00 -0.00000000000E+00 -0.51820834784E+03  0.51820834784E+03  0.00000000000E+00 0. -1.
         24    2    1    2    0    0 -0.89776383198E+02  0.46257780857E+03  0.10467147587E+03  0.48902438741E+03  0.78426434704E+02 0.  0.
        254    2    1    2    0    0  0.89776383198E+02 -0.46257780857E+03  0.46356062496E+03  0.11156244091E+04  0.89871649657E+03 0.  0.
         23    2    4    4    0    0  0.66910492307E+02  0.25866770324E+03  0.18672332936E+03  0.33844426404E+03  0.91065489917E+02 0.  0.
         23    2    4    4    0    0  0.22865890890E+02 -0.72124551181E+03  0.27683729561E+03  0.77718014506E+03  0.81560728082E+02 0.  0.
          2    1    3    3  502    0 -0.90044509814E+02  0.36575161815E+03  0.10892095288E+03  0.39210462112E+03  0.00000000000E+00 0. -1.
         -1    1    3    3    0  502  0.26812661655E+00  0.96826190423E+02 -0.42494770089E+01  0.96919766294E+02  0.00000000000E+00 0.  1.
         13    1    5    5    0    0  0.76861548971E+02  0.25006323747E+03  0.15494695426E+03  0.30405242818E+03  0.00000000000E+00 0.  1.
        -13    1    5    5    0    0 -0.99510566632E+01  0.86044657711E+01  0.31776375094E+02  0.34391835863E+02  0.00000000000E+00 0. -1.
          2    1    6    6  503    0  0.41225226927E+02 -0.18087215726E+03  0.72162316783E+02  0.19905189416E+03  0.00000000000E+00 0. -1.
         -2    1    6    6    0  503 -0.18359336037E+02 -0.54037335456E+03  0.20467497882E+03  0.57812825090E+03  0.00000000000E+00 0.  1.
<mgrwt>
<rscale>  0 0.15006699E+04</rscale>
<asrwt>0</asrwt>
<pdfrwt beam="1">  1        2 0.79724361E-01 0.15006699E+04</pdfrwt>
<pdfrwt beam="2">  1       -1 0.16714468E+00 0.15006699E+04</pdfrwt>
<totfact> 0.16847983E+01</totfact>
</mgrwt>
</event>
<event>
12    7  0.1572140E-007  0.1639363E+04  0.7818608E-02  0.8796724E-01
          2   -1    0    0  501    0  0.00000000000E+00  0.00000000000E+00  0.44047082436E+03  0.44047082436E+03  0.00000000000E+00 0. -1.
         -1   -1    0    0    0  501 -0.00000000000E+00 -0.00000000000E+00 -0.15253619114E+04  0.15253619114E+04  0.00000000000E+00 0.  1.
         24    2    1    2    0    0 -0.45520630529E+03  0.30081471475E+03 -0.58476484662E+03  0.80417315483E+03  0.83918198982E+02 0.  0.
        254    2    1    2    0    0  0.45520630529E+03 -0.30081471475E+03 -0.50012624041E+03  0.11616595809E+04  0.89533482710E+03 0.  0.
         23    2    4    4    0    0  0.12246649426E+03 -0.39431422742E+03  0.12558567246E+03  0.44137871959E+03  0.92529243059E+02 0.  0.
         23    2    4    4    0    0  0.33273981103E+03  0.93499512670E+02 -0.62571191286E+03  0.72028086133E+03  0.88493957920E+02 0.  0.
          4    1    3    3  502    0 -0.93880097719E+02  0.25227708227E+02 -0.91681728942E+02  0.13362428459E+03  0.00000000000E+00 0. -1.
         -3    1    3    3    0  502 -0.36132620757E+03  0.27558700652E+03 -0.49308311768E+03  0.67054887024E+03  0.00000000000E+00 0.  1.
         13    1    5    5    0    0  0.39818031925E+02 -0.70296402383E+02 -0.82234132126E+01  0.81207662072E+02  0.00000000000E+00 0. -1.
        -13    1    5    5    0    0  0.82648462334E+02 -0.32401782504E+03  0.13380908567E+03  0.36017105752E+03  0.00000000000E+00 0.  1.
          1    1    6    6  503    0  0.36493358123E+02  0.70394640056E-01 -0.13222232140E+03  0.13716600314E+03  0.00000000000E+00 0. -1.
         -1    1    6    6    0  503  0.29624645290E+03  0.93429118029E+02 -0.49348959146E+03  0.58311485819E+03  0.00000000000E+00 0.  1.
<mgrwt>
<rscale>  0 0.16393626E+04</rscale>
<asrwt>0</asrwt>
<pdfrwt beam="1">  1        2 0.67764742E-01 0.16393626E+04</pdfrwt>
<pdfrwt beam="2">  1       -1 0.23467106E+00 0.16393626E+04</pdfrwt>
<totfact> 0.68493000E+00</totfact>
</mgrwt>
</event>
<event>
12    7  0.1572140E-007  0.1640397E+04  0.7818608E-02  0.8796108E-01
         -1   -1    0    0    0  501 -0.00000000000E+00  0.00000000000E+00  0.27849651410E+03  0.27849651410E+03  0.00000000000E+00 0.  1.
          2   -1    0    0  501    0  0.00000000000E+00 -0.00000000000E+00 -0.24155617846E+04  0.24155617846E+04  0.00000000000E+00 0. -1.
         24    2    1    2    0    0  0.16478061141E+03 -0.50382042051E+03 -0.40845252393E+03  0.67427798161E+03  0.82641794265E+02 0.  0.
        254    2    1    2    0    0 -0.16478061141E+03  0.50382042051E+03 -0.17286127465E+04  0.20197803171E+04  0.90023487806E+03 0.  0.
         23    2    4    4    0    0  0.20173532181E+03  0.58398101109E+03 -0.80310572386E+03  0.10174116527E+04  0.91742607756E+02 0.  0.
         23    2    4    4    0    0 -0.36651593322E+03 -0.80160590578E+02 -0.92550702269E+03  0.10023686643E+04  0.86139657371E+02 0.  0.
          4    1    3    3  502    0  0.14802322528E+02 -0.11151054345E+03 -0.54378164053E+02  0.12494276601E+03  0.00000000000E+00 0. -1.
         -3    1    3    3    0  502  0.14997828888E+03 -0.39230987706E+03 -0.35407435987E+03  0.54933521560E+03  0.00000000000E+00 0.  1.
         13    1    5    5    0    0  0.64716955404E+02  0.32643098095E+03 -0.41867098822E+03  0.53481853560E+03  0.00000000000E+00 0.  1.
        -13    1    5    5    0    0  0.13701836641E+03  0.25755003014E+03 -0.38443473564E+03  0.48259311715E+03  0.00000000000E+00 0. -1.
          1    1    6    6  503    0 -0.33475923482E+03 -0.46834920915E+02 -0.79078135801E+03  0.85999558794E+03  0.00000000000E+00 0. -1.
         -1    1    6    6    0  503 -0.31756698406E+02 -0.33325669663E+02 -0.13472566468E+03  0.14237307637E+03  0.00000000000E+00 0.  1.
<mgrwt>
<rscale>  0 0.16403969E+04</rscale>
<asrwt>0</asrwt>
<pdfrwt beam="1">  1        2 0.37162490E+00 0.16403969E+04</pdfrwt>
<pdfrwt beam="2">  1       -1 0.42845616E-01 0.16403969E+04</pdfrwt>
<totfact> 0.22785028E+01</totfact>
</mgrwt>
</event>
<event>
12    7  0.1572140E-007  0.1343734E+04  0.7818608E-02  0.8995585E-01
          2   -1    0    0  501    0  0.00000000000E+00  0.00000000000E+00  0.14941629019E+04  0.14941629019E+04  0.00000000000E+00 0. -1.
         -1   -1    0    0    0  501 -0.00000000000E+00 -0.00000000000E+00 -0.30211245388E+03  0.30211245388E+03  0.00000000000E+00 0.  1.
         24    2    1    2    0    0  0.27473321889E+03 -0.21476441480E+03  0.25026724401E+03  0.43708861293E+03  0.82526763578E+02 0.  0.
        254    2    1    2    0    0 -0.27473321889E+03  0.21476441480E+03  0.94178320396E+03  0.13591867428E+04  0.91587712229E+03 0.  0.
         23    2    4    4    0    0 -0.15266984277E+03  0.31215922656E+03  0.10754798308E+04  0.11335068720E+04  0.86194539460E+02 0.  0.
         23    2    4    4    0    0 -0.12206337612E+03 -0.97394811764E+02 -0.13369662688E+03  0.22567987084E+03  0.93120346409E+02 0.  0.
          2    1    3    3  502    0  0.26331352877E+03 -0.20136223798E+03  0.20809354608E+03  0.39138687924E+03  0.00000000000E+00 0. -1.
         -1    1    3    3    0  502  0.11419690122E+02 -0.13402176814E+02  0.42173697930E+02  0.45701733697E+02  0.00000000000E+00 0.  1.
         13    1    5    5    0    0 -0.26507708658E+02  0.13666371994E+03  0.35552317806E+03  0.38180670647E+03  0.00000000000E+00 0. -1.
        -13    1    5    5    0    0 -0.12616213411E+03  0.17549550662E+03  0.71995665278E+03  0.75170016550E+03  0.00000000000E+00 0.  1.
          3    1    6    6  503    0 -0.72737011917E+02 -0.72626775482E+02 -0.28150823895E+02  0.10657293421E+03  0.00000000000E+00 0. -1.
         -3    1    6    6    0  503 -0.49326364206E+02 -0.24768036282E+02 -0.10554580298E+03  0.11910693663E+03  0.00000000000E+00 0.  1.
<mgrwt>
<rscale>  0 0.13437339E+04</rscale>
<asrwt>0</asrwt>
<pdfrwt beam="1">  1        2 0.22987121E+00 0.13437339E+04</pdfrwt>
<pdfrwt beam="2">  1       -1 0.46478840E-01 0.13437339E+04</pdfrwt>
<totfact> 0.65633434E+01</totfact>
</mgrwt>
</event>
<event>
12    7  0.1572140E-007  0.4168456E+04  0.7818608E-02  0.7971400E-01
          2   -1    0    0  501    0  0.00000000000E+00  0.00000000000E+00  0.24847277695E+04  0.24847277695E+04  0.00000000000E+00 0. -1.
         -1   -1    0    0    0  501 -0.00000000000E+00 -0.00000000000E+00 -0.17482824032E+04  0.17482824032E+04  0.00000000000E+00 0.  1.
         24    2    1    2    0    0 -0.19842152883E+04  0.14187076936E+03  0.32789024031E+03  0.20179151581E+04  0.85040871809E+02 0.  0.
        254    2    1    2    0    0  0.19842152883E+04 -0.14187076936E+03  0.40855512607E+03  0.22150950146E+04  0.88458521762E+03 0.  0.
         23    2    4    4    0    0  0.48830392446E+03  0.32988868130E+03  0.20413315382E+03  0.63062555490E+03  0.93546679815E+02 0.  0.
         23    2    4    4    0    0  0.14959113638E+04 -0.47175945067E+03  0.20442197225E+03  0.15844694597E+04  0.91909402646E+02 0.  0.
          2    1    3    3  502    0 -0.51752544341E+03  0.43367501029E+02  0.48425294994E+02  0.52159211451E+03  0.00000000000E+00 0. -1.
         -1    1    3    3    0  502 -0.14666898449E+04  0.98503268334E+02  0.27946494531E+03  0.14963230436E+04  0.00000000000E+00 0.  1.
         13    1    5    5    0    0  0.16229236971E+02  0.25646473976E+02 -0.60794172669E+01  0.30953013978E+02  0.00000000000E+00 0.  1.
        -13    1    5    5    0    0  0.47207468749E+03  0.30424220733E+03  0.21021257109E+03  0.59967254092E+03  0.00000000000E+00 0. -1.
          3    1    6    6  503    0  0.93745478824E+03 -0.33820215381E+03  0.11189099762E+03  0.10028568054E+04  0.00000000000E+00 0. -1.
         -3    1    6    6    0  503  0.55845657560E+03 -0.13355729686E+03  0.92530974637E+02  0.58161265431E+03  0.00000000000E+00 0.  1.
<mgrwt>
<rscale>  0 0.41684558E+04</rscale>
<asrwt>0</asrwt>
<pdfrwt beam="1">  1        2 0.38226581E+00 0.41684558E+04</pdfrwt>
<pdfrwt beam="2">  1       -1 0.26896652E+00 0.41684558E+04</pdfrwt>
<totfact> 0.16493150E-01</totfact>
</mgrwt>
</event>
<event>
12    7  0.1572140E-007  0.2151206E+04  0.7818608E-02  0.8539016E-01
         -1   -1    0    0    0  501 -0.00000000000E+00  0.00000000000E+00  0.40049733249E+03  0.40049733249E+03  0.00000000000E+00 0.  1.
          2   -1    0    0  501    0  0.00000000000E+00 -0.00000000000E+00 -0.28887132051E+04  0.28887132051E+04  0.00000000000E+00 0. -1.
         24    2    1    2    0    0 -0.77167426771E+03  0.21012454027E+03 -0.44199476645E+03  0.91686551441E+03  0.75163156352E+02 0.  0.
        254    2    1    2    0    0  0.77167426771E+03 -0.21012454027E+03 -0.20462211062E+04  0.23723450232E+04  0.89519081530E+03 0.  0.
         23    2    4    4    0    0  0.87035921299E+03  0.11645463866E+02 -0.11852177962E+04  0.14733115275E+04  0.90801190716E+02 0.  0.
         23    2    4    4    0    0 -0.98684945275E+02 -0.22177000414E+03 -0.86100330996E+03  0.89903349565E+03  0.89520240080E+02 0.  0.
          4    1    3    3  502    0 -0.56658085612E+03  0.11994036064E+03 -0.32555412236E+03  0.66436815337E+03  0.00000000000E+00 0. -1.
         -3    1    3    3    0  502 -0.20509341160E+03  0.90184179632E+02 -0.11644064409E+03  0.25249736104E+03  0.00000000000E+00 0.  1.
         13    1    5    5    0    0  0.32019485822E+03 -0.21679563541E+02 -0.37786838625E+03  0.49576130147E+03  0.00000000000E+00 0. -1.
        -13    1    5    5    0    0  0.55016435477E+03  0.33325027407E+02 -0.80734940997E+03  0.97755022607E+03  0.00000000000E+00 0.  1.
          1    1    6    6  503    0 -0.18853318799E+02 -0.16266669234E+02 -0.21519875807E+03  0.21663461780E+03  0.00000000000E+00 0. -1.
         -1    1    6    6    0  503 -0.79831626476E+02 -0.20550333491E+03 -0.64580455189E+03  0.68239887785E+03  0.00000000000E+00 0.  1.
<mgrwt>
<rscale>  0 0.21512061E+04</rscale>
<asrwt>0</asrwt>
<pdfrwt beam="1">  1        2 0.44441742E+00 0.21512061E+04</pdfrwt>
<pdfrwt beam="2">  1       -1 0.61614974E-01 0.21512061E+04</pdfrwt>
<totfact> 0.57020616E+00</totfact>
</mgrwt>
</event>
<event>
12    7  0.1572140E-007  0.2471590E+04  0.7818608E-02  0.8413177E-01
          2   -1    0    0  501    0  0.00000000000E+00  0.00000000000E+00  0.12958988645E+04  0.12958988645E+04  0.00000000000E+00 0. -1.
         -1   -1    0    0    0  501 -0.00000000000E+00 -0.00000000000E+00 -0.11784782816E+04  0.11784782816E+04  0.00000000000E+00 0.  1.
         24    2    1    2    0    0 -0.18083582866E+02 -0.88989295820E+02  0.11183993289E+04  0.11249599326E+04  0.80446753690E+02 0.  0.
        254    2    1    2    0    0  0.18083582866E+02  0.88989295820E+02 -0.10009787460E+04  0.13494172136E+04  0.90040116371E+03 0.  0.
         23    2    4    4    0    0 -0.22875776068E+03 -0.63014088942E+02  0.46968471055E+02  0.25861884561E+03  0.91524759242E+02 0.  0.
         23    2    4    4    0    0  0.24684134355E+03  0.15200338476E+03 -0.10479472170E+04  0.10907983679E+04  0.87246959702E+02 0.  0.
          4    1    3    3  502    0  0.30792956814E+02 -0.34123348566E+02  0.33839464070E+03  0.34150189159E+03  0.00000000000E+00 0. -1.
         -3    1    3    3    0  502 -0.48876539681E+02 -0.54865947253E+02  0.78000468823E+03  0.78345804097E+03  0.00000000000E+00 0.  1.
         13    1    5    5    0    0 -0.16107799232E+03 -0.14026751588E+02 -0.21496769194E+01  0.16170185677E+03  0.00000000000E+00 0.  1.
        -13    1    5    5    0    0 -0.67679768358E+02 -0.48987337354E+02  0.49118147974E+02  0.96916988844E+02  0.00000000000E+00 0. -1.
          1    1    6    6  503    0  0.10195630533E+03  0.91760005931E+02 -0.61998772058E+03  0.63498012611E+03  0.00000000000E+00 0. -1.
         -1    1    6    6    0  503  0.14488503821E+03  0.60243378831E+02 -0.42795949645E+03  0.45581824184E+03  0.00000000000E+00 0.  1.
<mgrwt>
<rscale>  0 0.24715895E+04</rscale>
<asrwt>0</asrwt>
<pdfrwt beam="1">  1        2 0.19936906E+00 0.24715895E+04</pdfrwt>
<pdfrwt beam="2">  1       -1 0.18130435E+00 0.24715895E+04</pdfrwt>
<totfact> 0.34489464E+00</totfact>
</mgrwt>
</event>
<event>
12    7  0.1572140E-007  0.1425396E+04  0.7818608E-02  0.8935638E-01
          2   -1    0    0  501    0  0.00000000000E+00  0.00000000000E+00  0.18092359909E+04  0.18092359909E+04  0.00000000000E+00 0. -1.
         -1   -1    0    0    0  501 -0.00000000000E+00 -0.00000000000E+00 -0.28074762411E+03  0.28074762411E+03  0.00000000000E+00 0.  1.
         24    2    1    2    0    0 -0.19697212073E+03 -0.28272967614E+03  0.82570706957E+03  0.89825540082E+03  0.79602225175E+02 0.  0.
        254    2    1    2    0    0  0.19697212073E+03  0.28272967614E+03  0.70278129717E+03  0.11917282141E+04  0.89865482730E+03 0.  0.
         23    2    4    4    0    0 -0.32993040529E+02  0.19706135388E+03 -0.17236260897E+03  0.27810092494E+03  0.87803972388E+02 0.  0.
         23    2    4    4    0    0  0.22996516126E+03  0.85668322261E+02  0.87514390614E+03  0.91362728920E+03  0.92816648760E+02 0.  0.
          4    1    3    3  502    0 -0.17244913695E+03 -0.28012571745E+03  0.76456301474E+03  0.83232549277E+03  0.00000000000E+00 0. -1.
         -3    1    3    3    0  502 -0.24522983777E+02 -0.26039586904E+01  0.61144054829E+02  0.65929908048E+02  0.00000000000E+00 0.  1.
         13    1    5    5    0    0  0.18172053565E+02  0.14169925385E+03 -0.11232092440E+03  0.18172752167E+03  0.00000000000E+00 0. -1.
        -13    1    5    5    0    0 -0.51165094094E+02  0.55362100027E+02 -0.60041684574E+02  0.96373403278E+02  0.00000000000E+00 0.  1.
          2    1    6    6  503    0  0.21256648932E+03  0.75834628143E+02  0.85834370420E+03  0.88751862952E+03  0.00000000000E+00 0. -1.
         -2    1    6    6    0  503  0.17398671937E+02  0.98336941177E+01  0.16800201948E+02  0.26108659688E+02  0.00000000000E+00 0.  1.
<mgrwt>
<rscale>  0 0.14253964E+04</rscale>
<asrwt>0</asrwt>
<pdfrwt beam="1">  1        2 0.27834399E+00 0.14253964E+04</pdfrwt>
<pdfrwt beam="2">  1       -1 0.43191943E-01 0.14253964E+04</pdfrwt>
<totfact> 0.49896630E+01</totfact>
</mgrwt>
</event>
<event>
12    7  0.1572140E-007  0.1808089E+04  0.7818608E-02  0.8702009E-01
          2   -1    0    0  501    0  0.00000000000E+00  0.00000000000E+00  0.14732521876E+04  0.14732521876E+04  0.00000000000E+00 0. -1.
         -1   -1    0    0    0  501 -0.00000000000E+00 -0.00000000000E+00 -0.55475688666E+03  0.55475688666E+03  0.00000000000E+00 0.  1.
         24    2    1    2    0    0  0.29245838940E+03  0.14138652260E+02  0.99555858544E+03  0.10408320310E+04  0.80390351525E+02 0.  0.
        254    2    1    2    0    0 -0.29245838940E+03 -0.14138652260E+02 -0.77063284482E+02  0.98717704332E+03  0.93959989039E+03 0.  0.
         23    2    4    4    0    0 -0.53965558996E+03 -0.27440954550E+03 -0.18715526719E+02  0.61246175021E+03  0.90721387139E+02 0.  0.
         23    2    4    4    0    0  0.24719720057E+03  0.26027089324E+03 -0.58347757763E+02  0.37471529311E+03  0.90331036870E+02 0.  0.
          2    1    3    3  502    0  0.24960730489E+03  0.29197288572E+02  0.74652073346E+03  0.78768616454E+03  0.00000000000E+00 0. -1.
         -1    1    3    3    0  502  0.42851084513E+02 -0.15058636313E+02  0.24903785198E+03  0.25314586643E+03  0.00000000000E+00 0.  1.
         13    1    5    5    0    0 -0.33304282865E+03 -0.21219004982E+03 -0.32594341762E+02  0.39623797656E+03  0.00000000000E+00 0.  1.
        -13    1    5    5    0    0 -0.20661276132E+03 -0.62219495682E+02  0.13878815043E+02  0.21622377364E+03  0.00000000000E+00 0. -1.
          4    1    6    6  503    0  0.16518933626E+03  0.11228463394E+03 -0.46699830695E+02  0.20512491321E+03  0.00000000000E+00 0. -1.
         -4    1    6    6    0  503  0.82007864303E+02  0.14798625931E+03 -0.11647927068E+02  0.16959037990E+03  0.00000000000E+00 0.  1.
<mgrwt>
<rscale>  0 0.18080894E+04</rscale>
<asrwt>0</asrwt>
<pdfrwt beam="1">  1        2 0.22665418E+00 0.18080894E+04</pdfrwt>
<pdfrwt beam="2">  1       -1 0.85347214E-01 0.18080894E+04</pdfrwt>
<totfact> 0.19176605E+01</totfact>
</mgrwt>
</event>
<event>
12    7  0.1572140E-007  0.1950494E+04  0.7818608E-02  0.8630123E-01
         -1   -1    0    0    0  501 -0.00000000000E+00  0.00000000000E+00  0.76936996239E+03  0.76936996239E+03  0.00000000000E+00 0.  1.
          2   -1    0    0  501    0  0.00000000000E+00 -0.00000000000E+00 -0.12362148538E+04  0.12362148538E+04  0.00000000000E+00 0. -1.
         24    2    1    2    0    0 -0.26281027413E+03  0.46045729102E+03  0.38570780026E+03  0.66054559860E+03  0.80373027813E+02 0.  0.
        254    2    1    2    0    0  0.26281027413E+03 -0.46045729102E+03 -0.85255269164E+03  0.13450392176E+04  0.89509454680E+03 0.  0.
         23    2    4    4    0    0 -0.18688207796E+03 -0.18651522871E+03  0.61998717297E+02  0.28579035417E+03  0.90107957409E+02 0.  0.
         23    2    4    4    0    0  0.44969235209E+03 -0.27394206232E+03 -0.91455140893E+03  0.10592488634E+04  0.91303942809E+02 0.  0.
          2    1    3    3  502    0 -0.29954136582E+02  0.52478968537E+02  0.15326229419E+02  0.62339279313E+02  0.00000000000E+00 0. -1.
         -1    1    3    3    0  502 -0.23285613755E+03  0.40797832248E+03  0.37038157084E+03  0.59820631928E+03  0.00000000000E+00 0.  1.
         13    1    5    5    0    0 -0.17146005897E+03 -0.15893598081E+03  0.82729323634E+02  0.24799866694E+03  0.00000000000E+00 0. -1.
        -13    1    5    5    0    0 -0.15422018993E+02 -0.27579247896E+02 -0.20730606337E+02  0.37791687227E+02  0.00000000000E+00 0.  1.
          4    1    6    6  503    0  0.22321762543E+03 -0.85305864494E+02 -0.43678574770E+03  0.49788049592E+03  0.00000000000E+00 0. -1.
         -4    1    6    6    0  503  0.22647472666E+03 -0.18863619782E+03 -0.47776566123E+03  0.56136836747E+03  0.00000000000E+00 0.  1.
<mgrwt>
<rscale>  0 0.19504939E+04</rscale>
<asrwt>0</asrwt>
<pdfrwt beam="1">  1        2 0.19018690E+00 0.19504939E+04</pdfrwt>
<pdfrwt beam="2">  1       -1 0.11836461E+00 0.19504939E+04</pdfrwt>
<totfact> 0.12272107E+01</totfact>
</mgrwt>
</event>
<event>
12    7  0.1572140E-007  0.1944065E+04  0.7818608E-02  0.8633228E-01
          2   -1    0    0  501    0  0.00000000000E+00  0.00000000000E+00  0.18582253258E+04  0.18582253258E+04  0.00000000000E+00 0. -1.
         -1   -1    0    0    0  501 -0.00000000000E+00 -0.00000000000E+00 -0.50846767084E+03  0.50846767084E+03  0.00000000000E+00 0.  1.
         24    2    1    2    0    0  0.45578260711E+02 -0.62159128469E+03 -0.36973485253E+00  0.63079632952E+03  0.97215068739E+02 0.  0.
        254    2    1    2    0    0 -0.45578260711E+02  0.62159128469E+03  0.13501273899E+04  0.17358966672E+04  0.89556695293E+03 0.  0.
         23    2    4    4    0    0 -0.30934813387E+03  0.57039071013E+03  0.45739981568E+03  0.79916904128E+03  0.91731864804E+02 0.  0.
         23    2    4    4    0    0  0.26376987316E+03  0.51200574558E+02  0.89272757418E+03  0.93672762588E+03  0.91104767023E+02 0.  0.
          2    1    3    3  502    0  0.10791405151E+02 -0.31473604215E+03 -0.47221912045E+02  0.31844173663E+03  0.00000000000E+00 0. -1.
         -1    1    3    3    0  502  0.34786855560E+02 -0.30685524254E+03  0.46852177193E+02  0.31235459289E+03  0.00000000000E+00 0.  1.
         13    1    5    5    0    0 -0.70202813094E+02  0.20694522077E+03  0.12591442393E+03  0.25220864680E+03  0.00000000000E+00 0. -1.
        -13    1    5    5    0    0 -0.23914532078E+03  0.36344548936E+03  0.33148539175E+03  0.54696039448E+03  0.00000000000E+00 0.  1.
          1    1    6    6  503    0 -0.55611846642E+01  0.32049282904E+01  0.61068049199E+01  0.88595376033E+01  0.00000000000E+00 0. -1.
         -1    1    6    6    0  503  0.26933105783E+03  0.47995646267E+02  0.88662076926E+03  0.92786808828E+03  0.00000000000E+00 0.  1.
<mgrwt>
<rscale>  0 0.19440653E+04</rscale>
<asrwt>0</asrwt>
<pdfrwt beam="1">  1        2 0.28588082E+00 0.19440653E+04</pdfrwt>
<pdfrwt beam="2">  1       -1 0.78225797E-01 0.19440653E+04</pdfrwt>
<totfact> 0.13926753E+01</totfact>
</mgrwt>
</event>
<event>
12    7  0.1978224E-007  0.3075582E+04  0.7818608E-02  0.8222471E-01
         -1   -1    0    0    0  501 -0.00000000000E+00  0.00000000000E+00  0.10105730460E+04  0.10105730460E+04  0.00000000000E+00 0.  1.
          2   -1    0    0  501    0  0.00000000000E+00 -0.00000000000E+00 -0.23400594901E+04  0.23400594901E+04  0.00000000000E+00 0. -1.
         24    2    1    2    0    0 -0.76157191183E+03  0.11131523938E+04 -0.10366630698E+04  0.17030193240E+04  0.80650287437E+02 0.  0.
        254    2    1    2    0    0  0.76157191183E+03 -0.11131523938E+04 -0.29282337427E+03  0.16476132120E+04  0.89987984718E+03 0.  0.
         23    2    4    4    0    0  0.19230817292E+03 -0.34794903868E+03 -0.52227261124E+03  0.66250078315E+03  0.89931308987E+02 0.  0.
         23    2    4    4    0    0  0.56926373892E+03 -0.76520335508E+03  0.22944923697E+03  0.98511242890E+03  0.90565811099E+02 0.  0.
          4    1    3    3  502    0 -0.58368456205E+03  0.85516549759E+03 -0.75187697227E+03  0.12795759757E+04  0.00000000000E+00 0. -1.
         -3    1    3    3    0  502 -0.17788734978E+03  0.25798689617E+03 -0.28478609756E+03  0.42344334824E+03  0.00000000000E+00 0.  1.
         13    1    5    5    0    0  0.90115710313E+02 -0.79397265135E+02 -0.14558630757E+03  0.18873298574E+03  0.00000000000E+00 0. -1.
        -13    1    5    5    0    0  0.10219246260E+03 -0.26855177354E+03 -0.37668630368E+03  0.47376779741E+03  0.00000000000E+00 0.  1.
          4    1    6    6  503    0  0.25382160282E+03 -0.40023341103E+03  0.14294635554E+03  0.49502106008E+03  0.00000000000E+00 0. -1.
         -4    1    6    6    0  503  0.31544213610E+03 -0.36496994405E+03  0.86502881432E+02  0.49009136881E+03  0.00000000000E+00 0.  1.
<mgrwt>
<rscale>  0 0.30755819E+04</rscale>
<asrwt>0</asrwt>
<pdfrwt beam="1">  1        2 0.36000915E+00 0.30755819E+04</pdfrwt>
<pdfrwt beam="2">  1       -1 0.15547278E+00 0.30755819E+04</pdfrwt>
<totfact> 0.13164494E+00</totfact>
</mgrwt>
</event>
<event>
12    7  0.1572140E-007  0.2669690E+04  0.7818608E-02  0.8344907E-01
         -1   -1    0    0    0  501 -0.00000000000E+00  0.00000000000E+00  0.10208780739E+04  0.10208780739E+04  0.00000000000E+00 0.  1.
          2   -1    0    0  501    0  0.00000000000E+00 -0.00000000000E+00 -0.17453709227E+04  0.17453709227E+04  0.00000000000E+00 0. -1.
         24    2    1    2    0    0  0.22663114534E+03  0.19105054085E+03  0.86459429345E+03  0.91753501516E+03  0.80530904483E+02 0.  0.
        254    2    1    2    0    0 -0.22663114534E+03 -0.19105054085E+03 -0.15890871422E+04  0.18487139814E+04  0.89704150088E+03 0.  0.
         23    2    4    4    0    0 -0.13373937865E+03 -0.45283267707E+03 -0.14444827696E+04  0.15224249529E+04  0.91124150746E+02 0.  0.
         23    2    4    4    0    0 -0.92891766695E+02  0.26178213622E+03 -0.14460437267E+03  0.32628902852E+03  0.91626079099E+02 0.  0.
          2    1    3    3  502    0  0.44659695505E+02  0.82209934434E+02  0.22372270862E+03  0.24249703519E+03  0.00000000000E+00 0. -1.
         -1    1    3    3    0  502  0.18197144984E+03  0.10884060641E+03  0.64087158483E+03  0.67503797997E+03  0.00000000000E+00 0.  1.
         13    1    5    5    0    0 -0.25971162199E+02 -0.13575083037E+03 -0.55601081745E+03  0.57293177459E+03  0.00000000000E+00 0. -1.
        -13    1    5    5    0    0 -0.10776821645E+03 -0.31708184669E+03 -0.88847195210E+03  0.94949317830E+03  0.00000000000E+00 0.  1.
          4    1    6    6  503    0  0.43674884378E+00  0.27514367093E+02  0.11372579216E+02  0.29775270009E+02  0.00000000000E+00 0. -1.
         -4    1    6    6    0  503 -0.93328515539E+02  0.23426776913E+03 -0.15597695189E+03  0.29651375851E+03  0.00000000000E+00 0.  1.
<mgrwt>
<rscale>  0 0.26696898E+04</rscale>
<asrwt>0</asrwt>
<pdfrwt beam="1">  1        2 0.26851860E+00 0.26696898E+04</pdfrwt>
<pdfrwt beam="2">  1       -1 0.15705817E+00 0.26696898E+04</pdfrwt>
<totfact> 0.28506382E+00</totfact>
</mgrwt>
</event>
<event>
12    7  0.1572140E-007  0.1923313E+04  0.7818608E-02  0.8643338E-01
         -1   -1    0    0    0  501 -0.00000000000E+00  0.00000000000E+00  0.28758680256E+03  0.28758680256E+03  0.00000000000E+00 0.  1.
          2   -1    0    0  501    0  0.00000000000E+00 -0.00000000000E+00 -0.32156664998E+04  0.32156664998E+04  0.00000000000E+00 0. -1.
         24    2    1    2    0    0 -0.11925719419E+03  0.68365760154E+02  0.19014633959E+03  0.24919304458E+03  0.83936806462E+02 0.  0.
        254    2    1    2    0    0  0.11925719419E+03 -0.68365760154E+02 -0.31182260369E+04  0.32540602578E+04  0.92015128594E+03 0.  0.
         23    2    4    4    0    0 -0.27453007482E+03  0.15561570465E+03 -0.52343484752E+03  0.61843819911E+03  0.94333223230E+02 0.  0.
         23    2    4    4    0    0  0.39378726901E+03 -0.22398146481E+03 -0.25947911893E+04  0.26356220587E+04  0.91248069823E+02 0.  0.
          2    1    3    3  502    0  0.53688618051E+01 -0.11725845847E+02  0.14074728479E+02  0.19089738596E+02  0.00000000000E+00 0. -1.
         -1    1    3    3    0  502 -0.12462605599E+03  0.80091606001E+02  0.17607161111E+03  0.23010330598E+03  0.00000000000E+00 0.  1.
         13    1    5    5    0    0 -0.76800385126E+02  0.89391340989E+02 -0.15036631316E+03  0.19104747874E+03  0.00000000000E+00 0. -1.
        -13    1    5    5    0    0 -0.19772968970E+03  0.66224363664E+02 -0.37306853437E+03  0.42739072038E+03  0.00000000000E+00 0.  1.
          3    1    6    6  503    0  0.29125747018E+03 -0.20794765675E+03 -0.19599129995E+04  0.19923182747E+04  0.00000000000E+00 0. -1.
         -3    1    6    6    0  503  0.10252979883E+03 -0.16033808053E+02 -0.63487818983E+03  0.64330378405E+03  0.00000000000E+00 0.  1.
<mgrwt>
<rscale>  0 0.19233130E+04</rscale>
<asrwt>0</asrwt>
<pdfrwt beam="1">  1        2 0.49471791E+00 0.19233130E+04</pdfrwt>
<pdfrwt beam="2">  1       -1 0.44244125E-01 0.19233130E+04</pdfrwt>
<totfact> 0.68416875E+00</totfact>
</mgrwt>
</event>
<event>
12    7  0.1572140E-007  0.1386482E+04  0.7818608E-02  0.8963662E-01
          2   -1    0    0  501    0  0.00000000000E+00  0.00000000000E+00  0.52755847146E+03  0.52755847146E+03  0.00000000000E+00 0. -1.
         -1   -1    0    0    0  501 -0.00000000000E+00 -0.00000000000E+00 -0.91095729194E+03  0.91095729194E+03  0.00000000000E+00 0.  1.
         24    2    1    2    0    0  0.54170289290E+02 -0.27422464571E+03 -0.17620226543E+03  0.33988820185E+03  0.79644050960E+02 0.  0.
        254    2    1    2    0    0 -0.54170289290E+02  0.27422464571E+03 -0.20719655505E+03  0.10986275616E+04  0.10420741480E+04 0.  0.
         23    2    4    4    0    0 -0.32859416973E+03 -0.79576980794E+02 -0.45864508820E+03  0.57690620292E+03  0.90326218681E+02 0.  0.
         23    2    4    4    0    0  0.27442388044E+03  0.35380162651E+03  0.25144853316E+03  0.52172135863E+03  0.92101868352E+02 0.  0.
          2    1    3    3  502    0  0.86470328926E+01 -0.31272557812E+02 -0.56720646960E+02  0.65345052158E+02  0.00000000000E+00 0. -1.
         -3    1    3    3    0  502  0.45523256397E+02 -0.24295208790E+03 -0.11948161847E+03  0.27454314969E+03  0.00000000000E+00 0.  1.
         13    1    5    5    0    0 -0.21785088360E+03 -0.98805963374E+01 -0.26493772110E+03  0.34314520211E+03  0.00000000000E+00 0.  1.
        -13    1    5    5    0    0 -0.11074328613E+03 -0.69696384457E+02 -0.19370736711E+03  0.23376100081E+03  0.00000000000E+00 0. -1.
          2    1    6    6  503    0  0.20451598942E+03  0.28683607357E+03  0.15435453790E+03  0.38461285262E+03  0.00000000000E+00 0. -1.
         -2    1    6    6    0  503  0.69907891017E+02  0.66965552937E+02  0.97093995254E+02  0.13710850601E+03  0.00000000000E+00 0.  1.
<mgrwt>
<rscale>  0 0.13864822E+04</rscale>
<asrwt>0</asrwt>
<pdfrwt beam="1">  1        2 0.81162842E-01 0.13864822E+04</pdfrwt>
<pdfrwt beam="2">  1       -1 0.14014727E+00 0.13864822E+04</pdfrwt>
<totfact> 0.26929353E+01</totfact>
</mgrwt>
</event>
<event>
12    7  0.1572140E-007  0.1617557E+04  0.7818608E-02  0.8809834E-01
          2   -1    0    0  501    0  0.00000000000E+00  0.00000000000E+00  0.29591031371E+04  0.29591031371E+04  0.00000000000E+00 0. -1.
         -3   -1    0    0    0  501 -0.00000000000E+00 -0.00000000000E+00 -0.22105449748E+03  0.22105449748E+03  0.00000000000E+00 0.  1.
         24    2    1    2    0    0 -0.29680071952E+03  0.19015119035E+03  0.10746809002E+03  0.37636980672E+03  0.76529071200E+02 0.  0.
        254    2    1    2    0    0  0.29680071952E+03 -0.19015119035E+03  0.26305805496E+04  0.28037878279E+04  0.90389380649E+03 0.  0.
         23    2    4    4    0    0  0.37037583517E+03 -0.37455924969E+03  0.81227498573E+03  0.97236526910E+03  0.90723058227E+02 0.  0.
         23    2    4    4    0    0 -0.73575115656E+02  0.18440805934E+03  0.18183055639E+04  0.18314225588E+04  0.91944739569E+02 0.  0.
          4    1    3    3  502    0 -0.30678683683E+02  0.52521620193E+02  0.12724564429E+02  0.62141908243E+02  0.00000000000E+00 0. -1.
         -3    1    3    3    0  502 -0.26612203584E+03  0.13762957016E+03  0.94743525594E+02  0.31422789848E+03  0.00000000000E+00 0.  1.
         13    1    5    5    0    0  0.95646592658E+02 -0.57683813524E+02  0.21880846916E+03  0.24566814854E+03  0.00000000000E+00 0. -1.
        -13    1    5    5    0    0  0.27472924252E+03 -0.31687543617E+03  0.59346651657E+03  0.72669712056E+03  0.00000000000E+00 0.  1.
          2    1    6    6  503    0  0.22069668445E+01  0.45012878189E+01  0.34213630490E+01  0.60694332350E+01  0.00000000000E+00 0. -1.
         -2    1    6    6    0  503 -0.75782082500E+02  0.17990677152E+03  0.18148842009E+04  0.18253531256E+04  0.00000000000E+00 0.  1.
<mgrwt>
<rscale>  0 0.16175575E+04</rscale>
<asrwt>0</asrwt>
<pdfrwt beam="1">  1        2 0.45524661E+00 0.16175575E+04</pdfrwt>
<pdfrwt beam="2">  1       -3 0.34008386E-01 0.16175575E+04</pdfrwt>
<totfact> 0.98391527E+00</totfact>
</mgrwt>
</event>
<event>
12    7  0.1572140E-007  0.1399699E+04  0.7818608E-02  0.8954037E-01
          2   -1    0    0  501    0  0.00000000000E+00  0.00000000000E+00  0.17169061975E+04  0.17169061975E+04  0.00000000000E+00 0. -1.
         -1   -1    0    0    0  501 -0.00000000000E+00 -0.00000000000E+00 -0.28527431724E+03  0.28527431724E+03  0.00000000000E+00 0.  1.
         24    2    1    2    0    0  0.27335562277E+03 -0.13126051733E+03  0.80995994741E+03  0.86892789033E+03  0.83952023665E+02 0.  0.
        254    2    1    2    0    0 -0.27335562277E+03  0.13126051733E+03  0.62167193288E+03  0.11332526244E+04  0.89768195858E+03 0.  0.
         23    2    4    4    0    0 -0.35942879788E+03 -0.17497247476E+02 -0.10100208643E+03  0.38478433278E+03  0.91445868553E+02 0.  0.
         23    2    4    4    0    0  0.86073175112E+02  0.14875776480E+03  0.72267401931E+03  0.74846829166E+03  0.91703769619E+02 0.  0.
          2    1    3    3  502    0  0.23194617766E+03 -0.10150070623E+03  0.57141361481E+03  0.62499195346E+03  0.00000000000E+00 0. -1.
         -1    1    3    3    0  502  0.41409445102E+02 -0.29759811099E+02  0.23854633260E+03  0.24393593687E+03  0.00000000000E+00 0.  1.
         13    1    5    5    0    0 -0.32507299563E+03  0.73047652597E+01 -0.70866475082E+02  0.33278802469E+03  0.00000000000E+00 0. -1.
        -13    1    5    5    0    0 -0.34355802247E+02 -0.24802012736E+02 -0.30135611352E+02  0.51996308094E+02  0.00000000000E+00 0.  1.
          1    1    6    6  503    0  0.10847930179E+02  0.10111344817E+03  0.30844332282E+03  0.32477513818E+03  0.00000000000E+00 0. -1.
         -1    1    6    6    0  503  0.75225244934E+02  0.47644316633E+02  0.41423069649E+03  0.42369315347E+03  0.00000000000E+00 0.  1.
<mgrwt>
<rscale>  0 0.13996989E+04</rscale>
<asrwt>0</asrwt>
<pdfrwt beam="1">  1        2 0.26413941E+00 0.13996989E+04</pdfrwt>
<pdfrwt beam="2">  1       -1 0.43888358E-01 0.13996989E+04</pdfrwt>
<totfact> 0.54604931E+01</totfact>
</mgrwt>
</event>
<event>
12    7  0.1572140E-007  0.1650110E+04  0.7818608E-02  0.8790342E-01
          2   -1    0    0  501    0  0.00000000000E+00  0.00000000000E+00  0.44029880479E+03  0.44029880479E+03  0.00000000000E+00 0. -1.
         -1   -1    0    0    0  501 -0.00000000000E+00 -0.00000000000E+00 -0.15460304777E+04  0.15460304777E+04  0.00000000000E+00 0.  1.
         24    2    1    2    0    0 -0.10580785228E+03  0.21148581617E+03 -0.97713624263E+03  0.10083838610E+04  0.78238241986E+02 0.  0.
        254    2    1    2    0    0  0.10580785228E+03 -0.21148581617E+03 -0.12859543024E+03  0.97794542141E+03  0.94016961796E+03 0.  0.
         23    2    4    4    0    0 -0.82444789771E+02 -0.19987528380E+03  0.36959928024E+03  0.43770684796E+03  0.90754528052E+02 0.  0.
         23    2    4    4    0    0  0.18825264205E+03 -0.11610532372E+02 -0.49819471048E+03  0.54023857345E+03  0.89921549079E+02 0.  0.
          4    1    3    3  502    0  0.62711630041E+01  0.95568544093E+01 -0.12449452038E+03  0.12501818490E+03  0.00000000000E+00 0. -1.
         -3    1    3    3    0  502 -0.11207901529E+03  0.20192896177E+03 -0.85264172225E+03  0.88336567614E+03  0.00000000000E+00 0.  1.
         13    1    5    5    0    0  0.10591608384E+02 -0.15264911736E+01  0.43855376107E+02  0.45142068594E+02  0.00000000000E+00 0.  1.
        -13    1    5    5    0    0 -0.93036398155E+02 -0.19834879263E+03  0.32574390413E+03  0.39256477937E+03  0.00000000000E+00 0. -1.
          4    1    6    6  503    0  0.18579966908E+03 -0.18341129391E+02 -0.49923088314E+03  0.53300036467E+03  0.00000000000E+00 0. -1.
         -4    1    6    6    0  503  0.24529729677E+01  0.67305970196E+01  0.10361726525E+01  0.72382087830E+01  0.00000000000E+00 0.  1.
<mgrwt>
<rscale>  0 0.16501095E+04</rscale>
<asrwt>0</asrwt>
<pdfrwt beam="1">  1        2 0.67738276E-01 0.16501095E+04</pdfrwt>
<pdfrwt beam="2">  1       -1 0.23785085E+00 0.16501095E+04</pdfrwt>
<totfact> 0.65239291E+00</totfact>
</mgrwt>
</event>
<event>
12    7  0.1572140E-007  0.1419892E+04  0.7818608E-02  0.8939544E-01
         -1   -1    0    0    0  501 -0.00000000000E+00  0.00000000000E+00  0.21746788947E+03  0.21746788947E+03  0.00000000000E+00 0.  1.
          2   -1    0    0  501    0  0.00000000000E+00 -0.00000000000E+00 -0.23176897142E+04  0.23176897142E+04  0.00000000000E+00 0. -1.
         24    2    1    2    0    0  0.15338599523E+03  0.33222767692E+02  0.61247371862E+02  0.18450505368E+03  0.75232030719E+02 0.  0.
        254    2    1    2    0    0 -0.15338599523E+03 -0.33222767692E+02 -0.21614691966E+04  0.23506525500E+04  0.91048740088E+03 0.  0.
         23    2    4    4    0    0 -0.16608319776E+03 -0.45430252660E+03 -0.10995376835E+04  0.12045351918E+04  0.89148733049E+02 0.  0.
         23    2    4    4    0    0  0.12697202529E+02  0.42107975891E+03 -0.10619315131E+04  0.11461173582E+04  0.91744634369E+02 0.  0.
          4    1    3    3  502    0  0.18661434025E+02  0.26417998447E+02  0.33918742388E+02  0.46868335227E+02  0.00000000000E+00 0. -1.
         -3    1    3    3    0  502  0.13472456121E+03  0.68047692456E+01  0.27328629474E+02  0.13763671845E+03  0.00000000000E+00 0.  1.
         13    1    5    5    0    0 -0.38756608726E+02 -0.30954845625E+02 -0.12087904489E+03  0.13065994291E+03  0.00000000000E+00 0. -1.
        -13    1    5    5    0    0 -0.12732658904E+03 -0.42334768098E+03 -0.97865863860E+03  0.10738752489E+04  0.00000000000E+00 0.  1.
          1    1    6    6  503    0 -0.58864970724E+01  0.82648207457E+02 -0.31790309333E+03  0.32852359701E+03  0.00000000000E+00 0. -1.
         -1    1    6    6    0  503  0.18583699602E+02  0.33843155145E+03 -0.74402841974E+03  0.81759376116E+03  0.00000000000E+00 0.  1.
<mgrwt>
<rscale>  0 0.14198917E+04</rscale>
<asrwt>0</asrwt>
<pdfrwt beam="1">  1        2 0.35656765E+00 0.14198917E+04</pdfrwt>
<pdfrwt beam="2">  1       -1 0.33456598E-01 0.14198917E+04</pdfrwt>
<totfact> 0.41338907E+01</totfact>
</mgrwt>
</event>
<event>
12    7  0.1572140E-007  0.1575578E+04  0.7818608E-02  0.8835693E-01
         -1   -1    0    0    0  501 -0.00000000000E+00  0.00000000000E+00  0.56484412698E+03  0.56484412698E+03  0.00000000000E+00 0.  1.
          2   -1    0    0  501    0  0.00000000000E+00 -0.00000000000E+00 -0.10987310948E+04  0.10987310948E+04  0.00000000000E+00 0. -1.
         24    2    1    2    0    0 -0.11743249696E+03 -0.50428359866E+03 -0.26822766259E+03  0.58889047544E+03  0.82180130609E+02 0.  0.
        254    2    1    2    0    0  0.11743249696E+03  0.50428359866E+03 -0.26565930520E+03  0.10746847463E+04  0.90348220695E+03 0.  0.
         23    2    4    4    0    0  0.10649718130E+03  0.29832393308E+03 -0.59244100862E+03  0.67802033211E+03  0.91577308232E+02 0.  0.
         23    2    4    4    0    0  0.10935315662E+02  0.20595966558E+03  0.32678170342E+03  0.39666441419E+03  0.89539995666E+02 0.  0.
          2    1    3    3  502    0 -0.10759206379E+03 -0.40137984643E+03 -0.24682011788E+03  0.48332391199E+03  0.00000000000E+00 0. -1.
         -1    1    3    3    0  502 -0.98404331746E+01 -0.10290375224E+03 -0.21407544703E+02  0.10556656345E+03  0.00000000000E+00 0.  1.
         13    1    5    5    0    0  0.51101108013E+00  0.83896701788E+02 -0.99782248340E+02  0.13036646343E+03  0.00000000000E+00 0. -1.
        -13    1    5    5    0    0  0.10598617022E+03  0.21442723129E+03 -0.49265876028E+03  0.54765386868E+03  0.00000000000E+00 0.  1.
          1    1    6    6  503    0 -0.67042956325E+01 -0.34815965267E+01  0.42249837904E+02  0.42919900946E+02  0.00000000000E+00 0. -1.
         -1    1    6    6    0  503  0.17639611295E+02  0.20944126211E+03  0.28453186552E+03  0.35374451325E+03  0.00000000000E+00 0.  1.
<mgrwt>
<rscale>  0 0.15755784E+04</rscale>
<asrwt>0</asrwt>
<pdfrwt beam="1">  1        2 0.16903555E+00 0.15755784E+04</pdfrwt>
<pdfrwt beam="2">  1       -1 0.86899096E-01 0.15755784E+04</pdfrwt>
<totfact> 0.31209525E+01</totfact>
</mgrwt>
</event>
<event>
12    7  0.1572140E-007  0.1467601E+04  0.7818608E-02  0.8906288E-01
         -1   -1    0    0    0  501 -0.00000000000E+00  0.00000000000E+00  0.33552855288E+03  0.33552855288E+03  0.00000000000E+00 0.  1.
          2   -1    0    0  501    0  0.00000000000E+00 -0.00000000000E+00 -0.16048217543E+04  0.16048217543E+04  0.00000000000E+00 0. -1.
         24    2    1    2    0    0  0.37051191833E+02  0.53448655319E+02 -0.97071771208E+03  0.97617747000E+03  0.80000167654E+02 0.  0.
        254    2    1    2    0    0 -0.37051191833E+02 -0.53448655319E+02 -0.29857548935E+03  0.96417283718E+03  0.91446836334E+03 0.  0.
         23    2    4    4    0    0 -0.12506452565E+03 -0.27799108553E+03 -0.52989188433E+03  0.61817474611E+03  0.91839144371E+02 0.  0.
         23    2    4    4    0    0  0.88013333814E+02  0.22454243021E+03  0.23131639498E+03  0.34599809107E+03  0.89675830321E+02 0.  0.
          4    1    3    3  502    0 -0.10572576731E+02 -0.13216241795E+02 -0.29956458632E+03  0.30004231335E+03  0.00000000000E+00 0. -1.
         -3    1    3    3    0  502  0.47623768564E+02  0.66664897114E+02 -0.67115312576E+03  0.67613515665E+03  0.00000000000E+00 0.  1.
         13    1    5    5    0    0 -0.33855365488E+02 -0.30474939144E+02 -0.35273371009E+02  0.57611790377E+02  0.00000000000E+00 0. -1.
        -13    1    5    5    0    0 -0.91209160159E+02 -0.24751614638E+03 -0.49461851332E+03  0.56056295573E+03  0.00000000000E+00 0.  1.
          2    1    6    6  503    0  0.22971594708E+02  0.67147218370E+01  0.49211070859E+02  0.54722126675E+02  0.00000000000E+00 0. -1.
         -2    1    6    6    0  503  0.65041739106E+02  0.21782770837E+03  0.18210532412E+03  0.29127596440E+03  0.00000000000E+00 0.  1.
<mgrwt>
<rscale>  0 0.14676015E+04</rscale>
<asrwt>0</asrwt>
<pdfrwt beam="1">  1        2 0.24689565E+00 0.14676015E+04</pdfrwt>
<pdfrwt beam="2">  1       -1 0.51619778E-01 0.14676015E+04</pdfrwt>
<totfact> 0.46180833E+01</totfact>
</mgrwt>
</event>
<event>
12    7  0.1572140E-007  0.2391243E+04  0.7818608E-02  0.8442789E-01
         -1   -1    0    0    0  501 -0.00000000000E+00  0.00000000000E+00  0.15021435143E+04  0.15021435143E+04  0.00000000000E+00 0.  1.
          2   -1    0    0  501    0  0.00000000000E+00 -0.00000000000E+00 -0.95164762874E+03  0.95164762874E+03  0.00000000000E+00 0. -1.
         24    2    1    2    0    0  0.90063614507E+03 -0.43461684370E+03  0.13621208806E+02  0.10032393352E+04  0.79160341973E+02 0.  0.
        254    2    1    2    0    0 -0.90063614507E+03  0.43461684370E+03  0.53687467673E+03  0.14505518078E+04  0.90323245183E+03 0.  0.
         23    2    4    4    0    0  0.12566893487E+03  0.57596776665E+02 -0.88182664502E+02  0.18787667949E+03  0.91713654952E+02 0.  0.
         23    2    4    4    0    0 -0.10263050799E+04  0.37702006703E+03  0.62505734124E+03  0.12626751283E+04  0.90584501097E+02 0.  0.
          4    1    3    3  502    0  0.24183432838E+03 -0.96016794756E+02  0.32874464392E+02  0.26226665375E+03  0.00000000000E+00 0. -1.
         -3    1    3    3    0  502  0.65880181668E+03 -0.33860004894E+03 -0.19253255586E+02  0.74097268145E+03  0.00000000000E+00 0.  1.
         13    1    5    5    0    0 -0.68952113382E+01  0.45322173497E+01  0.11195678554E+02  0.13907844973E+02  0.00000000000E+00 0. -1.
        -13    1    5    5    0    0  0.13256414620E+03  0.53064559315E+02 -0.99378343057E+02  0.17396883452E+03  0.00000000000E+00 0.  1.
          3    1    6    6  503    0 -0.88445152906E+03  0.31472484441E+03  0.56988793941E+03  0.10982160527E+04  0.00000000000E+00 0.  1.
         -3    1    6    6    0  503 -0.14185355087E+03  0.62295222626E+02  0.55169401821E+02  0.16445907562E+03  0.00000000000E+00 0. -1.
<mgrwt>
<rscale>  0 0.23912435E+04</rscale>
<asrwt>0</asrwt>
<pdfrwt beam="1">  1        2 0.14640733E+00 0.23912435E+04</pdfrwt>
<pdfrwt beam="2">  1       -1 0.23109900E+00 0.23912435E+04</pdfrwt>
<totfact> 0.25794206E+00</totfact>
</mgrwt>
</event>
<event>
12    7  0.1572140E-007  0.3150194E+04  0.7818608E-02  0.8202096E-01
          2   -1    0    0  501    0  0.00000000000E+00  0.00000000000E+00  0.20692311199E+04  0.20692311199E+04  0.00000000000E+00 0. -1.
         -1   -1    0    0    0  501 -0.00000000000E+00 -0.00000000000E+00 -0.11989622314E+04  0.11989622314E+04  0.00000000000E+00 0.  1.
         24    2    1    2    0    0 -0.33941256155E+03 -0.60615384343E+02  0.18609631339E+04  0.18944530713E+04  0.83027356448E+02 0.  0.
        254    2    1    2    0    0  0.33941256155E+03  0.60615384343E+02 -0.99069424549E+03  0.13737402800E+04  0.88702432720E+03 0.  0.
         23    2    4    4    0    0  0.19117766662E+03 -0.14240723796E+03 -0.10650968760E+04  0.10952107964E+04  0.90700670990E+02 0.  0.
         23    2    4    4    0    0  0.14823489493E+03  0.20302262231E+03  0.74402630491E+02  0.27852948357E+03  0.94080564158E+02 0.  0.
          2    1    3    3  502    0 -0.28506645267E+03 -0.19745705086E+02  0.15533193242E+04  0.15793839617E+04  0.00000000000E+00 0. -1.
         -1    1    3    3    0  502 -0.54346108882E+02 -0.40869679256E+02  0.30764380968E+03  0.31506910967E+03  0.00000000000E+00 0.  1.
         13    1    5    5    0    0  0.12977117472E+03 -0.13272190812E+03 -0.89657267842E+03  0.91558627686E+03  0.00000000000E+00 0. -1.
        -13    1    5    5    0    0  0.61406491900E+02 -0.96853298384E+01 -0.16852419756E+03  0.17962451956E+03  0.00000000000E+00 0.  1.
          2    1    6    6  503    0  0.14053788749E+03  0.16340168637E+03  0.92200066666E+02  0.23441813330E+03  0.00000000000E+00 0. -1.
         -2    1    6    6    0  503  0.76970074384E+01  0.39620935938E+02 -0.17797436175E+02  0.44111350269E+02  0.00000000000E+00 0.  1.
<mgrwt>
<rscale>  0 0.31501936E+04</rscale>
<asrwt>0</asrwt>
<pdfrwt beam="1">  1        2 0.31834325E+00 0.31501936E+04</pdfrwt>
<pdfrwt beam="2">  1       -1 0.18445573E+00 0.31501936E+04</pdfrwt>
<totfact> 0.11368359E+00</totfact>
</mgrwt>
</event>
<event>
12    7  0.1572140E-007  0.3260721E+04  0.7818608E-02  0.8172963E-01
          2   -1    0    0  501    0  0.00000000000E+00  0.00000000000E+00  0.26002202055E+04  0.26002202055E+04  0.00000000000E+00 0. -1.
         -1   -1    0    0    0  501 -0.00000000000E+00 -0.00000000000E+00 -0.10222498620E+04  0.10222498620E+04  0.00000000000E+00 0.  1.
         24    2    1    2    0    0 -0.36958045933E+03  0.86524242093E+03  0.20364333211E+04  0.22447310225E+04  0.80762175581E+02 0.  0.
        254    2    1    2    0    0  0.36958045933E+03 -0.86524242093E+03 -0.45846297763E+03  0.13777390449E+04  0.89595893385E+03 0.  0.
         23    2    4    4    0    0  0.15819573647E+03 -0.33934915265E+03  0.25504130890E+03  0.46214605527E+03  0.91373785742E+02 0.  0.
         23    2    4    4    0    0  0.21138472286E+03 -0.52589326829E+03 -0.71350428653E+03  0.91559298965E+03  0.89302436197E+02 0.  0.
          2    1    3    3  502    0 -0.33204277697E+03  0.74417074259E+03  0.17001781670E+04  0.18853774952E+04  0.00000000000E+00 0. -1.
         -1    1    3    3    0  502 -0.37537682360E+02  0.12107167834E+03  0.33625515414E+03  0.35935352730E+03  0.00000000000E+00 0.  1.
         13    1    5    5    0    0  0.12240819028E+02 -0.35634730319E+02  0.65412264302E+02  0.75487985644E+02  0.00000000000E+00 0.  1.
        -13    1    5    5    0    0  0.14595491745E+03 -0.30371442233E+03  0.18962904460E+03  0.38665806963E+03  0.00000000000E+00 0. -1.
          2    1    6    6  503    0  0.16626652862E+03 -0.48408530702E+03 -0.62562169654E+03  0.80832273888E+03  0.00000000000E+00 0. -1.
         -2    1    6    6    0  503  0.45118194239E+02 -0.41807961273E+02 -0.87882589981E+02  0.10727025076E+03  0.00000000000E+00 0.  1.
<mgrwt>
<rscale>  0 0.32607206E+04</rscale>
<asrwt>0</asrwt>
<pdfrwt beam="1">  1        2 0.40003388E+00 0.32607206E+04</pdfrwt>
<pdfrwt beam="2">  1       -1 0.15726921E+00 0.32607206E+04</pdfrwt>
<totfact> 0.88775763E-01</totfact>
</mgrwt>
</event>
<event>
12    7  0.1572140E-007  0.2403889E+04  0.7818608E-02  0.8438049E-01
          2   -1    0    0  501    0  0.00000000000E+00  0.00000000000E+00  0.30140719381E+04  0.30140719381E+04  0.00000000000E+00 0. -1.
         -1   -1    0    0    0  501 -0.00000000000E+00 -0.00000000000E+00 -0.47930846153E+03  0.47930846153E+03  0.00000000000E+00 0.  1.
         24    2    1    2    0    0 -0.14118099800E+02 -0.24427753220E+03  0.25562296107E+04  0.25690859416E+04  0.77601028869E+02 0.  0.
        254    2    1    2    0    0  0.14118099800E+02  0.24427753220E+03 -0.21466134091E+02  0.92429445798E+03  0.89106038889E+03 0.  0.
         23    2    4    4    0    0 -0.23736490666E+03 -0.16735584735E+03 -0.23799348452E+03  0.38599531797E+03  0.89450591204E+02 0.  0.
         23    2    4    4    0    0  0.25148300646E+03  0.41163337955E+03  0.21652735043E+03  0.53829914000E+03  0.10097588302E+03 0.  0.
          2    1    3    3  502    0  0.77652481903E+01 -0.10484873378E+03  0.14649121690E+04  0.14686800941E+04  0.00000000000E+00 0. -1.
         -1    1    3    3    0  502 -0.21883347990E+02 -0.13942879842E+03  0.10913174417E+04  0.11004058475E+04  0.00000000000E+00 0.  1.
         13    1    5    5    0    0 -0.42509517638E+02 -0.13026243170E+02 -0.40389753808E+01  0.44643649303E+02  0.00000000000E+00 0.  1.
        -13    1    5    5    0    0 -0.19485538902E+03 -0.15432960418E+03 -0.23395450914E+03  0.34135166867E+03  0.00000000000E+00 0. -1.
          4    1    6    6  503    0  0.22619431481E+03  0.31601513001E+03  0.20306854398E+03  0.43848177158E+03  0.00000000000E+00 0. -1.
         -4    1    6    6    0  503  0.25288691649E+02  0.95618249533E+02  0.13458806451E+02  0.99817368429E+02  0.00000000000E+00 0.  1.
<mgrwt>
<rscale>  0 0.24038887E+04</rscale>
<asrwt>0</asrwt>
<pdfrwt beam="1">  1        2 0.46370336E+00 0.24038887E+04</pdfrwt>
<pdfrwt beam="2">  1       -1 0.73739765E-01 0.24038887E+04</pdfrwt>
<totfact> 0.32329425E+00</totfact>
</mgrwt>
</event>
<event>
12    7  0.1572140E-007  0.1366140E+04  0.7818608E-02  0.8978700E-01
          2   -1    0    0  501    0  0.00000000000E+00  0.00000000000E+00  0.30446437385E+04  0.30446437385E+04  0.00000000000E+00 0. -1.
         -1   -1    0    0    0  501 -0.00000000000E+00 -0.00000000000E+00 -0.15324768596E+03  0.15324768596E+03  0.00000000000E+00 0.  1.
         24    2    1    2    0    0  0.32793499310E+03 -0.34998350934E+02  0.36366025079E+03  0.49532063968E+03  0.65783841631E+02 0.  0.
        254    2    1    2    0    0 -0.32793499310E+03  0.34998350934E+02  0.25277358017E+04  0.27025707848E+04  0.89759362686E+03 0.  0.
         23    2    4    4    0    0 -0.59693267927E+02  0.40337092484E+03  0.17246578852E+04  0.17745518960E+04  0.91204283602E+02 0.  0.
         23    2    4    4    0    0 -0.26824172518E+03 -0.36837257391E+03  0.80307791651E+03  0.92801888873E+03  0.92913624057E+02 0.  0.
          4    1    3    3  502    0  0.98569482442E+01 -0.12934122694E+02  0.27891012315E+02  0.32285593173E+02  0.00000000000E+00 0. -1.
         -3    1    3    3    0  502  0.31807804486E+03 -0.22064228241E+02  0.33576923848E+03  0.46303504651E+03  0.00000000000E+00 0.  1.
         13    1    5    5    0    0 -0.66970530218E+02  0.15781158723E+03  0.76128052912E+03  0.78034453481E+03  0.00000000000E+00 0.  1.
        -13    1    5    5    0    0  0.72772622912E+01  0.24555933761E+03  0.96337735612E+03  0.99420736123E+03  0.00000000000E+00 0. -1.
          1    1    6    6  503    0 -0.13080602160E+03 -0.22042920721E+03  0.36920531604E+03  0.44945724610E+03  0.00000000000E+00 0.  1.
         -1    1    6    6    0  503 -0.13743570357E+03 -0.14794336670E+03  0.43387260047E+03  0.47856164264E+03  0.00000000000E+00 0. -1.
<mgrwt>
<rscale>  0 0.13661400E+04</rscale>
<asrwt>0</asrwt>
<pdfrwt beam="1">  1        2 0.46840668E+00 0.13661400E+04</pdfrwt>
<pdfrwt beam="2">  1       -1 0.23576569E-01 0.13661400E+04</pdfrwt>
<totfact> 0.28378489E+01</totfact>
</mgrwt>
</event>
<event>
12    7  0.1572140E-007  0.2722854E+04  0.7818608E-02  0.8327627E-01
         -1   -1    0    0    0  501 -0.00000000000E+00  0.00000000000E+00  0.98955567172E+03  0.98955567172E+03  0.00000000000E+00 0.  1.
          2   -1    0    0  501    0  0.00000000000E+00 -0.00000000000E+00 -0.18730467866E+04  0.18730467866E+04  0.00000000000E+00 0. -1.
         24    2    1    2    0    0  0.95046628760E+03  0.39153585626E+03 -0.10516439319E+04  0.14733183345E+04  0.89584957953E+02 0.  0.
        254    2    1    2    0    0 -0.95046628760E+03 -0.39153585626E+03  0.16815281706E+03  0.13892841238E+04  0.91931959413E+03 0.  0.
         23    2    4    4    0    0 -0.59000971295E+03 -0.58680897791E+03 -0.16542697178E+03  0.85294679801E+03  0.87726388906E+02 0.  0.
         23    2    4    4    0    0 -0.36045657465E+03  0.19527312166E+03  0.33357978884E+03  0.53633732578E+03  0.91223446843E+02 0.  0.
          2    1    3    3  502    0  0.94824375246E+03  0.39456836415E+03 -0.10425395604E+04  0.14634681899E+04  0.00000000000E+00 0. -1.
         -1    1    3    3    0  502  0.22225351388E+01 -0.30325078935E+01 -0.91043715740E+01  0.98501445839E+01  0.00000000000E+00 0.  1.
         13    1    5    5    0    0 -0.53563524352E+03 -0.49120848088E+03 -0.14312988502E+03  0.74072737885E+03  0.00000000000E+00 0.  1.
        -13    1    5    5    0    0 -0.54374469423E+02 -0.95600497038E+02 -0.22297086767E+02  0.11221941916E+03  0.00000000000E+00 0. -1.
          3    1    6    6  503    0 -0.19677471270E+03  0.57727330469E+02  0.14384325219E+03  0.25048675303E+03  0.00000000000E+00 0. -1.
         -3    1    6    6    0  503 -0.16368186195E+03  0.13754579119E+03  0.18973653665E+03  0.28585057276E+03  0.00000000000E+00 0.  1.
<mgrwt>
<rscale>  0 0.27228544E+04</rscale>
<asrwt>0</asrwt>
<pdfrwt beam="1">  1        2 0.28816104E+00 0.27228544E+04</pdfrwt>
<pdfrwt beam="2">  1       -1 0.15223934E+00 0.27228544E+04</pdfrwt>
<totfact> 0.26250407E+00</totfact>
</mgrwt>
</event>
<event>
12    7  0.1572140E-007  0.1926966E+04  0.7818608E-02  0.8641549E-01
          2   -1    0    0  501    0  0.00000000000E+00  0.00000000000E+00  0.23990539208E+04  0.23990539208E+04  0.00000000000E+00 0. -1.
         -1   -1    0    0    0  501 -0.00000000000E+00 -0.00000000000E+00 -0.38694391231E+03  0.38694391231E+03  0.00000000000E+00 0.  1.
         24    2    1    2    0    0 -0.15367650666E+03  0.35713028214E+03  0.17164673832E+04  0.17610811282E+04  0.63150259598E+02 0.  0.
        254    2    1    2    0    0  0.15367650666E+03 -0.35713028214E+03  0.29564262522E+03  0.10249167049E+04  0.90105004466E+03 0.  0.
         23    2    4    4    0    0  0.52245025205E+02 -0.18809380574E+03 -0.31218161317E+03  0.37938846858E+03  0.91484578339E+02 0.  0.
         23    2    4    4    0    0  0.10143148145E+03 -0.16903647640E+03  0.60782423840E+03  0.64552823630E+03  0.91622722569E+02 0.  0.
          2    1    3    3  502    0 -0.15570009268E+03  0.31683384008E+03  0.15112627328E+04  0.15519475663E+04  0.00000000000E+00 0. -1.
         -1    1    3    3    0  502  0.20235860212E+01  0.40296442064E+02  0.20520465042E+03  0.20913356186E+03  0.00000000000E+00 0.  1.
         13    1    5    5    0    0 -0.23712638760E+02 -0.71263105110E+02 -0.12834538931E+03  0.14870527342E+03  0.00000000000E+00 0.  1.
        -13    1    5    5    0    0  0.75957663965E+02 -0.11683070063E+03 -0.18383622387E+03  0.23068319516E+03  0.00000000000E+00 0. -1.
          2    1    6    6  503    0  0.13579611921E+02 -0.13964208158E+02  0.19373894111E+03  0.19471564465E+03  0.00000000000E+00 0. -1.
         -2    1    6    6    0  503  0.87851869533E+02 -0.15507226824E+03  0.41408529729E+03  0.45081259165E+03  0.00000000000E+00 0.  1.
<mgrwt>
<rscale>  0 0.19269658E+04</rscale>
<asrwt>0</asrwt>
<pdfrwt beam="1">  1        2 0.36908521E+00 0.19269658E+04</pdfrwt>
<pdfrwt beam="2">  1       -1 0.59529834E-01 0.19269658E+04</pdfrwt>
<totfact> 0.12121213E+01</totfact>
</mgrwt>
</event>
<event>
12    7  0.1572140E-007  0.1361691E+04  0.7818608E-02  0.8982025E-01
          2   -1    0    0  501    0  0.00000000000E+00  0.00000000000E+00  0.12365793408E+04  0.12365793408E+04  0.00000000000E+00 0. -1.
         -1   -1    0    0    0  501 -0.00000000000E+00 -0.00000000000E+00 -0.37486524115E+03  0.37486524115E+03  0.00000000000E+00 0.  1.
         24    2    1    2    0    0  0.84200848953E+02  0.12356958830E+03  0.66784545351E+03  0.68883546341E+03  0.78214575115E+02 0.  0.
        254    2    1    2    0    0 -0.84200848953E+02 -0.12356958830E+03  0.19386864614E+03  0.92260911854E+03  0.88952982386E+03 0.  0.
         23    2    4    4    0    0 -0.18652014971E+03 -0.34356066943E+03 -0.20172403667E+03  0.44945049345E+03  0.92138261698E+02 0.  0.
         23    2    4    4    0    0  0.10231930076E+03  0.21999108113E+03  0.39559268281E+03  0.47315862509E+03  0.92304922484E+02 0.  0.
          2    1    3    3  502    0  0.50271096500E+02  0.12499481868E+03  0.54094453824E+03  0.55746917519E+03  0.00000000000E+00 0. -1.
         -1    1    3    3    0  502  0.33929752453E+02 -0.14252303817E+01  0.12690091527E+03  0.13136628822E+03  0.00000000000E+00 0.  1.
         13    1    5    5    0    0 -0.74667285660E+02 -0.84231162201E+02 -0.95824327961E+02  0.14782555281E+03  0.00000000000E+00 0. -1.
        -13    1    5    5    0    0 -0.11185286405E+03 -0.25932950723E+03 -0.10589970871E+03  0.30162494064E+03  0.00000000000E+00 0.  1.
          3    1    6    6  503    0  0.79655269220E+02  0.65042454975E+02  0.16479371640E+03  0.19424842812E+03  0.00000000000E+00 0. -1.
         -3    1    6    6    0  503  0.22664031537E+02  0.15494862615E+03  0.23079896642E+03  0.27891019697E+03  0.00000000000E+00 0.  1.
<mgrwt>
<rscale>  0 0.13616910E+04</rscale>
<asrwt>0</asrwt>
<pdfrwt beam="1">  1        2 0.19024297E+00 0.13616910E+04</pdfrwt>
<pdfrwt beam="2">  1       -1 0.57671576E-01 0.13616910E+04</pdfrwt>
<totfact> 0.61036934E+01</totfact>
</mgrwt>
</event>
<event>
12    7  0.1572140E-007  0.1307609E+04  0.7818608E-02  0.9023553E-01
         -1   -1    0    0    0  501 -0.00000000000E+00  0.00000000000E+00  0.41362265357E+03  0.41362265357E+03  0.00000000000E+00 0.  1.
          2   -1    0    0  501    0  0.00000000000E+00 -0.00000000000E+00 -0.10334549506E+04  0.10334549506E+04  0.00000000000E+00 0. -1.
         24    2    1    2    0    0  0.19004222384E+03 -0.33312688723E+03 -0.10961999288E+03  0.40657565658E+03  0.78725166498E+02 0.  0.
        254    2    1    2    0    0 -0.19004222384E+03  0.33312688723E+03 -0.51021230410E+03  0.10405019475E+04  0.82172874950E+03 0.  0.
         23    2    4    4    0    0  0.27957660731E+03  0.22913660459E+03 -0.61918405297E+02  0.37666156428E+03  0.85868400317E+02 0.  0.
         23    2    4    4    0    0 -0.46961883115E+03  0.10399028264E+03 -0.44829389880E+03  0.66384038327E+03  0.91437461131E+02 0.  0.
          2    1    3    3  502    0  0.18115865186E+03 -0.26884676655E+03 -0.73900325753E+02  0.33250308145E+03  0.00000000000E+00 0. -1.
         -1    1    3    3    0  502  0.88835719862E+01 -0.64280120682E+02 -0.35719667124E+02  0.74072575125E+02  0.00000000000E+00 0.  1.
         13    1    5    5    0    0  0.27853118513E+03  0.22043436674E+03 -0.72901998408E+02  0.36260947658E+03  0.00000000000E+00 0. -1.
        -13    1    5    5    0    0  0.10454221750E+01  0.87022378535E+01  0.10983593111E+02  0.14052087703E+02  0.00000000000E+00 0.  1.
          4    1    6    6  503    0 -0.44699973463E+03  0.79221492280E+02 -0.40005528612E+03  0.60508597700E+03  0.00000000000E+00 0. -1.
         -4    1    6    6    0  503 -0.22619096518E+02  0.24768790361E+02 -0.48238612679E+02  0.58754406273E+02  0.00000000000E+00 0.  1.
<mgrwt>
<rscale>  0 0.13076091E+04</rscale>
<asrwt>0</asrwt>
<pdfrwt beam="1">  1        2 0.15899307E+00 0.13076091E+04</pdfrwt>
<pdfrwt beam="2">  1       -1 0.63634255E-01 0.13076091E+04</pdfrwt>
<totfact> 0.67118352E+01</totfact>
</mgrwt>
</event>
<event>
12    7  0.1572140E-007  0.1787644E+04  0.7818608E-02  0.8712898E-01
          2   -1    0    0  501    0  0.00000000000E+00  0.00000000000E+00  0.19786139538E+04  0.19786139538E+04  0.00000000000E+00 0. -1.
         -1   -1    0    0    0  501 -0.00000000000E+00 -0.00000000000E+00 -0.40377636147E+03  0.40377636147E+03  0.00000000000E+00 0.  1.
         24    2    1    2    0    0 -0.58362948559E+03  0.13998423288E+03  0.21176196592E+03  0.64144693882E+03  0.79950504796E+02 0.  0.
        254    2    1    2    0    0  0.58362948559E+03 -0.13998423288E+03  0.13630756265E+04  0.17409433765E+04  0.90149304755E+03 0.  0.
         23    2    4    4    0    0  0.47367741733E+03 -0.18783018034E+03  0.14687046099E+04  0.15571915510E+04  0.90010127114E+02 0.  0.
         23    2    4    4    0    0  0.10995206826E+03  0.47845947462E+02 -0.10562898342E+03  0.18375182552E+03  0.90711406342E+02 0.  0.
          2    1    3    3  502    0 -0.27620071735E+03  0.10095095307E+03  0.12579433353E+03  0.31984706586E+03  0.00000000000E+00 0. -1.
         -1    1    3    3    0  502 -0.30742876824E+03  0.39033279808E+02  0.85967632381E+02  0.32159987296E+03  0.00000000000E+00 0.  1.
         13    1    5    5    0    0  0.15109898407E+03 -0.59455910558E+02  0.60257161518E+03  0.62406606998E+03  0.00000000000E+00 0.  1.
        -13    1    5    5    0    0  0.32257843326E+03 -0.12837426979E+03  0.86613299470E+03  0.93312548098E+03  0.00000000000E+00 0. -1.
          3    1    6    6  503    0  0.12129456256E+03  0.50616177708E+02 -0.75810070507E+02  0.15172849153E+03  0.00000000000E+00 0.  1.
         -3    1    6    6    0  503 -0.11342494298E+02 -0.27702302458E+01 -0.29818912914E+02  0.32023333991E+02  0.00000000000E+00 0. -1.
<mgrwt>
<rscale>  0 0.17876437E+04</rscale>
<asrwt>0</asrwt>
<pdfrwt beam="1">  1        2 0.30440214E+00 0.17876437E+04</pdfrwt>
<pdfrwt beam="2">  1       -1 0.62119441E-01 0.17876437E+04</pdfrwt>
<totfact> 0.19425283E+01</totfact>
</mgrwt>
</event>
<event>
12    7  0.1572140E-007  0.1270727E+04  0.7818608E-02  0.9053107E-01
         -1   -1    0    0    0  501 -0.00000000000E+00  0.00000000000E+00  0.45595919897E+03  0.45595919897E+03  0.00000000000E+00 0.  1.
          2   -1    0    0  501    0  0.00000000000E+00 -0.00000000000E+00 -0.88535680293E+03  0.88535680293E+03  0.00000000000E+00 0. -1.
         24    2    1    2    0    0 -0.16438879111E+03  0.10760993055E+03  0.14828494314E+03  0.25664370628E+03  0.72622281778E+02 0.  0.
        254    2    1    2    0    0  0.16438879111E+03 -0.10760993055E+03 -0.57768254710E+03  0.10846722956E+04  0.89676824870E+03 0.  0.
         23    2    4    4    0    0  0.31767936547E+03 -0.39426175844E+03 -0.53644698221E+03  0.74353448881E+03  0.93304115236E+02 0.  0.
         23    2    4    4    0    0 -0.15329057436E+03  0.28665182788E+03 -0.41235564893E+02  0.34113780681E+03  0.94907116747E+02 0.  0.
          4    1    3    3  502    0 -0.45891393521E+02  0.40139435408E+01  0.10023841147E+02  0.47144555713E+02  0.00000000000E+00 0. -1.
         -3    1    3    3    0  502 -0.11849739759E+03  0.10359598701E+03  0.13826110200E+03  0.20949915056E+03  0.00000000000E+00 0.  1.
         13    1    5    5    0    0  0.31782038087E+03 -0.35860149263E+03 -0.50077222065E+03  0.69309280907E+03  0.00000000000E+00 0. -1.
        -13    1    5    5    0    0 -0.14101539622E+00 -0.35660265810E+02 -0.35674761559E+02  0.50441679742E+02  0.00000000000E+00 0.  1.
          3    1    6    6  503    0 -0.14263428534E+03  0.29321625100E+03 -0.40840413474E+02  0.32861565480E+03  0.00000000000E+00 0. -1.
         -3    1    6    6    0  503 -0.10656289015E+02 -0.65644231169E+01 -0.39515141945E+00  0.12522152014E+02  0.00000000000E+00 0.  1.
<mgrwt>
<rscale>  0 0.12707267E+04</rscale>
<asrwt>0</asrwt>
<pdfrwt beam="1">  1        2 0.13620874E+00 0.12707267E+04</pdfrwt>
<pdfrwt beam="2">  1       -1 0.70147570E-01 0.12707267E+04</pdfrwt>
<totfact> 0.69101524E+01</totfact>
</mgrwt>
</event>
<event>
12    7  0.1572140E-007  0.1621722E+04  0.7818608E-02  0.8807314E-01
          2   -1    0    0  501    0  0.00000000000E+00  0.00000000000E+00  0.18384620308E+04  0.18384620308E+04  0.00000000000E+00 0. -1.
         -1   -1    0    0    0  501 -0.00000000000E+00 -0.00000000000E+00 -0.35763326417E+03  0.35763326417E+03  0.00000000000E+00 0.  1.
         24    2    1    2    0    0 -0.22969897239E+03 -0.49951866544E+03  0.38185750559E+03  0.67425007167E+03  0.80730970122E+02 0.  0.
        254    2    1    2    0    0  0.22969897239E+03  0.49951866544E+03  0.10989712610E+04  0.15218452233E+04  0.89777198442E+03 0.  0.
         23    2    4    4    0    0  0.18026903518E+03 -0.37888880668E+02 -0.81206020742E+02  0.22116923625E+03  0.91591052695E+02 0.  0.
         23    2    4    4    0    0  0.49429937206E+02  0.53740754611E+03  0.11801772817E+04  0.13006759870E+04  0.87689324012E+02 0.  0.
          4    1    3    3  502    0 -0.22208393331E+02 -0.10654372949E+03  0.50825419271E+02  0.12011661947E+03  0.00000000000E+00 0. -1.
         -3    1    3    3    0  502 -0.20749057906E+03 -0.39297493595E+03  0.33103208632E+03  0.55413345220E+03  0.00000000000E+00 0.  1.
         13    1    5    5    0    0  0.71359020788E+02  0.29275569657E+02 -0.22183825322E+02  0.80257653420E+02  0.00000000000E+00 0. -1.
        -13    1    5    5    0    0  0.10891001439E+03 -0.67164450325E+02 -0.59022195420E+02  0.14091158283E+03  0.00000000000E+00 0.  1.
          3    1    6    6  503    0  0.45348350595E+02  0.18564433247E+03  0.49166665005E+03  0.52750012877E+03  0.00000000000E+00 0. -1.
         -3    1    6    6    0  503  0.40815866110E+01  0.35176321363E+03  0.68851063169E+03  0.77317585824E+03  0.00000000000E+00 0.  1.
<mgrwt>
<rscale>  0 0.16217215E+04</rscale>
<asrwt>0</asrwt>
<pdfrwt beam="1">  1        2 0.28284031E+00 0.16217215E+04</pdfrwt>
<pdfrwt beam="2">  1       -1 0.55020503E-01 0.16217215E+04</pdfrwt>
<totfact> 0.29909139E+01</totfact>
</mgrwt>
</event>
<event>
12    7  0.1572140E-007  0.2239098E+04  0.7818608E-02  0.8502329E-01
          4   -1    0    0  501    0  0.00000000000E+00  0.00000000000E+00  0.13424954301E+04  0.13424954301E+04  0.00000000000E+00 0. -1.
         -3   -1    0    0    0  501 -0.00000000000E+00 -0.00000000000E+00 -0.93362673337E+03  0.93362673337E+03  0.00000000000E+00 0.  1.
         24    2    1    2    0    0 -0.61253203823E+02  0.88855292060E+03  0.46168891357E+03  0.10063069895E+04  0.78859727502E+02 0.  0.
        254    2    1    2    0    0  0.61253203823E+02 -0.88855292060E+03 -0.52820216859E+02  0.12698151739E+04  0.90352772669E+03 0.  0.
         23    2    4    4    0    0  0.14293837332E+03 -0.35427482835E+03 -0.44648135805E+03  0.59501248480E+03  0.93553307890E+02 0.  0.
         23    2    4    4    0    0 -0.81685169492E+02 -0.53427809225E+03  0.39366114119E+03  0.67480268911E+03  0.90906701513E+02 0.  0.
          4    1    3    3  502    0 -0.28551715996E+02  0.66850083361E+03  0.37882993058E+03  0.76890876008E+03  0.00000000000E+00 0. -1.
         -3    1    3    3    0  502 -0.32701487827E+02  0.22005208699E+03  0.82858982993E+02  0.23739822947E+03  0.00000000000E+00 0.  1.
         13    1    5    5    0    0  0.14579890588E+02 -0.15490490557E+03 -0.16089038037E+03  0.22381648169E+03  0.00000000000E+00 0.  1.
        -13    1    5    5    0    0  0.12835848273E+03 -0.19936992278E+03 -0.28559097767E+03  0.37119600311E+03  0.00000000000E+00 0. -1.
          1    1    6    6  503    0 -0.86772128152E+02 -0.33408804871E+03  0.28058656230E+03  0.44482923179E+03  0.00000000000E+00 0. -1.
         -1    1    6    6    0  503  0.50869586601E+01 -0.20019004354E+03  0.11307457889E+03  0.22997345732E+03  0.00000000000E+00 0.  1.
<mgrwt>
<rscale>  0 0.22390977E+04</rscale>
<asrwt>0</asrwt>
<pdfrwt beam="1">  1        4 0.20653776E+00 0.22390977E+04</pdfrwt>
<pdfrwt beam="2">  1       -3 0.14363488E+00 0.22390977E+04</pdfrwt>
<totfact> 0.89319005E-02</totfact>
</mgrwt>
</event>
<event>
12    7  0.1572140E-007  0.1436679E+04  0.7818608E-02  0.8927688E-01
         -3   -1    0    0    0  501 -0.00000000000E+00  0.00000000000E+00  0.80552403107E+03  0.80552403107E+03  0.00000000000E+00 0.  1.
          2   -1    0    0  501    0  0.00000000000E+00 -0.00000000000E+00 -0.64059080771E+03  0.64059080771E+03  0.00000000000E+00 0. -1.
         24    2    1    2    0    0 -0.21250809621E+03 -0.30012593575E+03  0.27223138789E+03  0.46443687738E+03  0.79727136229E+02 0.  0.
        254    2    1    2    0    0  0.21250809621E+03  0.30012593575E+03 -0.10729816454E+03  0.98167796140E+03  0.90384924380E+03 0.  0.
         23    2    4    4    0    0 -0.82688588003E+02  0.48031864578E+03  0.17508585215E+03  0.52566773845E+03  0.90156040045E+02 0.  0.
         23    2    4    4    0    0  0.29519668421E+03 -0.18019271003E+03 -0.28238401669E+03  0.45601022295E+03  0.92704344221E+02 0.  0.
          2    1    3    3  502    0 -0.93630842286E+02 -0.14482257112E+03  0.17621558462E+03  0.24656083225E+03  0.00000000000E+00 0. -1.
         -1    1    3    3    0  502 -0.11887725393E+03 -0.15530336463E+03  0.96015803267E+02  0.21787604513E+03  0.00000000000E+00 0.  1.
         13    1    5    5    0    0 -0.12738053337E+02  0.48638171035E+01 -0.14140509798E+01  0.13708182221E+02  0.00000000000E+00 0.  1.
        -13    1    5    5    0    0 -0.69950534666E+02  0.47545482867E+03  0.17649990313E+03  0.51195955623E+03  0.00000000000E+00 0. -1.
          1    1    6    6  503    0  0.28605198436E+03 -0.19059823398E+03 -0.27564107411E+03  0.44060347967E+03  0.00000000000E+00 0. -1.
         -1    1    6    6    0  503  0.91446998504E+01  0.10405523954E+02 -0.67429425754E+01  0.15406743286E+02  0.00000000000E+00 0.  1.
<mgrwt>
<rscale>  0 0.14366785E+04</rscale>
<asrwt>0</asrwt>
<pdfrwt beam="1">  1        2 0.98552431E-01 0.14366785E+04</pdfrwt>
<pdfrwt beam="2">  1       -3 0.12392677E+00 0.14366785E+04</pdfrwt>
<totfact> 0.14626526E+01</totfact>
</mgrwt>
</event>
<event>
12    7  0.1572140E-007  0.1411114E+04  0.7818608E-02  0.8945813E-01
          2   -1    0    0  501    0  0.00000000000E+00  0.00000000000E+00  0.31930989231E+03  0.31930989231E+03  0.00000000000E+00 0. -1.
         -1   -1    0    0    0  501 -0.00000000000E+00 -0.00000000000E+00 -0.15590194780E+04  0.15590194780E+04  0.00000000000E+00 0.  1.
         24    2    1    2    0    0 -0.13906163160E+03  0.91683233392E+02 -0.86132937519E+03  0.88106704882E+03  0.81528518187E+02 0.  0.
        254    2    1    2    0    0  0.13906163160E+03 -0.91683233392E+02 -0.37838021053E+03  0.99726232152E+03  0.90753325092E+03 0.  0.
         23    2    4    4    0    0  0.46870527734E+03  0.34990636731E+02 -0.41151620398E+03  0.63098860072E+03  0.88837190606E+02 0.  0.
         23    2    4    4    0    0 -0.32964364575E+03 -0.12667387012E+03  0.33135993444E+02  0.36627372080E+03  0.91363241702E+02 0.  0.
          4    1    3    3  502    0 -0.60095233491E+02 -0.53183647974E+01 -0.28864073423E+03  0.29487827242E+03  0.00000000000E+00 0. -1.
         -3    1    3    3    0  502 -0.78966398107E+02  0.97001598190E+02 -0.57268864097E+03  0.58618877640E+03  0.00000000000E+00 0.  1.
         13    1    5    5    0    0  0.45622480121E+03  0.45053702319E+02 -0.40972992723E+03  0.61485731564E+03  0.00000000000E+00 0.  1.
        -13    1    5    5    0    0  0.12480476135E+02 -0.10063065588E+02 -0.17862767425E+01  0.16131285076E+02  0.00000000000E+00 0. -1.
          3    1    6    6  503    0 -0.14842748183E+03 -0.11128982774E+02  0.18660771748E+00  0.14884423550E+03  0.00000000000E+00 0. -1.
         -3    1    6    6    0  503 -0.18121616392E+03 -0.11554488735E+03  0.32949385727E+02  0.21742948530E+03  0.00000000000E+00 0.  1.
<mgrwt>
<rscale>  0 0.14111135E+04</rscale>
<asrwt>0</asrwt>
<pdfrwt beam="1">  1        2 0.49124599E-01 0.14111135E+04</pdfrwt>
<pdfrwt beam="2">  1       -1 0.23984915E+00 0.14111135E+04</pdfrwt>
<totfact> 0.92726092E+00</totfact>
</mgrwt>
</event>
<event>
12    7  0.1572140E-007  0.1160699E+04  0.7818608E-02  0.9147970E-01
          2   -1    0    0  501    0  0.00000000000E+00  0.00000000000E+00  0.12199119088E+04  0.12199119088E+04  0.00000000000E+00 0. -1.
         -1   -1    0    0    0  501 -0.00000000000E+00 -0.00000000000E+00 -0.27608985692E+03  0.27608985692E+03  0.00000000000E+00 0.  1.
         24    2    1    2    0    0 -0.19200895416E+03 -0.67773584846E+02  0.86109404784E+02  0.23477576855E+03  0.79019836929E+02 0.  0.
        254    2    1    2    0    0  0.19200895416E+03  0.67773584846E+02  0.85771264709E+03  0.12612259972E+04  0.90197524005E+03 0.  0.
         23    2    4    4    0    0  0.30544562583E+03  0.15947942913E+02  0.10021136268E+04  0.10514785062E+04  0.88453156162E+02 0.  0.
         23    2    4    4    0    0 -0.11343667167E+03  0.51825641933E+02 -0.14440097971E+03  0.20974749093E+03  0.87112521309E+02 0.  0.
          2    1    3    3  502    0 -0.15537183895E+02 -0.57255444117E+01  0.38261934865E+02  0.41691265294E+02  0.00000000000E+00 0. -1.
         -1    1    3    3    0  502 -0.17647177026E+03 -0.62048040434E+02  0.47847469919E+02  0.19308450326E+03  0.00000000000E+00 0.  1.
         13    1    5    5    0    0  0.28135771212E+03  0.40038263509E+02  0.90400093724E+03  0.94761960683E+03  0.00000000000E+00 0.  1.
        -13    1    5    5    0    0  0.24087913705E+02 -0.24090320596E+02  0.98112689559E+02  0.10385889940E+03  0.00000000000E+00 0. -1.
          3    1    6    6  503    0 -0.24808708003E+02  0.48555679566E+02 -0.22472851730E+02  0.58975885545E+02  0.00000000000E+00 0. -1.
         -3    1    6    6    0  503 -0.88627963666E+02  0.32699623668E+01 -0.12192812798E+03  0.15077160539E+03  0.00000000000E+00 0.  1.
<mgrwt>
<rscale>  0 0.11606986E+04</rscale>
<asrwt>0</asrwt>
<pdfrwt beam="1">  1        2 0.18767875E+00 0.11606986E+04</pdfrwt>
<pdfrwt beam="2">  1       -1 0.42475363E-01 0.11606986E+04</pdfrwt>
<totfact> 0.11325090E+02</totfact>
</mgrwt>
</event>
<event>
12    7  0.1572140E-007  0.1582735E+04  0.7818608E-02  0.8831225E-01
          2   -1    0    0  501    0  0.00000000000E+00  0.00000000000E+00  0.80729208166E+03  0.80729208166E+03  0.00000000000E+00 0. -1.
         -1   -1    0    0    0  501 -0.00000000000E+00 -0.00000000000E+00 -0.77575742550E+03  0.77575742550E+03  0.00000000000E+00 0.  1.
         24    2    1    2    0    0  0.19612773069E+03  0.44299812150E+03  0.25154317643E+03  0.55184641730E+03  0.80914005479E+02 0.  0.
        254    2    1    2    0    0 -0.19612773069E+03 -0.44299812150E+03 -0.22000852027E+03  0.10312030899E+04  0.88332476540E+03 0.  0.
         23    2    4    4    0    0  0.24087026862E+03  0.10411120320E+03 -0.16630262349E+03  0.32324615809E+03  0.89296624808E+02 0.  0.
         23    2    4    4    0    0 -0.43699799931E+03 -0.54710932470E+03 -0.53705896781E+02  0.70795693178E+03  0.89570248010E+02 0.  0.
          4    1    3    3  502    0  0.75563786458E+02  0.24629217670E+03  0.16223559047E+03  0.30445050327E+03  0.00000000000E+00 0. -1.
         -3    1    3    3    0  502  0.12056394424E+03  0.19670594480E+03  0.89307585959E+02  0.24739591403E+03  0.00000000000E+00 0.  1.
         13    1    5    5    0    0  0.44467481894E+02  0.41083989855E+02 -0.78335784437E+02  0.99003769078E+02  0.00000000000E+00 0. -1.
        -13    1    5    5    0    0  0.19640278672E+03  0.63027213350E+02 -0.87966839050E+02  0.22424238901E+03  0.00000000000E+00 0.  1.
          4    1    6    6  503    0 -0.23042737884E+03 -0.35189784255E+03 -0.51161983457E+02  0.42372917891E+03  0.00000000000E+00 0. -1.
         -4    1    6    6    0  503 -0.20657062047E+03 -0.19521148216E+03 -0.25439133245E+01  0.28422775287E+03  0.00000000000E+00 0.  1.
<mgrwt>
<rscale>  0 0.15827354E+04</rscale>
<asrwt>0</asrwt>
<pdfrwt beam="1">  1        2 0.12419878E+00 0.15827354E+04</pdfrwt>
<pdfrwt beam="2">  1       -1 0.11934730E+00 0.15827354E+04</pdfrwt>
<totfact> 0.23411770E+01</totfact>
</mgrwt>
</event>
<event>
12    7  0.1572140E-007  0.3242551E+04  0.7818608E-02  0.8177669E-01
         -1   -1    0    0    0  501 -0.00000000000E+00  0.00000000000E+00  0.88838591624E+03  0.88838591624E+03  0.00000000000E+00 0.  1.
          2   -1    0    0  501    0  0.00000000000E+00 -0.00000000000E+00 -0.29587753763E+04  0.29587753763E+04  0.00000000000E+00 0. -1.
         24    2    1    2    0    0  0.10123537372E+04  0.79182850127E+03 -0.18860254704E+04  0.22837404643E+04  0.80783467256E+02 0.  0.
        254    2    1    2    0    0 -0.10123537372E+04 -0.79182850127E+03 -0.18436398968E+03  0.15634208282E+04  0.87088583683E+03 0.  0.
         23    2    4    4    0    0 -0.83659746297E+03 -0.11936606112E+03 -0.70880021844E+02  0.85308962042E+03  0.92705724672E+02 0.  0.
         23    2    4    4    0    0 -0.17575627426E+03 -0.67246244016E+03 -0.11348396784E+03  0.71033120782E+03  0.92713604663E+02 0.  0.
          4    1    3    3  502    0  0.69825468772E+03  0.50712564482E+03 -0.12247907950E+04  0.14982818560E+04  0.00000000000E+00 0. -1.
         -3    1    3    3    0  502  0.31409904951E+03  0.28470285645E+03 -0.66123467539E+03  0.78545860827E+03  0.00000000000E+00 0.  1.
         13    1    5    5    0    0 -0.42664560723E+02 -0.22110988778E+02 -0.18557866888E+02  0.51512668246E+02  0.00000000000E+00 0. -1.
        -13    1    5    5    0    0 -0.79393290225E+03 -0.97255072341E+02 -0.52322154955E+02  0.80157695218E+03  0.00000000000E+00 0.  1.
          2    1    6    6  503    0 -0.30890921146E+02 -0.28596119751E+03 -0.63570264722E+02  0.29456617940E+03  0.00000000000E+00 0. -1.
         -2    1    6    6    0  503 -0.14486535311E+03 -0.38650124264E+03 -0.49913703117E+02  0.41576502842E+03  0.00000000000E+00 0.  1.
<mgrwt>
<rscale>  0 0.32425511E+04</rscale>
<asrwt>0</asrwt>
<pdfrwt beam="1">  1        2 0.45519621E+00 0.32425511E+04</pdfrwt>
<pdfrwt beam="2">  1       -1 0.13667476E+00 0.32425511E+04</pdfrwt>
<totfact> 0.78530106E-01</totfact>
</mgrwt>
</event>
<event>
12    7  0.1572140E-007  0.1360417E+04  0.7818608E-02  0.8982980E-01
         -1   -1    0    0    0  501 -0.00000000000E+00  0.00000000000E+00  0.17673148514E+03  0.17673148514E+03  0.00000000000E+00 0.  1.
          2   -1    0    0  501    0  0.00000000000E+00 -0.00000000000E+00 -0.26180021076E+04  0.26180021076E+04  0.00000000000E+00 0. -1.
         24    2    1    2    0    0 -0.22007614557E+03  0.29098970685E+03 -0.63647048211E+03  0.73700543005E+03  0.70525243593E+02 0.  0.
        254    2    1    2    0    0  0.22007614557E+03 -0.29098970685E+03 -0.18048001403E+04  0.20577281627E+04  0.91860390026E+03 0.  0.
         23    2    4    4    0    0 -0.33512617493E+03 -0.18700167388E+03 -0.95354085265E+03  0.10322180636E+04  0.94629773529E+02 0.  0.
         23    2    4    4    0    0  0.55520232050E+03 -0.10398803297E+03 -0.85125928766E+03  0.10255100990E+04  0.89249429669E+02 0.  0.
          2    1    3    3  502    0 -0.55936284626E+02  0.88326553242E+02 -0.12561170649E+03  0.16342811494E+03  0.00000000000E+00 0. -1.
         -3    1    3    3    0  502 -0.16413986094E+03  0.20266315361E+03 -0.51085877562E+03  0.57357731511E+03  0.00000000000E+00 0.  1.
         13    1    5    5    0    0 -0.19259373765E+03 -0.64564933136E+02 -0.41963332682E+03  0.46621144061E+03  0.00000000000E+00 0. -1.
        -13    1    5    5    0    0 -0.14253243728E+03 -0.12243674074E+03 -0.53390752583E+03  0.56600662302E+03  0.00000000000E+00 0.  1.
          1    1    6    6  503    0  0.53386211277E+03 -0.90937214527E+02 -0.83639922493E+03  0.99641457029E+03  0.00000000000E+00 0. -1.
         -1    1    6    6    0  503  0.21340207728E+02 -0.13050818442E+02 -0.14860062731E+02  0.29095528733E+02  0.00000000000E+00 0.  1.
<mgrwt>
<rscale>  0 0.13604167E+04</rscale>
<asrwt>0</asrwt>
<pdfrwt beam="1">  1        2 0.40276954E+00 0.13604167E+04</pdfrwt>
<pdfrwt beam="2">  1       -1 0.27189460E-01 0.13604167E+04</pdfrwt>
<totfact> 0.40214413E+01</totfact>
</mgrwt>
</event>
<event>
12    7  0.1572140E-007  0.2429256E+04  0.7818608E-02  0.8428631E-01
         -1   -1    0    0    0  501 -0.00000000000E+00  0.00000000000E+00  0.84741334053E+03  0.84741334053E+03  0.00000000000E+00 0.  1.
          2   -1    0    0  501    0  0.00000000000E+00 -0.00000000000E+00 -0.17409704126E+04  0.17409704126E+04  0.00000000000E+00 0. -1.
         24    2    1    2    0    0  0.61618161532E+01  0.10010935294E+03 -0.14953634998E+04  0.15008022830E+04  0.78966104377E+02 0.  0.
        254    2    1    2    0    0 -0.61618161532E+01 -0.10010935294E+03  0.60180642770E+03  0.10875814702E+04  0.90033473068E+03 0.  0.
         23    2    4    4    0    0 -0.38946935264E+03 -0.25326110694E+03  0.39539040958E+03  0.61701281899E+03  0.92432017566E+02 0.  0.
         23    2    4    4    0    0  0.38330753649E+03  0.15315175401E+03  0.20641601812E+03  0.47056865116E+03  0.91908408932E+02 0.  0.
          4    1    3    3  502    0  0.21813549906E+02  0.69755604452E+02 -0.13269358376E+04  0.13289470991E+04  0.00000000000E+00 0. -1.
         -3    1    3    3    0  502 -0.15651733753E+02  0.30353748484E+02 -0.16842766224E+03  0.17185518387E+03  0.00000000000E+00 0.  1.
         13    1    5    5    0    0 -0.39283068011E+03 -0.24459879200E+03  0.39369210072E+03  0.60756726578E+03  0.00000000000E+00 0. -1.
        -13    1    5    5    0    0  0.33613274620E+01 -0.86623149402E+01  0.16983088633E+01  0.94455532091E+01  0.00000000000E+00 0.  1.
          4    1    6    6  503    0  0.24707431159E+03  0.62200347620E+02  0.92530981771E+02  0.27106564017E+03  0.00000000000E+00 0. -1.
         -4    1    6    6    0  503  0.13623322490E+03  0.90951406386E+02  0.11388503635E+03  0.19950301099E+03  0.00000000000E+00 0.  1.
<mgrwt>
<rscale>  0 0.24292563E+04</rscale>
<asrwt>0</asrwt>
<pdfrwt beam="1">  1        2 0.26784160E+00 0.24292563E+04</pdfrwt>
<pdfrwt beam="2">  1       -1 0.13037129E+00 0.24292563E+04</pdfrwt>
<totfact> 0.47851146E+00</totfact>
</mgrwt>
</event>
<event>
12    7  0.1572140E-007  0.1874298E+04  0.7818608E-02  0.8667757E-01
         -1   -1    0    0    0  501 -0.00000000000E+00  0.00000000000E+00  0.48348386286E+03  0.48348386286E+03  0.00000000000E+00 0.  1.
          2   -1    0    0  501    0  0.00000000000E+00 -0.00000000000E+00 -0.18165003733E+04  0.18165003733E+04  0.00000000000E+00 0. -1.
         24    2    1    2    0    0  0.22198094883E+03  0.36912659647E+03  0.19621567915E+03  0.48019595070E+03  0.80978839572E+02 0.  0.
        254    2    1    2    0    0 -0.22198094883E+03 -0.36912659647E+03 -0.15292321896E+04  0.18197882854E+04  0.88743919699E+03 0.  0.
         23    2    4    4    0    0  0.71017964555E+02 -0.33983948201E+02 -0.13099666150E+04  0.13153365214E+04  0.88877286402E+02 0.  0.
         23    2    4    4    0    0 -0.29299891339E+03 -0.33514264826E+03 -0.21926557458E+03  0.50445176407E+03  0.90693065601E+02 0.  0.
          2    1    3    3  502    0  0.33067587139E+02  0.17363143493E+02  0.56652099266E+01  0.37776165431E+02  0.00000000000E+00 0. -1.
         -1    1    3    3    0  502  0.18891336170E+03  0.35176345297E+03  0.19055046922E+03  0.44241978526E+03  0.00000000000E+00 0.  1.
         13    1    5    5    0    0  0.33604947624E+02 -0.44908433312E+02 -0.11204807004E+04  0.11218837105E+04  0.00000000000E+00 0.  1.
        -13    1    5    5    0    0  0.37413016931E+02  0.10924485111E+02 -0.18948591460E+03  0.19345281089E+03  0.00000000000E+00 0. -1.
          3    1    6    6  503    0 -0.15372227873E+03 -0.13086357180E+03 -0.13661961120E+03  0.24376367976E+03  0.00000000000E+00 0. -1.
         -3    1    6    6    0  503 -0.13927663466E+03 -0.20427907646E+03 -0.82645963377E+02  0.26068808432E+03  0.00000000000E+00 0.  1.
<mgrwt>
<rscale>  0 0.18742984E+04</rscale>
<asrwt>0</asrwt>
<pdfrwt beam="1">  1        2 0.27946160E+00 0.18742984E+04</pdfrwt>
<pdfrwt beam="2">  1       -1 0.74382132E-01 0.18742984E+04</pdfrwt>
<totfact> 0.16426231E+01</totfact>
</mgrwt>
</event>
<event>
12    7  0.1572140E-007  0.2389928E+04  0.7818608E-02  0.8443284E-01
          2   -1    0    0  501    0  0.00000000000E+00  0.00000000000E+00  0.11863717208E+04  0.11863717208E+04  0.00000000000E+00 0. -1.
         -1   -1    0    0    0  501 -0.00000000000E+00 -0.00000000000E+00 -0.12036186318E+04  0.12036186318E+04  0.00000000000E+00 0.  1.
         24    2    1    2    0    0 -0.65364454070E+03  0.93588674005E+02  0.76053542474E+03  0.10104639667E+04  0.81322015623E+02 0.  0.
        254    2    1    2    0    0  0.65364454070E+03 -0.93588674005E+02 -0.77778233571E+03  0.13795263859E+04  0.92851368448E+03 0.  0.
         23    2    4    4    0    0  0.84231141508E+02 -0.27463002707E+03  0.96647155430E+02  0.31675383181E+03  0.92064001335E+02 0.  0.
         23    2    4    4    0    0  0.56941339919E+03  0.18104135307E+03 -0.87442949114E+03  0.10627725541E+04  0.88605734214E+02 0.  0.
          4    1    3    3  502    0 -0.47243147004E+03  0.71994042374E+02  0.60280281667E+03  0.76925020105E+03  0.00000000000E+00 0. -1.
         -3    1    3    3    0  502 -0.18121307065E+03  0.21594631631E+02  0.15773260807E+03  0.24121376565E+03  0.00000000000E+00 0.  1.
         13    1    5    5    0    0  0.49143533301E+02 -0.53464632271E+02  0.49577797350E+02  0.87929015457E+02  0.00000000000E+00 0. -1.
        -13    1    5    5    0    0  0.35087608208E+02 -0.22116539480E+03  0.47069358080E+02  0.22882481635E+03  0.00000000000E+00 0.  1.
          4    1    6    6  503    0  0.11454534015E+03  0.83293094909E+00 -0.15478522308E+03  0.19256114356E+03  0.00000000000E+00 0. -1.
         -4    1    6    6    0  503  0.45486805904E+03  0.18020842212E+03 -0.71964426806E+03  0.87021141057E+03  0.00000000000E+00 0.  1.
<mgrwt>
<rscale>  0 0.23899281E+04</rscale>
<asrwt>0</asrwt>
<pdfrwt beam="1">  1        2 0.18251873E+00 0.23899281E+04</pdfrwt>
<pdfrwt beam="2">  1       -1 0.18517210E+00 0.23899281E+04</pdfrwt>
<totfact> 0.37843107E+00</totfact>
</mgrwt>
</event>
<event>
12    7  0.1572140E-007  0.1694855E+04  0.7818608E-02  0.8764304E-01
         -1   -1    0    0    0  501 -0.00000000000E+00  0.00000000000E+00  0.47914944845E+03  0.47914944845E+03  0.00000000000E+00 0.  1.
          2   -1    0    0  501    0  0.00000000000E+00 -0.00000000000E+00 -0.14987674607E+04  0.14987674607E+04  0.00000000000E+00 0. -1.
         24    2    1    2    0    0 -0.13467565223E+03 -0.11507935227E+03  0.30750425137E+03  0.36384285799E+03  0.80261896811E+02 0.  0.
        254    2    1    2    0    0  0.13467565223E+03  0.11507935227E+03 -0.13271222637E+04  0.16140740512E+04  0.90144370396E+03 0.  0.
         23    2    4    4    0    0 -0.32968359580E+03 -0.13634771581E+03 -0.68832852317E+03  0.78001811136E+03  0.85732871697E+02 0.  0.
         23    2    4    4    0    0  0.46435924803E+03  0.25142706808E+03 -0.63879374048E+03  0.83405593983E+03  0.93524254026E+02 0.  0.
          4    1    3    3  502    0 -0.45602730610E+02  0.32871260417E+01  0.85408049189E+02  0.96875946978E+02  0.00000000000E+00 0. -1.
         -3    1    3    3    0  502 -0.89072921625E+02 -0.11836647831E+03  0.22209620218E+03  0.26696691102E+03  0.00000000000E+00 0.  1.
         13    1    5    5    0    0 -0.35467964908E+02  0.74306544860E+01 -0.42047031328E+02  0.55508053509E+02  0.00000000000E+00 0. -1.
        -13    1    5    5    0    0 -0.29421563089E+03 -0.14377837030E+03 -0.64628149185E+03  0.72451005785E+03  0.00000000000E+00 0.  1.
          3    1    6    6  503    0  0.26863247215E+03  0.10531433140E+03 -0.29828134630E+03  0.41500153620E+03  0.00000000000E+00 0.  1.
         -3    1    6    6    0  503  0.19572677588E+03  0.14611273667E+03 -0.34051239418E+03  0.41905440363E+03  0.00000000000E+00 0. -1.
<mgrwt>
<rscale>  0 0.16948553E+04</rscale>
<asrwt>0</asrwt>
<pdfrwt beam="1">  1        2 0.23057961E+00 0.16948553E+04</pdfrwt>
<pdfrwt beam="2">  1       -1 0.73715300E-01 0.16948553E+04</pdfrwt>
<totfact> 0.25564393E+01</totfact>
</mgrwt>
</event>
<event>
12    7  0.1572140E-007  0.1457039E+04  0.7818608E-02  0.8913535E-01
         -1   -1    0    0    0  501 -0.00000000000E+00  0.00000000000E+00  0.50860974219E+03  0.50860974219E+03  0.00000000000E+00 0.  1.
          2   -1    0    0  501    0  0.00000000000E+00 -0.00000000000E+00 -0.10435125550E+04  0.10435125550E+04  0.00000000000E+00 0. -1.
         24    2    1    2    0    0 -0.19132712394E+03  0.71378766869E+02 -0.57498172016E+03  0.61521246899E+03  0.78621922924E+02 0.  0.
        254    2    1    2    0    0  0.19132712394E+03 -0.71378766869E+02  0.40078907394E+02  0.93690982816E+03  0.91350572553E+03 0.  0.
         23    2    4    4    0    0  0.13275302912E+03  0.40299156205E+03 -0.59670623203E+02  0.43815365756E+03  0.91610471760E+02 0.  0.
         23    2    4    4    0    0  0.58574094819E+02 -0.47437032891E+03  0.99749530597E+02  0.49875617061E+03  0.10173305916E+03 0.  0.
          2    1    3    3  502    0 -0.17206995873E+03  0.44422130678E+02 -0.53230681076E+03  0.56118796956E+03  0.00000000000E+00 0. -1.
         -1    1    3    3    0  502 -0.19257165204E+02  0.26956636191E+02 -0.42674909399E+02  0.54024499429E+02  0.00000000000E+00 0.  1.
         13    1    5    5    0    0  0.20766487119E+02  0.71014523174E+01 -0.85990282321E+01  0.23571612139E+02  0.00000000000E+00 0. -1.
        -13    1    5    5    0    0  0.11198654200E+03  0.39589010973E+03 -0.51071594971E+02  0.41458204542E+03  0.00000000000E+00 0.  1.
          1    1    6    6  503    0 -0.27076527591E+02 -0.12656247204E+03  0.12108206244E+02  0.12999156255E+03  0.00000000000E+00 0. -1.
         -1    1    6    6    0  503  0.85650622410E+02 -0.34780785687E+03  0.87641324353E+02  0.36876460805E+03  0.00000000000E+00 0.  1.
<mgrwt>
<rscale>  0 0.14570390E+04</rscale>
<asrwt>0</asrwt>
<pdfrwt beam="1">  1        2 0.16054039E+00 0.14570390E+04</pdfrwt>
<pdfrwt beam="2">  1       -1 0.78247653E-01 0.14570390E+04</pdfrwt>
<totfact> 0.42730565E+01</totfact>
</mgrwt>
</event>
<event>
12    7  0.1572140E-007  0.1665357E+04  0.7818608E-02  0.8781373E-01
          2   -1    0    0  501    0  0.00000000000E+00  0.00000000000E+00  0.31561073081E+04  0.31561073081E+04  0.00000000000E+00 0. -1.
         -1   -1    0    0    0  501 -0.00000000000E+00 -0.00000000000E+00 -0.21968615455E+03  0.21968615455E+03  0.00000000000E+00 0.  1.
         24    2    1    2    0    0  0.50101888759E+03  0.87339672928E+02  0.16478178687E+04  0.17263662658E+04  0.79928788946E+02 0.  0.
        254    2    1    2    0    0 -0.50101888759E+03 -0.87339672928E+02  0.12886032848E+04  0.16494271968E+04  0.89524494280E+03 0.  0.
         23    2    4    4    0    0 -0.29422385062E+03 -0.47190585519E+03  0.87661968853E+03  0.10422303137E+04  0.92299176857E+02 0.  0.
         23    2    4    4    0    0 -0.20679503698E+03  0.38456618227E+03  0.41198359631E+03  0.60719688309E+03  0.91116602969E+02 0.  0.
          4    1    3    3  502    0  0.34736618175E+03  0.70534112045E+02  0.10212057247E+04  0.10809715340E+04  0.00000000000E+00 0. -1.
         -3    1    3    3    0  502  0.15365270584E+03  0.16805560883E+02  0.62661214396E+03  0.64539473180E+03  0.00000000000E+00 0.  1.
         13    1    5    5    0    0 -0.21612167974E+03 -0.32188091316E+03  0.68098835204E+03  0.78362046829E+03  0.00000000000E+00 0.  1.
        -13    1    5    5    0    0 -0.78102170879E+02 -0.15002494204E+03  0.19563133650E+03  0.25860984542E+03  0.00000000000E+00 0. -1.
          3    1    6    6  503    0 -0.11836433245E+03  0.28167211827E+03  0.32483609635E+03  0.44594594616E+03  0.00000000000E+00 0. -1.
         -3    1    6    6    0  503 -0.88430704528E+02  0.10289406400E+03  0.87147499965E+02  0.16125093693E+03  0.00000000000E+00 0.  1.
<mgrwt>
<rscale>  0 0.16653565E+04</rscale>
<asrwt>0</asrwt>
<pdfrwt beam="1">  1        2 0.48555494E+00 0.16653565E+04</pdfrwt>
<pdfrwt beam="2">  1       -1 0.33797872E-01 0.16653565E+04</pdfrwt>
<totfact> 0.12511318E+01</totfact>
</mgrwt>
</event>
<event>
12    7  0.1572140E-007  0.2751207E+04  0.7818608E-02  0.8318579E-01
          2   -1    0    0  501    0  0.00000000000E+00  0.00000000000E+00  0.18673451479E+04  0.18673451479E+04  0.00000000000E+00 0. -1.
         -1   -1    0    0    0  501 -0.00000000000E+00 -0.00000000000E+00 -0.10133558828E+04  0.10133558828E+04  0.00000000000E+00 0.  1.
         24    2    1    2    0    0  0.93951767925E+03 -0.60254901068E+03  0.91255248278E+03  0.14439042090E+04  0.79677796120E+02 0.  0.
        254    2    1    2    0    0 -0.93951767925E+03  0.60254901068E+03 -0.58563217702E+02  0.14367968216E+04  0.90288242654E+03 0.  0.
         23    2    4    4    0    0 -0.93543837310E+03  0.27032333667E+03 -0.29191129118E+03  0.10206486240E+04  0.91606525924E+02 0.  0.
         23    2    4    4    0    0 -0.40793061458E+01  0.33222567401E+03  0.23334807348E+03  0.41614819755E+03  0.91309691270E+02 0.  0.
          2    1    3    3  502    0  0.90024866003E+03 -0.56117404720E+03  0.87932944841E+03  0.13778912294E+04  0.00000000000E+00 0. -1.
         -1    1    3    3    0  502  0.39269019218E+02 -0.41374963480E+02  0.33223034366E+02  0.66012979677E+02  0.00000000000E+00 0.  1.
         13    1    5    5    0    0 -0.80784724829E+03  0.22405806960E+03 -0.21851400628E+03  0.86635302623E+03  0.00000000000E+00 0. -1.
        -13    1    5    5    0    0 -0.12759112481E+03  0.46265267069E+02 -0.73397284907E+02  0.15429559780E+03  0.00000000000E+00 0.  1.
          1    1    6    6  503    0  0.39919585297E+02  0.22629984325E+03  0.15973112027E+03  0.27985571841E+03  0.00000000000E+00 0. -1.
         -1    1    6    6    0  503 -0.43998891443E+02  0.10592583076E+03  0.73616953210E+02  0.13629247914E+03  0.00000000000E+00 0.  1.
<mgrwt>
<rscale>  0 0.27512071E+04</rscale>
<asrwt>0</asrwt>
<pdfrwt beam="1">  1        2 0.28728387E+00 0.27512071E+04</pdfrwt>
<pdfrwt beam="2">  1       -1 0.15590090E+00 0.27512071E+04</pdfrwt>
<totfact> 0.24720682E+00</totfact>
</mgrwt>
</event>
<event>
12    7  0.1572140E-007  0.2462228E+04  0.7818608E-02  0.8416567E-01
          2   -1    0    0  501    0  0.00000000000E+00  0.00000000000E+00  0.17514535358E+04  0.17514535358E+04  0.00000000000E+00 0. -1.
         -1   -1    0    0    0  501 -0.00000000000E+00 -0.00000000000E+00 -0.86536250512E+03  0.86536250512E+03  0.00000000000E+00 0.  1.
         24    2    1    2    0    0  0.25811054426E+03 -0.31592324681E+03 -0.65361275477E+03  0.77445021183E+03  0.78325899080E+02 0.  0.
        254    2    1    2    0    0 -0.25811054426E+03  0.31592324681E+03  0.15397037855E+04  0.18423658291E+04  0.92584855692E+03 0.  0.
         23    2    4    4    0    0 -0.70651549302E+02 -0.31008332099E+03  0.34990227913E+03  0.48163508727E+03  0.91637574068E+02 0.  0.
         23    2    4    4    0    0 -0.18745899496E+03  0.62600656780E+03  0.11898015063E+04  0.13607307418E+04  0.94527401137E+02 0.  0.
          2    1    3    3  502    0  0.97647798694E+02 -0.10208999609E+03 -0.16279535638E+03  0.21554532691E+03  0.00000000000E+00 0. -1.
         -1    1    3    3    0  502  0.16046274557E+03 -0.21383325073E+03 -0.49081739839E+03  0.55890488493E+03  0.00000000000E+00 0.  1.
         13    1    5    5    0    0 -0.33162159032E+02 -0.28015446950E+03  0.28592369111E+03  0.40166978068E+03  0.00000000000E+00 0. -1.
        -13    1    5    5    0    0 -0.37489390270E+02 -0.29928851489E+02  0.63978588018E+02  0.79965306596E+02  0.00000000000E+00 0.  1.
          4    1    6    6  503    0 -0.79787927545E+02  0.18987500077E+03  0.29902625763E+03  0.36309135497E+03  0.00000000000E+00 0.  1.
         -4    1    6    6    0  503 -0.10767106741E+03  0.43613156703E+03  0.89077524869E+03  0.99763938685E+03  0.00000000000E+00 0. -1.
<mgrwt>
<rscale>  0 0.24622284E+04</rscale>
<asrwt>0</asrwt>
<pdfrwt beam="1">  1        2 0.26945439E+00 0.24622284E+04</pdfrwt>
<pdfrwt beam="2">  1       -1 0.13313269E+00 0.24622284E+04</pdfrwt>
<totfact> 0.44640255E+00</totfact>
</mgrwt>
</event>
<event>
12    7  0.1572140E-007  0.2408690E+04  0.7818608E-02  0.8436257E-01
         -1   -1    0    0    0  501 -0.00000000000E+00  0.00000000000E+00  0.74866880162E+03  0.74866880162E+03  0.00000000000E+00 0.  1.
          2   -1    0    0  501    0  0.00000000000E+00 -0.00000000000E+00 -0.19373684036E+04  0.19373684036E+04  0.00000000000E+00 0. -1.
         24    2    1    2    0    0 -0.16752334156E+03  0.93624869686E+03 -0.96771301931E+03  0.13593342033E+04  0.81824789959E+02 0.  0.
        254    2    1    2    0    0  0.16752334156E+03 -0.93624869686E+03 -0.22098658270E+03  0.13267030019E+04  0.89815371358E+03 0.  0.
         23    2    4    4    0    0 -0.27118252649E+03 -0.45627384533E+03  0.16729628203E+03  0.56401243819E+03  0.91630779996E+02 0.  0.
         23    2    4    4    0    0  0.43870586804E+03 -0.47997485153E+03 -0.38828286473E+03  0.76269056373E+03  0.89970085002E+02 0.  0.
          2    1    3    3  502    0 -0.98301597225E+02  0.65021194538E+03 -0.61991080489E+03  0.90373014996E+03  0.00000000000E+00 0. -1.
         -1    1    3    3    0  502 -0.69221744332E+02  0.28603675148E+03 -0.34780221442E+03  0.45560405337E+03  0.00000000000E+00 0.  1.
         13    1    5    5    0    0 -0.15454877627E+02 -0.33815395327E+02 -0.11332724371E+02  0.38868558569E+02  0.00000000000E+00 0. -1.
        -13    1    5    5    0    0 -0.25572764886E+03 -0.42245845000E+03  0.17862900641E+03  0.52514387962E+03  0.00000000000E+00 0.  1.
          4    1    6    6  503    0  0.16579376840E+03 -0.12249377049E+03 -0.13691111955E+03  0.24746101128E+03  0.00000000000E+00 0. -1.
         -4    1    6    6    0  503  0.27291209965E+03 -0.35748108105E+03 -0.25137174518E+03  0.51522955244E+03  0.00000000000E+00 0.  1.
<mgrwt>
<rscale>  0 0.24086903E+04</rscale>
<asrwt>0</asrwt>
<pdfrwt beam="1">  1        2 0.29805668E+00 0.24086903E+04</pdfrwt>
<pdfrwt beam="2">  1       -1 0.11517982E+00 0.24086903E+04</pdfrwt>
<totfact> 0.50623424E+00</totfact>
</mgrwt>
</event>
<event>
12    7  0.1572140E-007  0.1233748E+04  0.7818608E-02  0.9083819E-01
          2   -1    0    0  501    0  0.00000000000E+00  0.00000000000E+00  0.42943644518E+03  0.42943644518E+03  0.00000000000E+00 0. -1.
         -1   -1    0    0    0  501 -0.00000000000E+00 -0.00000000000E+00 -0.88612347827E+03  0.88612347827E+03  0.00000000000E+00 0.  1.
         24    2    1    2    0    0  0.16076309945E+03  0.18243138849E+03  0.49321318260E+02  0.26087760307E+03  0.80613557786E+02 0.  0.
        254    2    1    2    0    0 -0.16076309945E+03 -0.18243138849E+03 -0.50600835134E+03  0.10546823204E+04  0.89285181281E+03 0.  0.
         23    2    4    4    0    0 -0.46455771892E+02  0.30337587059E+03 -0.43798102070E+03  0.54289971472E+03  0.93368453719E+02 0.  0.
         23    2    4    4    0    0 -0.11430732756E+03 -0.48580725908E+03 -0.68027330643E+02  0.51178260566E+03  0.90657926507E+02 0.  0.
          4    1    3    3  502    0  0.14074523537E+03  0.17725414899E+03  0.64361310536E+02  0.23530965324E+03  0.00000000000E+00 0. -1.
         -3    1    3    3    0  502  0.20017864075E+02  0.51772395029E+01 -0.15039992276E+02  0.25567949833E+02  0.00000000000E+00 0.  1.
         13    1    5    5    0    0  0.15726749549E+02  0.13723728437E+02 -0.12141978906E+02  0.24147443453E+02  0.00000000000E+00 0. -1.
        -13    1    5    5    0    0 -0.62182521441E+02  0.28965214215E+03 -0.42583904179E+03  0.51875227127E+03  0.00000000000E+00 0.  1.
          3    1    6    6  503    0 -0.95455403240E+02 -0.31195899567E+03 -0.81919235361E+02  0.33636425213E+03  0.00000000000E+00 0. -1.
         -3    1    6    6    0  503 -0.18851924317E+02 -0.17384826341E+03  0.13891904718E+02  0.17541835353E+03  0.00000000000E+00 0.  1.
<mgrwt>
<rscale>  0 0.12337483E+04</rscale>
<asrwt>0</asrwt>
<pdfrwt beam="1">  1        2 0.66067146E-01 0.12337483E+04</pdfrwt>
<pdfrwt beam="2">  1       -1 0.13632669E+00 0.12337483E+04</pdfrwt>
<totfact> 0.37133354E+01</totfact>
</mgrwt>
</event>
<event>
12    7  0.1572140E-007  0.1913336E+04  0.7818608E-02  0.8648247E-01
          2   -1    0    0  501    0  0.00000000000E+00  0.00000000000E+00  0.16918257887E+04  0.16918257887E+04  0.00000000000E+00 0. -1.
         -1   -1    0    0    0  501 -0.00000000000E+00 -0.00000000000E+00 -0.54096191568E+03  0.54096191568E+03  0.00000000000E+00 0.  1.
         24    2    1    2    0    0  0.13424941969E+03 -0.67462624106E+03  0.11565753418E+03  0.70205093565E+03  0.79720632272E+02 0.  0.
        254    2    1    2    0    0 -0.13424941969E+03  0.67462624106E+03  0.10352063388E+04  0.15307367687E+04  0.89350960787E+03 0.  0.
         23    2    4    4    0    0  0.51477380423E+02  0.75791494307E+03  0.10595211021E+04  0.13066642918E+04  0.87758897072E+02 0.  0.
         23    2    4    4    0    0 -0.18572680012E+03 -0.83288702006E+02 -0.24314763315E+02  0.22407247690E+03  0.90475494062E+02 0.  0.
          2    1    3    3  502    0  0.94378170375E+00 -0.17428238422E+03  0.39199573358E+02  0.17863887238E+03  0.00000000000E+00 0. -1.
         -1    1    3    3    0  502  0.13330563799E+03 -0.50034385684E+03  0.76457960820E+02  0.52341206327E+03  0.00000000000E+00 0.  1.
         13    1    5    5    0    0  0.13051852927E+02  0.46570093385E+03  0.58184409297E+03  0.74537927203E+03  0.00000000000E+00 0.  1.
        -13    1    5    5    0    0  0.38425527496E+02  0.29221400922E+03  0.47767700917E+03  0.56128501979E+03  0.00000000000E+00 0. -1.
          2    1    6    6  503    0 -0.77872843881E+02 -0.46040677233E+01  0.24742999997E+02  0.81838825154E+02  0.00000000000E+00 0. -1.
         -2    1    6    6    0  503 -0.10785395624E+03 -0.78684634283E+02 -0.49057763312E+02  0.14223365175E+03  0.00000000000E+00 0.  1.
<mgrwt>
<rscale>  0 0.19133356E+04</rscale>
<asrwt>0</asrwt>
<pdfrwt beam="1">  1        2 0.26028089E+00 0.19133356E+04</pdfrwt>
<pdfrwt beam="2">  1       -1 0.83224911E-01 0.19133356E+04</pdfrwt>
<totfact> 0.15133946E+01</totfact>
</mgrwt>
</event>
<event>
12    7  0.1572140E-007  0.2222768E+04  0.7818608E-02  0.8509011E-01
          2   -1    0    0  501    0  0.00000000000E+00  0.00000000000E+00  0.11774628783E+04  0.11774628783E+04  0.00000000000E+00 0. -1.
         -1   -1    0    0    0  501 -0.00000000000E+00 -0.00000000000E+00 -0.10490131864E+04  0.10490131864E+04  0.00000000000E+00 0.  1.
         24    2    1    2    0    0  0.41858677773E+03  0.23697399901E+03 -0.73995516616E+03  0.88649957881E+03  0.83524179711E+02 0.  0.
        254    2    1    2    0    0 -0.41858677773E+03 -0.23697399901E+03  0.86840485808E+03  0.13399764858E+04  0.90002134328E+03 0.  0.
         23    2    4    4    0    0 -0.36186464582E+03 -0.66695161368E+02  0.10200600999E+04  0.10883290938E+04  0.92430203768E+02 0.  0.
         23    2    4    4    0    0 -0.56722131912E+02 -0.17027883764E+03 -0.15165524179E+03  0.25164739206E+03  0.90082266669E+02 0.  0.
          4    1    3    3  502    0  0.63405348822E+02  0.54093712651E+02 -0.18295801371E+03  0.20104726506E+03  0.00000000000E+00 0. -1.
         -3    1    3    3    0  502  0.35518142891E+03  0.18288028636E+03 -0.55699715245E+03  0.68545231375E+03  0.00000000000E+00 0.  1.
         13    1    5    5    0    0 -0.17134353341E+02  0.16487356588E+01  0.13426309910E+03  0.13536204849E+03  0.00000000000E+00 0. -1.
        -13    1    5    5    0    0 -0.34473029248E+03 -0.68343897027E+02  0.88579700077E+03  0.95296704528E+03  0.00000000000E+00 0.  1.
          2    1    6    6  503    0 -0.29136223454E+02 -0.51298495848E+02 -0.27498449977E+01  0.59059434818E+02  0.00000000000E+00 0. -1.
         -2    1    6    6    0  503 -0.27585908458E+02 -0.11898034180E+03 -0.14890539679E+03  0.19258795724E+03  0.00000000000E+00 0.  1.
<mgrwt>
<rscale>  0 0.22227677E+04</rscale>
<asrwt>0</asrwt>
<pdfrwt beam="1">  1        2 0.18114814E+00 0.22227677E+04</pdfrwt>
<pdfrwt beam="2">  1       -1 0.16138664E+00 0.22227677E+04</pdfrwt>
<totfact> 0.57978180E+00</totfact>
</mgrwt>
</event>
<event>
12    7  0.1572140E-007  0.1328852E+04  0.7818608E-02  0.9006993E-01
          2   -1    0    0  501    0  0.00000000000E+00  0.00000000000E+00  0.20490418266E+04  0.20490418266E+04  0.00000000000E+00 0. -1.
         -1   -1    0    0    0  501 -0.00000000000E+00 -0.00000000000E+00 -0.21544804224E+03  0.21544804224E+03  0.00000000000E+00 0.  1.
         24    2    1    2    0    0 -0.10703620644E+03 -0.70638660977E+02 -0.62861606263E+02  0.16314491534E+03  0.78855005836E+02 0.  0.
        254    2    1    2    0    0  0.10703620644E+03  0.70638660977E+02  0.18964553906E+04  0.21013449535E+04  0.89591349752E+03 0.  0.
         23    2    4    4    0    0 -0.79122066092E+02 -0.36366886304E+03  0.11579813989E+04  0.12198885465E+04  0.93229835728E+02 0.  0.
         23    2    4    4    0    0  0.18615827254E+03  0.43430752402E+03  0.73847399168E+03  0.88145640700E+03  0.91343490240E+02 0.  0.
          4    1    3    3  502    0 -0.27920108680E+02 -0.26497773787E+01 -0.50939596840E+02  0.58149774850E+02  0.00000000000E+00 0. -1.
         -3    1    3    3    0  502 -0.79116097763E+02 -0.67988883599E+02 -0.11922009423E+02  0.10499514049E+03  0.00000000000E+00 0.  1.
         13    1    5    5    0    0 -0.12806202417E+02 -0.25073341090E+03  0.70578754502E+03  0.74911100704E+03  0.00000000000E+00 0.  1.
        -13    1    5    5    0    0 -0.66315863675E+02 -0.11293545214E+03  0.45219385392E+03  0.47077753945E+03  0.00000000000E+00 0. -1.
          3    1    6    6  503    0  0.54925219855E+02  0.52944649605E+02  0.92287160300E+02  0.11973652598E+03  0.00000000000E+00 0. -1.
         -3    1    6    6    0  503  0.13123305268E+03  0.38136287441E+03  0.64618683138E+03  0.76171988102E+03  0.00000000000E+00 0.  1.
<mgrwt>
<rscale>  0 0.13288522E+04</rscale>
<asrwt>0</asrwt>
<pdfrwt beam="1">  1        2 0.31523719E+00 0.13288522E+04</pdfrwt>
<pdfrwt beam="2">  1       -1 0.33145854E-01 0.13288522E+04</pdfrwt>
<totfact> 0.59856393E+01</totfact>
</mgrwt>
</event>
<event>
12    7  0.1572140E-007  0.2203788E+04  0.7818608E-02  0.8516853E-01
         -1   -1    0    0    0  501 -0.00000000000E+00  0.00000000000E+00  0.93744132725E+03  0.93744132725E+03  0.00000000000E+00 0.  1.
          2   -1    0    0  501    0  0.00000000000E+00 -0.00000000000E+00 -0.12951960010E+04  0.12951960010E+04  0.00000000000E+00 0. -1.
         24    2    1    2    0    0  0.34034096878E+03 -0.51441911102E+03  0.54283001147E+03  0.82555251581E+03  0.80084569067E+02 0.  0.
        254    2    1    2    0    0 -0.34034096878E+03  0.51441911102E+03 -0.90058468517E+03  0.14070848124E+04  0.88790534251E+03 0.  0.
         23    2    4    4    0    0  0.82644675325E+02 -0.18579976741E+03 -0.59450658461E+02  0.23022136389E+03  0.90087733199E+02 0.  0.
         23    2    4    4    0    0 -0.42298564410E+03  0.70021887843E+03 -0.84113402671E+03  0.11768634485E+04  0.90982375563E+02 0.  0.
          4    1    3    3  502    0  0.40938015367E+02 -0.48868532415E+02  0.28017782070E+02  0.69635125294E+02  0.00000000000E+00 0. -1.
         -3    1    3    3    0  502  0.29940295341E+03 -0.46555057861E+03  0.51481222940E+03  0.75591739052E+03  0.00000000000E+00 0.  1.
         13    1    5    5    0    0  0.33273159463E+02 -0.15444786679E+03 -0.19042477168E+02  0.15913473107E+03  0.00000000000E+00 0. -1.
        -13    1    5    5    0    0  0.49371515862E+02 -0.31351900623E+02 -0.40408181293E+02  0.71086632826E+02  0.00000000000E+00 0.  1.
          2    1    6    6  503    0 -0.24158861322E+03  0.46507911002E+03 -0.49648941993E+03  0.72191784901E+03  0.00000000000E+00 0. -1.
         -2    1    6    6    0  503 -0.18139703088E+03  0.23513976842E+03 -0.34464460678E+03  0.45494559948E+03  0.00000000000E+00 0.  1.
<mgrwt>
<rscale>  0 0.22037879E+04</rscale>
<asrwt>0</asrwt>
<pdfrwt beam="1">  1        2 0.19926092E+00 0.22037879E+04</pdfrwt>
<pdfrwt beam="2">  1       -1 0.14422174E+00 0.22037879E+04</pdfrwt>
<totfact> 0.67165246E+00</totfact>
</mgrwt>
</event>
<event>
12    7  0.1572140E-007  0.1515112E+04  0.7818608E-02  0.8874465E-01
         -1   -1    0    0    0  501 -0.00000000000E+00  0.00000000000E+00  0.62098050020E+03  0.62098050020E+03  0.00000000000E+00 0.  1.
          2   -1    0    0  501    0  0.00000000000E+00 -0.00000000000E+00 -0.92416913619E+03  0.92416913619E+03  0.00000000000E+00 0. -1.
         24    2    1    2    0    0  0.36285507129E+03 -0.60346221507E+02  0.23340635198E+03  0.44375765888E+03  0.84479970766E+02 0.  0.
        254    2    1    2    0    0 -0.36285507129E+03  0.60346221507E+02 -0.53659498797E+03  0.11013919775E+04  0.88872078732E+03 0.  0.
         23    2    4    4    0    0 -0.29244855111E+03 -0.38968000353E+03 -0.30698522935E+03  0.58311898117E+03  0.91712349032E+02 0.  0.
         23    2    4    4    0    0 -0.70406520181E+02  0.45002622504E+03 -0.22960975862E+03  0.51827299634E+03  0.91681929425E+02 0.  0.
          4    1    3    3  502    0  0.12898921478E+03 -0.13062477169E+02  0.37293254084E+02  0.13490601410E+03  0.00000000000E+00 0. -1.
         -3    1    3    3    0  502  0.23386585651E+03 -0.47283744339E+02  0.19611309789E+03  0.30885164478E+03  0.00000000000E+00 0.  1.
         13    1    5    5    0    0 -0.27202776842E+02 -0.35053399798E+02 -0.64327025520E+02  0.78145365298E+02  0.00000000000E+00 0. -1.
        -13    1    5    5    0    0 -0.26524577427E+03 -0.35462660373E+03 -0.24265820383E+03  0.50497361587E+03  0.00000000000E+00 0.  1.
          1    1    6    6  503    0 -0.57837263737E+02  0.12743230773E+03 -0.48537373838E+02  0.14812163512E+03  0.00000000000E+00 0. -1.
         -1    1    6    6    0  503 -0.12569256444E+02  0.32259391730E+03 -0.18107238478E+03  0.37015136123E+03  0.00000000000E+00 0.  1.
<mgrwt>
<rscale>  0 0.15151119E+04</rscale>
<asrwt>0</asrwt>
<pdfrwt beam="1">  1        2 0.14217987E+00 0.15151119E+04</pdfrwt>
<pdfrwt beam="2">  1       -1 0.95535462E-01 0.15151119E+04</pdfrwt>
<totfact> 0.32898627E+01</totfact>
</mgrwt>
</event>
<event>
12    7  0.1572140E-007  0.2791602E+04  0.7818608E-02  0.8305880E-01
          2   -1    0    0  501    0  0.00000000000E+00  0.00000000000E+00  0.32182516176E+04  0.32182516176E+04  0.00000000000E+00 0. -1.
         -1   -1    0    0    0  501 -0.00000000000E+00 -0.00000000000E+00 -0.60537854669E+03  0.60537854669E+03  0.00000000000E+00 0.  1.
         24    2    1    2    0    0  0.69703157428E+03 -0.13758966986E+02 -0.24895613843E+03  0.74473413602E+03  0.81286221289E+02 0.  0.
        254    2    1    2    0    0 -0.69703157428E+03  0.13758966986E+02  0.28618292093E+04  0.30788960282E+04  0.89637715540E+03 0.  0.
         23    2    4    4    0    0  0.70921902188E+02  0.20346423504E+03  0.22646286211E+03  0.32585720766E+03  0.92031954860E+02 0.  0.
         23    2    4    4    0    0 -0.76795347647E+03 -0.18970526806E+03  0.26353663472E+04  0.27530388206E+04  0.91248742039E+02 0.  0.
          4    1    3    3  502    0  0.30430251954E+03  0.12025256202E+01 -0.66759397753E+02  0.31154178958E+03  0.00000000000E+00 0. -1.
         -3    1    3    3    0  502  0.39272905474E+03 -0.14961492606E+02 -0.18219674068E+03  0.43319234644E+03  0.00000000000E+00 0.  1.
         13    1    5    5    0    0  0.58672098384E+02  0.59414269075E+02  0.48469184904E+02  0.96549119021E+02  0.00000000000E+00 0.  1.
        -13    1    5    5    0    0  0.12249803804E+02  0.14404996597E+03  0.17799367720E+03  0.22930808863E+03  0.00000000000E+00 0. -1.
          1    1    6    6  503    0 -0.40067399291E+03 -0.11189959537E+03  0.12329728362E+04  0.13012621499E+04  0.00000000000E+00 0. -1.
         -1    1    6    6    0  503 -0.36727948356E+03 -0.77805672685E+02  0.14023935110E+04  0.14517766707E+04  0.00000000000E+00 0.  1.
<mgrwt>
<rscale>  0 0.27916020E+04</rscale>
<asrwt>0</asrwt>
<pdfrwt beam="1">  1        2 0.49511562E+00 0.27916020E+04</pdfrwt>
<pdfrwt beam="2">  1       -1 0.93135163E-01 0.27916020E+04</pdfrwt>
<totfact> 0.13971323E+00</totfact>
</mgrwt>
</event>
<event>
12    7  0.1572140E-007  0.2054440E+04  0.7818608E-02  0.8581583E-01
          2   -1    0    0  501    0  0.00000000000E+00  0.00000000000E+00  0.16195840942E+04  0.16195840942E+04  0.00000000000E+00 0. -1.
         -1   -1    0    0    0  501 -0.00000000000E+00 -0.00000000000E+00 -0.65151365458E+03  0.65151365458E+03  0.00000000000E+00 0.  1.
         24    2    1    2    0    0 -0.50580271525E+03  0.60594617660E+03  0.68697901582E+03  0.10494975685E+04  0.80609072028E+02 0.  0.
        254    2    1    2    0    0  0.50580271525E+03 -0.60594617660E+03  0.28109142377E+03  0.12216001802E+04  0.88898113370E+03 0.  0.
         23    2    4    4    0    0  0.12652823964E+03 -0.74673129117E+03  0.10668495405E+03  0.77027815600E+03  0.91267417848E+02 0.  0.
         23    2    4    4    0    0  0.37927447561E+03  0.14078511456E+03  0.17440646971E+03  0.45132202421E+03  0.98001921020E+02 0.  0.
          2    1    3    3  502    0 -0.22317033339E+03  0.28398023596E+03  0.26330093300E+03  0.44696437604E+03  0.00000000000E+00 0. -1.
         -1    1    3    3    0  502 -0.28263238186E+03  0.32196594064E+03  0.42367808282E+03  0.60253319250E+03  0.00000000000E+00 0.  1.
         13    1    5    5    0    0  0.79142812376E+02 -0.45173516050E+03  0.19458531744E+02  0.45902818480E+03  0.00000000000E+00 0. -1.
        -13    1    5    5    0    0  0.47385427264E+02 -0.29499613066E+03  0.87226422310E+02  0.31124997120E+03  0.00000000000E+00 0.  1.
          1    1    6    6  503    0  0.24991677088E+03  0.46343551342E+02  0.12789787291E+03  0.28454170698E+03  0.00000000000E+00 0. -1.
         -1    1    6    6    0  503  0.12935770474E+03  0.94441563219E+02  0.46508596805E+02  0.16678031723E+03  0.00000000000E+00 0.  1.
<mgrwt>
<rscale>  0 0.20544402E+04</rscale>
<asrwt>0</asrwt>
<pdfrwt beam="1">  1        2 0.24916678E+00 0.20544402E+04</pdfrwt>
<pdfrwt beam="2">  1       -1 0.10023287E+00 0.20544402E+04</pdfrwt>
<totfact> 0.10861654E+01</totfact>
</mgrwt>
</event>
<event>
12    7  0.1572140E-007  0.1300099E+04  0.7818608E-02  0.9029487E-01
          2   -1    0    0  501    0  0.00000000000E+00  0.00000000000E+00  0.20493239463E+04  0.20493239463E+04  0.00000000000E+00 0. -1.
         -1   -1    0    0    0  501 -0.00000000000E+00 -0.00000000000E+00 -0.20619689947E+03  0.20619689947E+03  0.00000000000E+00 0.  1.
         24    2    1    2    0    0 -0.32652236949E+03 -0.68592114203E+02  0.51005436957E+03  0.61498360440E+03  0.82022179056E+02 0.  0.
        254    2    1    2    0    0  0.32652236949E+03  0.68592114203E+02  0.13330726772E+04  0.16405372413E+04  0.89607920494E+03 0.  0.
         23    2    4    4    0    0  0.41155391584E+03  0.40551064812E+03  0.95007443607E+03  0.11157561464E+04  0.91950164604E+02 0.  0.
         23    2    4    4    0    0 -0.85031546356E+02 -0.33691853392E+03  0.38299824114E+03  0.52478109492E+03  0.89236105321E+02 0.  0.
          4    1    3    3  502    0 -0.25634781731E+03 -0.17875543149E+02  0.38499842192E+03  0.46287959921E+03  0.00000000000E+00 0. -1.
         -3    1    3    3    0  502 -0.70174552179E+02 -0.50716571054E+02  0.12505594765E+03  0.15210400520E+03  0.00000000000E+00 0.  1.
         13    1    5    5    0    0  0.26157069154E+03  0.22121063562E+03  0.63009886670E+03  0.71720147365E+03  0.00000000000E+00 0. -1.
        -13    1    5    5    0    0  0.14998322430E+03  0.18430001250E+03  0.31997556937E+03  0.39855467275E+03  0.00000000000E+00 0.  1.
          2    1    6    6  503    0 -0.49397781036E+02 -0.12882848803E+03  0.94283450814E+02  0.16711160701E+03  0.00000000000E+00 0. -1.
         -2    1    6    6    0  503 -0.35633765320E+02 -0.20809004589E+03  0.28871479033E+03  0.35766948791E+03  0.00000000000E+00 0.  1.
<mgrwt>
<rscale>  0 0.13000988E+04</rscale>
<asrwt>0</asrwt>
<pdfrwt beam="1">  1        2 0.31528059E+00 0.13000988E+04</pdfrwt>
<pdfrwt beam="2">  1       -1 0.31722601E-01 0.13000988E+04</pdfrwt>
<totfact> 0.64821875E+01</totfact>
</mgrwt>
</event>
<event>
12    7  0.1572140E-007  0.2856903E+04  0.7818608E-02  0.8285817E-01
          2   -1    0    0  501    0  0.00000000000E+00  0.00000000000E+00  0.15053880783E+04  0.15053880783E+04  0.00000000000E+00 0. -1.
         -1   -1    0    0    0  501 -0.00000000000E+00 -0.00000000000E+00 -0.13554464890E+04  0.13554464890E+04  0.00000000000E+00 0.  1.
         24    2    1    2    0    0  0.56492397606E+02 -0.11391015822E+04 -0.51530740365E+03  0.12540146728E+04  0.79166114629E+02 0.  0.
        254    2    1    2    0    0 -0.56492397606E+02  0.11391015822E+04  0.66524899302E+03  0.16068198945E+04  0.91573475702E+03 0.  0.
         23    2    4    4    0    0  0.20630107576E+03  0.70045256064E+03  0.78240095916E+03  0.10739793086E+04  0.89924250477E+02 0.  0.
         23    2    4    4    0    0 -0.26279347336E+03  0.43864902155E+03 -0.11715196613E+03  0.53284058594E+03  0.93387007187E+02 0.  0.
          2    1    3    3  502    0 -0.78231841572E+01 -0.20797824940E+03 -0.12149235020E+03  0.24099075830E+03  0.00000000000E+00 0. -1.
         -1    1    3    3    0  502  0.64315581764E+02 -0.93112333279E+03 -0.39381505345E+03  0.10130239145E+04  0.00000000000E+00 0.  1.
         13    1    5    5    0    0  0.19023704426E+03  0.54369883593E+03  0.57952510256E+03  0.81709724128E+03  0.00000000000E+00 0.  1.
        -13    1    5    5    0    0  0.16064031493E+02  0.15675372471E+03  0.20287585660E+03  0.25688206732E+03  0.00000000000E+00 0. -1.
          4    1    6    6  503    0 -0.12091446982E+03  0.15186612573E+03 -0.63083593069E+01  0.19422519031E+03  0.00000000000E+00 0.  1.
         -4    1    6    6    0  503 -0.14187900354E+03  0.28678289582E+03 -0.11084360683E+03  0.33861539563E+03  0.00000000000E+00 0. -1.
<mgrwt>
<rscale>  0 0.28569025E+04</rscale>
<asrwt>0</asrwt>
<pdfrwt beam="1">  1        2 0.23159817E+00 0.28569025E+04</pdfrwt>
<pdfrwt beam="2">  1       -1 0.20853023E+00 0.28569025E+04</pdfrwt>
<totfact> 0.16354846E+00</totfact>
</mgrwt>
</event>
<event>
12    7  0.1572140E-007  0.2321176E+04  0.7818608E-02  0.8469618E-01
          2   -1    0    0  501    0  0.00000000000E+00  0.00000000000E+00  0.10687983250E+04  0.10687983250E+04  0.00000000000E+00 0. -1.
         -1   -1    0    0    0  501 -0.00000000000E+00 -0.00000000000E+00 -0.12602605720E+04  0.12602605720E+04  0.00000000000E+00 0.  1.
         24    2    1    2    0    0 -0.50905883137E+03  0.40031842385E+02 -0.92895804355E+03  0.10630120322E+04  0.79297488679E+02 0.  0.
        254    2    1    2    0    0  0.50905883137E+03 -0.40031842385E+02  0.73749579659E+03  0.12660468648E+04  0.89343783876E+03 0.  0.
         23    2    4    4    0    0  0.12145455385E+03  0.11739245283E+03 -0.17219542274E+03  0.26042045911E+03  0.98159845542E+02 0.  0.
         23    2    4    4    0    0  0.38760427752E+03 -0.15742429521E+03  0.90969121933E+03  0.10056264057E+04  0.93417710695E+02 0.  0.
          4    1    3    3  502    0 -0.35223402920E+03  0.64250720404E+02 -0.64809067309E+03  0.74041777865E+03  0.00000000000E+00 0. -1.
         -3    1    3    3    0  502 -0.15682480218E+03 -0.24218878019E+02 -0.28086737047E+03  0.32259425355E+03  0.00000000000E+00 0.  1.
         13    1    5    5    0    0  0.87480174120E+02  0.12338330993E+03 -0.10266304317E+03  0.18280022556E+03  0.00000000000E+00 0.  1.
        -13    1    5    5    0    0  0.33974379734E+02 -0.59908571006E+01 -0.69532379568E+02  0.77620233545E+02  0.00000000000E+00 0. -1.
          4    1    6    6  503    0  0.13212508976E+03 -0.82227070448E+02  0.25356688196E+03  0.29751385528E+03  0.00000000000E+00 0. -1.
         -4    1    6    6    0  503  0.25547918776E+03 -0.75197224762E+02  0.65612433737E+03  0.70811255043E+03  0.00000000000E+00 0.  1.
<mgrwt>
<rscale>  0 0.23211759E+04</rscale>
<asrwt>0</asrwt>
<pdfrwt beam="1">  1        2 0.16443051E+00 0.23211759E+04</pdfrwt>
<pdfrwt beam="2">  1       -1 0.19388624E+00 0.23211759E+04</pdfrwt>
<totfact> 0.39013582E+00</totfact>
</mgrwt>
</event>
<event>
12    7  0.1572140E-007  0.1049963E+04  0.7818608E-02  0.9255382E-01
          2   -1    0    0  501    0  0.00000000000E+00  0.00000000000E+00  0.39920078517E+04  0.39920078517E+04  0.00000000000E+00 0. -1.
         -1   -1    0    0    0  501 -0.00000000000E+00 -0.00000000000E+00 -0.69039345176E+02  0.69039345176E+02  0.00000000000E+00 0.  1.
         24    2    1    2    0    0  0.55000264112E+02  0.39585888299E+02  0.16427003833E+03  0.19659630838E+03  0.84103456357E+02 0.  0.
        254    2    1    2    0    0 -0.55000264112E+02 -0.39585888299E+02  0.37586984682E+04  0.38644508885E+04  0.89530688772E+03 0.  0.
         23    2    4    4    0    0  0.71489435696E+02 -0.42149391275E+03  0.13117843047E+04  0.13829865169E+04  0.95424242231E+02 0.  0.
         23    2    4    4    0    0 -0.12648969981E+03  0.38190802445E+03  0.24469141635E+04  0.24814643716E+04  0.91777560638E+02 0.  0.
          2    1    3    3  502    0  0.41790929490E+02  0.62836305686E+02  0.14556250225E+03  0.16396135264E+03  0.00000000000E+00 0. -1.
         -1    1    3    3    0  502  0.13209334622E+02 -0.23250417388E+02  0.18707536089E+02  0.32634955744E+02  0.00000000000E+00 0.  1.
         13    1    5    5    0    0 -0.22351804902E+02 -0.57057914139E+02  0.16333839320E+03  0.17445526487E+03  0.00000000000E+00 0. -1.
        -13    1    5    5    0    0  0.93841240597E+02 -0.36443599861E+03  0.11484459115E+04  0.12085312521E+04  0.00000000000E+00 0.  1.
          2    1    6    6  503    0 -0.35511422177E+01  0.58119492894E+02  0.56080818808E+03  0.56382294197E+03  0.00000000000E+00 0. -1.
         -2    1    6    6    0  503 -0.12293855759E+03  0.32378853156E+03  0.18861059754E+04  0.19176414296E+04  0.00000000000E+00 0.  1.
<mgrwt>
<rscale>  0 0.10499631E+04</rscale>
<asrwt>0</asrwt>
<pdfrwt beam="1">  1        2 0.61415487E+00 0.10499631E+04</pdfrwt>
<pdfrwt beam="2">  1       -1 0.10621441E-01 0.10499631E+04</pdfrwt>
<totfact> 0.23786528E+01</totfact>
</mgrwt>
</event>
<event>
12    7  0.1572140E-007  0.1478207E+04  0.7818608E-02  0.8899075E-01
         -1   -1    0    0    0  501 -0.00000000000E+00  0.00000000000E+00  0.25614244706E+03  0.25614244706E+03  0.00000000000E+00 0.  1.
          2   -1    0    0  501    0  0.00000000000E+00 -0.00000000000E+00 -0.21326970756E+04  0.21326970756E+04  0.00000000000E+00 0. -1.
         24    2    1    2    0    0  0.72998586885E+02 -0.15962006610E+03 -0.12774875150E+04  0.12920096939E+04  0.80668080095E+02 0.  0.
        254    2    1    2    0    0 -0.72998586885E+02  0.15962006610E+03 -0.59906711355E+03  0.10968298287E+04  0.90185747620E+03 0.  0.
         23    2    4    4    0    0  0.73549387578E+02 -0.29826103496E+03 -0.50779138333E+03  0.60084315726E+03  0.93761683340E+02 0.  0.
         23    2    4    4    0    0 -0.14654797446E+03  0.45788110106E+03 -0.91275730224E+02  0.49598667143E+03  0.80870932851E+02 0.  0.
          2    1    3    3  502    0  0.36505936557E+02 -0.13749089983E+03 -0.79404043406E+03  0.80668249136E+03  0.00000000000E+00 0. -1.
         -1    1    3    3    0  502  0.36492650327E+02 -0.22129166266E+02 -0.48344708090E+03  0.48532720257E+03  0.00000000000E+00 0.  1.
         13    1    5    5    0    0  0.20284614193E+02 -0.10746134841E+02 -0.75751198708E+02  0.79152947467E+02  0.00000000000E+00 0. -1.
        -13    1    5    5    0    0  0.53264773385E+02 -0.28751490012E+03 -0.43204018462E+03  0.52169020980E+03  0.00000000000E+00 0.  1.
          1    1    6    6  503    0 -0.85300731858E+02  0.18402205855E+03 -0.68843893282E+01  0.20294759842E+03  0.00000000000E+00 0. -1.
         -1    1    6    6    0  503 -0.61247242605E+02  0.27385904251E+03 -0.84391340896E+02  0.29303907301E+03  0.00000000000E+00 0.  1.
<mgrwt>
<rscale>  0 0.14782074E+04</rscale>
<asrwt>0</asrwt>
<pdfrwt beam="1">  1        2 0.32810725E+00 0.14782074E+04</pdfrwt>
<pdfrwt beam="2">  1       -1 0.39406529E-01 0.14782074E+04</pdfrwt>
<totfact> 0.38906835E+01</totfact>
</mgrwt>
</event>
<event>
12    7  0.1572140E-007  0.2152001E+04  0.7818608E-02  0.8538676E-01
         -1   -1    0    0    0  501 -0.00000000000E+00  0.00000000000E+00  0.99787177135E+03  0.99787177135E+03  0.00000000000E+00 0.  1.
          2   -1    0    0  501    0  0.00000000000E+00 -0.00000000000E+00 -0.11602461851E+04  0.11602461851E+04  0.00000000000E+00 0. -1.
         24    2    1    2    0    0 -0.42635406566E+03  0.18953656546E+03 -0.82706169633E+03  0.95291132964E+03  0.79416960847E+02 0.  0.
        254    2    1    2    0    0  0.42635406566E+03 -0.18953656546E+03  0.66468728254E+03  0.12052066268E+04  0.89051217335E+03 0.  0.
         23    2    4    4    0    0  0.44001833081E+03 -0.22039933046E+02  0.83704173062E+03  0.95029494793E+03  0.91212604173E+02 0.  0.
         23    2    4    4    0    0 -0.13664265149E+02 -0.16749663241E+03 -0.17235444809E+03  0.25491167892E+03  0.83857463957E+02 0.  0.
          2    1    3    3  502    0 -0.29861900544E+03  0.91850519235E+02 -0.55337266805E+03  0.63547709482E+03  0.00000000000E+00 0. -1.
         -1    1    3    3    0  502 -0.12773506022E+03  0.97686046224E+02 -0.27368902828E+03  0.31743423482E+03  0.00000000000E+00 0.  1.
         13    1    5    5    0    0  0.33645426177E+03 -0.55135889459E+02  0.62093010685E+03  0.70837534836E+03  0.00000000000E+00 0.  1.
        -13    1    5    5    0    0  0.10356406904E+03  0.33095956413E+02  0.21611162377E+03  0.24191959957E+03  0.00000000000E+00 0. -1.
          4    1    6    6  503    0  0.34735996755E+02 -0.64280186592E+02 -0.56383487781E+02  0.92291004726E+02  0.00000000000E+00 0. -1.
         -4    1    6    6    0  503 -0.48400261904E+02 -0.10321644582E+03 -0.11597096030E+03  0.16262067419E+03  0.00000000000E+00 0.  1.
<mgrwt>
<rscale>  0 0.21520009E+04</rscale>
<asrwt>0</asrwt>
<pdfrwt beam="1">  1        2 0.17849941E+00 0.21520009E+04</pdfrwt>
<pdfrwt beam="2">  1       -1 0.15351873E+00 0.21520009E+04</pdfrwt>
<totfact> 0.68604994E+00</totfact>
</mgrwt>
</event>
<event>
12    7  0.1572140E-007  0.1641290E+04  0.7818608E-02  0.8795576E-01
         -1   -1    0    0    0  501 -0.00000000000E+00  0.00000000000E+00  0.59867436467E+03  0.59867436467E+03  0.00000000000E+00 0.  1.
          2   -1    0    0  501    0  0.00000000000E+00 -0.00000000000E+00 -0.11249152529E+04  0.11249152529E+04  0.00000000000E+00 0. -1.
         24    2    1    2    0    0  0.10506894578E+03  0.53250569845E+02  0.40419823680E+03  0.42850932376E+03  0.79805509620E+02 0.  0.
        254    2    1    2    0    0 -0.10506894578E+03 -0.53250569845E+02 -0.93043912502E+03  0.12950802938E+04  0.89310743781E+03 0.  0.
         23    2    4    4    0    0 -0.62240255040E+01  0.65175240401E+02  0.15717625340E+03  0.19278746125E+03  0.90421679525E+02 0.  0.
         23    2    4    4    0    0 -0.98844920279E+02 -0.11842581025E+03 -0.10876153784E+04  0.11022928326E+04  0.91363485701E+02 0.  0.
          4    1    3    3  502    0  0.17790633683E+02 -0.19145452389E+02  0.11365930487E+03  0.11662543710E+03  0.00000000000E+00 0. -1.
         -3    1    3    3    0  502  0.87278312100E+02  0.72396022233E+02  0.29053893192E+03  0.31188388667E+03  0.00000000000E+00 0.  1.
         13    1    5    5    0    0  0.27828237768E+02 -0.92212721252E+01  0.33746429015E+02  0.44701947924E+02  0.00000000000E+00 0.  1.
        -13    1    5    5    0    0 -0.34052263272E+02  0.74396512526E+02  0.12342982439E+03  0.14808551333E+03  0.00000000000E+00 0. -1.
          3    1    6    6  503    0 -0.92521862438E+02 -0.91774054187E+02 -0.10330585470E+04  0.10412457604E+04  0.00000000000E+00 0. -1.
         -3    1    6    6    0  503 -0.63230578412E+01 -0.26651756058E+02 -0.54556831389E+02  0.61047072106E+02  0.00000000000E+00 0.  1.
<mgrwt>
<rscale>  0 0.16412896E+04</rscale>
<asrwt>0</asrwt>
<pdfrwt beam="1">  1        2 0.17306388E+00 0.16412896E+04</pdfrwt>
<pdfrwt beam="2">  1       -1 0.92103749E-01 0.16412896E+04</pdfrwt>
<totfact> 0.26315674E+01</totfact>
</mgrwt>
</event>
<event>
12    7  0.2272159E-007  0.2062934E+04  0.7818608E-02  0.8577749E-01
         -1   -1    0    0    0  501 -0.00000000000E+00  0.00000000000E+00  0.94243116900E+03  0.94243116900E+03  0.00000000000E+00 0.  1.
          2   -1    0    0  501    0  0.00000000000E+00 -0.00000000000E+00 -0.11289147886E+04  0.11289147886E+04  0.00000000000E+00 0. -1.
         24    2    1    2    0    0  0.40250149410E+03  0.69351652698E+03  0.15889544983E+03  0.81909448923E+03  0.51917168347E+02 0.  0.
        254    2    1    2    0    0 -0.40250149410E+03 -0.69351652698E+03 -0.34537906939E+03  0.12522514683E+04  0.89770508098E+03 0.  0.
         23    2    4    4    0    0 -0.32447510158E+03  0.10536686101E+03  0.40082403227E+02  0.35718400161E+03  0.97916009977E+02 0.  0.
         23    2    4    4    0    0 -0.78026392514E+02 -0.79888338799E+03 -0.38546147262E+03  0.89506746673E+03  0.90897951513E+02 0.  0.
          4    1    3    3  502    0  0.28261539394E+02  0.48279776068E+02  0.24931564031E+02  0.61247320522E+02  0.00000000000E+00 0. -1.
         -3    1    3    3    0  502  0.37423995470E+03  0.64523675091E+03  0.13396388580E+03  0.75784716871E+03  0.00000000000E+00 0.  1.
         13    1    5    5    0    0 -0.85928655284E+02 -0.10642608855E+02  0.30335360549E+02  0.91745479571E+02  0.00000000000E+00 0.  1.
        -13    1    5    5    0    0 -0.23854644630E+03  0.11600946986E+03  0.97470426780E+01  0.26543852204E+03  0.00000000000E+00 0. -1.
          2    1    6    6  503    0 -0.64151201136E+02 -0.75296030914E+03 -0.33885760787E+03  0.82818420786E+03  0.00000000000E+00 0. -1.
         -2    1    6    6    0  503 -0.13875191378E+02 -0.45923078850E+02 -0.46603864745E+02  0.66883258862E+02  0.00000000000E+00 0.  1.
<mgrwt>
<rscale>  0 0.20629343E+04</rscale>
<asrwt>0</asrwt>
<pdfrwt beam="1">  1        2 0.17367920E+00 0.20629343E+04</pdfrwt>
<pdfrwt beam="2">  1       -1 0.14498941E+00 0.20629343E+04</pdfrwt>
<totfact> 0.84240210E+00</totfact>
</mgrwt>
</event>
<event>
12    7  0.1572140E-007  0.1859414E+04  0.7818608E-02  0.8675326E-01
          2   -1    0    0  501    0  0.00000000000E+00  0.00000000000E+00  0.19870583158E+04  0.19870583158E+04  0.00000000000E+00 0. -1.
         -1   -1    0    0    0  501 -0.00000000000E+00 -0.00000000000E+00 -0.43499241620E+03  0.43499241620E+03  0.00000000000E+00 0.  1.
         24    2    1    2    0    0 -0.41082929578E+03  0.20655974811E+03 -0.10609809116E+03  0.47885063558E+03  0.81200285971E+02 0.  0.
        254    2    1    2    0    0  0.41082929578E+03 -0.20655974811E+03  0.16581639908E+04  0.19432000964E+04  0.90281291233E+03 0.  0.
         23    2    4    4    0    0 -0.18517152865E+03 -0.56756608803E+02  0.51351211627E+02  0.22053365883E+03  0.92132188065E+02 0.  0.
         23    2    4    4    0    0  0.59600082443E+03 -0.14980313930E+03  0.16068127791E+04  0.17226664376E+04  0.89857580345E+02 0.  0.
          4    1    3    3  502    0 -0.57302667205E+02  0.28281905656E+01 -0.26204452634E+02  0.63073510038E+02  0.00000000000E+00 0. -1.
         -3    1    3    3    0  502 -0.35352662858E+03  0.20373155754E+03 -0.79893638523E+02  0.41577712555E+03  0.00000000000E+00 0.  1.
         13    1    5    5    0    0 -0.72544215806E+02 -0.33402758555E+01 -0.22025910662E+02  0.75887821356E+02  0.00000000000E+00 0. -1.
        -13    1    5    5    0    0 -0.11262731284E+03 -0.53416332947E+02  0.73377122290E+02  0.14464583748E+03  0.00000000000E+00 0.  1.
          3    1    6    6  503    0  0.50823691006E+03 -0.15952352861E+03  0.13883393360E+04  0.14870234109E+04  0.00000000000E+00 0. -1.
         -3    1    6    6    0  503  0.87763914374E+02  0.97203893062E+01  0.21847344318E+03  0.23564302665E+03  0.00000000000E+00 0.  1.
<mgrwt>
<rscale>  0 0.18594142E+04</rscale>
<asrwt>0</asrwt>
<pdfrwt beam="1">  1        2 0.30570127E+00 0.18594142E+04</pdfrwt>
<pdfrwt beam="2">  1       -1 0.66921911E-01 0.18594142E+04</pdfrwt>
<totfact> 0.16440907E+01</totfact>
</mgrwt>
</event>
<event>
12    7  0.1572140E-007  0.2572743E+04  0.7818608E-02  0.8377519E-01
          2   -1    0    0  501    0  0.00000000000E+00  0.00000000000E+00  0.19728785559E+04  0.19728785559E+04  0.00000000000E+00 0. -1.
         -1   -1    0    0    0  501 -0.00000000000E+00 -0.00000000000E+00 -0.83874974390E+03  0.83874974390E+03  0.00000000000E+00 0.  1.
         24    2    1    2    0    0 -0.17342692485E+03 -0.61126193978E+03  0.14245925609E+04  0.15619043808E+04  0.79770124160E+02 0.  0.
        254    2    1    2    0    0  0.17342692485E+03  0.61126193978E+03 -0.29046374895E+03  0.12497239190E+04  0.10362058806E+04 0.  0.
         23    2    4    4    0    0 -0.31328881024E+03 -0.58370030031E+02 -0.25022015921E+03  0.41591958458E+03  0.93925681960E+02 0.  0.
         23    2    4    4    0    0  0.48671573509E+03  0.66963196981E+03 -0.40243589740E+02  0.83380433443E+03  0.91164356121E+02 0.  0.
          4    1    3    3  502    0 -0.85439802477E+02 -0.23777213439E+03  0.48207215711E+03  0.54426933811E+03  0.00000000000E+00 0. -1.
         -3    1    3    3    0  502 -0.87987122368E+02 -0.37348980539E+03  0.94252040381E+03  0.10176350427E+04  0.00000000000E+00 0.  1.
         13    1    5    5    0    0 -0.18093217168E+03 -0.77557424680E+02 -0.16901459568E+03  0.25945623605E+03  0.00000000000E+00 0. -1.
        -13    1    5    5    0    0 -0.13235663856E+03  0.19187394649E+02 -0.81205563537E+02  0.15646334853E+03  0.00000000000E+00 0.  1.
          3    1    6    6  503    0  0.14156007465E+03  0.26936881260E+03 -0.13636430253E+02  0.30460591617E+03  0.00000000000E+00 0. -1.
         -3    1    6    6    0  503  0.34515566044E+03  0.40026315721E+03 -0.26607159487E+02  0.52919841826E+03  0.00000000000E+00 0.  1.
<mgrwt>
<rscale>  0 0.25727428E+04</rscale>
<asrwt>0</asrwt>
<pdfrwt beam="1">  1        2 0.30351978E+00 0.25727428E+04</pdfrwt>
<pdfrwt beam="2">  1       -1 0.12903842E+00 0.25727428E+04</pdfrwt>
<totfact> 0.36057730E+00</totfact>
</mgrwt>
</event>
<event>
12    7  0.1572140E-007  0.1455650E+04  0.7818608E-02  0.8914493E-01
          2   -1    0    0  501    0  0.00000000000E+00  0.00000000000E+00  0.12844208615E+04  0.12844208615E+04  0.00000000000E+00 0. -1.
         -1   -1    0    0    0  501 -0.00000000000E+00 -0.00000000000E+00 -0.41242636816E+03  0.41242636816E+03  0.00000000000E+00 0.  1.
         24    2    1    2    0    0  0.63854502467E+02  0.23682582595E+03  0.76787875599E+03  0.81009702422E+03  0.80346346744E+02 0.  0.
        254    2    1    2    0    0 -0.63854502467E+02 -0.23682582595E+03  0.10411573733E+03  0.88675020541E+03  0.84576709011E+03 0.  0.
         23    2    4    4    0    0  0.61524288875E+02  0.29556777285E+03 -0.31492778431E+02  0.31563123268E+03  0.86520133385E+02 0.  0.
         23    2    4    4    0    0 -0.12537879134E+03 -0.53239359881E+03  0.13560851576E+03  0.57111897273E+03  0.92867788244E+02 0.  0.
          4    1    3    3  502    0  0.10400707210E+02  0.12399451670E+03  0.48834064940E+03  0.50394385078E+03  0.00000000000E+00 0. -1.
         -3    1    3    3    0  502  0.53453795257E+02  0.11283130926E+03  0.27953810659E+03  0.30615317345E+03  0.00000000000E+00 0.  1.
         13    1    5    5    0    0  0.75592449013E+02  0.19816957659E+03 -0.43437795222E+02  0.21649998034E+03  0.00000000000E+00 0. -1.
        -13    1    5    5    0    0 -0.14068160137E+02  0.97398196267E+02  0.11945016791E+02  0.99131252346E+02  0.00000000000E+00 0.  1.
          4    1    6    6  503    0 -0.13276366814E+02 -0.23631531428E+03  0.37246709416E+02  0.23960072421E+03  0.00000000000E+00 0.  1.
         -4    1    6    6    0  503 -0.11210242453E+03 -0.29607828453E+03  0.98361806344E+02  0.33151824852E+03  0.00000000000E+00 0. -1.
<mgrwt>
<rscale>  0 0.14556497E+04</rscale>
<asrwt>0</asrwt>
<pdfrwt beam="1">  1        2 0.19760321E+00 0.14556497E+04</pdfrwt>
<pdfrwt beam="2">  1       -1 0.63450211E-01 0.14556497E+04</pdfrwt>
<totfact> 0.46997768E+01</totfact>
</mgrwt>
</event>
<event>
12    7  0.1572140E-007  0.1694128E+04  0.7818608E-02  0.8764720E-01
          2   -1    0    0  501    0  0.00000000000E+00  0.00000000000E+00  0.11168016702E+04  0.11168016702E+04  0.00000000000E+00 0. -1.
         -1   -1    0    0    0  501 -0.00000000000E+00 -0.00000000000E+00 -0.64247553365E+03  0.64247553365E+03  0.00000000000E+00 0.  1.
         24    2    1    2    0    0 -0.26916398265E+03  0.82704538968E+02 -0.38678209232E+03  0.48513735836E+03  0.80427478002E+02 0.  0.
        254    2    1    2    0    0  0.26916398265E+03 -0.82704538968E+02  0.86110822884E+03  0.12741398455E+04  0.89589936582E+03 0.  0.
         23    2    4    4    0    0 -0.11056705688E+03 -0.36277055894E+03  0.62632546648E+03  0.73828442254E+03  0.94618952098E+02 0.  0.
         23    2    4    4    0    0  0.37973103954E+03  0.28006601997E+03  0.23478276235E+03  0.53585542292E+03  0.96878536534E+02 0.  0.
          4    1    3    3  502    0 -0.33269298735E+02  0.35154386705E+02 -0.38690682442E+02  0.61964877558E+02  0.00000000000E+00 0. -1.
         -3    1    3    3    0  502 -0.23589468392E+03  0.47550152262E+02 -0.34809140987E+03  0.42317248080E+03  0.00000000000E+00 0.  1.
         13    1    5    5    0    0  0.68122261175E+01 -0.12934243336E+03  0.20100700738E+03  0.23912274778E+03  0.00000000000E+00 0.  1.
        -13    1    5    5    0    0 -0.11737928300E+03 -0.23342812558E+03  0.42531845910E+03  0.49916167475E+03  0.00000000000E+00 0. -1.
          2    1    6    6  503    0  0.28410190352E+03  0.17003453615E+03  0.19694799035E+03  0.38524556580E+03  0.00000000000E+00 0. -1.
         -2    1    6    6    0  503  0.95629136018E+02  0.11003148382E+03  0.37834772001E+02  0.15060985712E+03  0.00000000000E+00 0.  1.
<mgrwt>
<rscale>  0 0.16941284E+04</rscale>
<asrwt>0</asrwt>
<pdfrwt beam="1">  1        2 0.17181564E+00 0.16941284E+04</pdfrwt>
<pdfrwt beam="2">  1       -1 0.98842390E-01 0.16941284E+04</pdfrwt>
<totfact> 0.22611809E+01</totfact>
</mgrwt>
</event>
<event>
12    7  0.1572140E-007  0.2017550E+04  0.7818608E-02  0.8598459E-01
          2   -1    0    0  501    0  0.00000000000E+00  0.00000000000E+00  0.97288229051E+03  0.97288229051E+03  0.00000000000E+00 0. -1.
         -1   -1    0    0    0  501 -0.00000000000E+00 -0.00000000000E+00 -0.10459921143E+04  0.10459921143E+04  0.00000000000E+00 0.  1.
         24    2    1    2    0    0  0.38981175380E+03  0.33411312086E+03  0.59208545725E+03  0.78706079834E+03  0.72902199225E+02 0.  0.
        254    2    1    2    0    0 -0.38981175380E+03 -0.33411312086E+03 -0.66519528109E+03  0.12318136065E+04  0.90071927829E+03 0.  0.
         23    2    4    4    0    0 -0.45299410772E+03  0.44414263792E+02 -0.69516709399E+03  0.83594375639E+03  0.91478887314E+02 0.  0.
         23    2    4    4    0    0  0.63182353917E+02 -0.37852738466E+03  0.29971812905E+02  0.39586985012E+03  0.92410161167E+02 0.  0.
          2    1    3    3  502    0  0.29999067690E+03  0.21732442970E+03  0.44273257214E+03  0.57726635482E+03  0.00000000000E+00 0. -1.
         -1    1    3    3    0  502  0.89821076905E+02  0.11678869116E+03  0.14935288511E+03  0.20979444352E+03  0.00000000000E+00 0.  1.
         13    1    5    5    0    0 -0.14275125781E+03 -0.28398970937E+02 -0.22346254709E+03  0.26668320740E+03  0.00000000000E+00 0. -1.
        -13    1    5    5    0    0 -0.31024284991E+03  0.72813234729E+02 -0.47170454690E+03  0.56926054899E+03  0.00000000000E+00 0.  1.
          3    1    6    6  503    0 -0.44979958194E+00  0.55319894469E-01 -0.99012290881E+01  0.99115950991E+01  0.00000000000E+00 0. -1.
         -3    1    6    6    0  503  0.63632153499E+02 -0.37858270455E+03  0.39873041993E+02  0.38595825502E+03  0.00000000000E+00 0.  1.
<mgrwt>
<rscale>  0 0.20175502E+04</rscale>
<asrwt>0</asrwt>
<pdfrwt beam="1">  1        2 0.14967420E+00 0.20175502E+04</pdfrwt>
<pdfrwt beam="2">  1       -1 0.16092186E+00 0.20175502E+04</pdfrwt>
<totfact> 0.79828343E+00</totfact>
</mgrwt>
</event>
<event>
12    7  0.1572140E-007  0.1320510E+04  0.7818608E-02  0.9013457E-01
         -1   -1    0    0    0  501 -0.00000000000E+00  0.00000000000E+00  0.93201153725E+03  0.93201153725E+03  0.00000000000E+00 0.  1.
          2   -1    0    0  501    0  0.00000000000E+00 -0.00000000000E+00 -0.46773737528E+03  0.46773737528E+03  0.00000000000E+00 0. -1.
         24    2    1    2    0    0 -0.15761406862E+03 -0.37606406991E+00 -0.20222257496E+03  0.26844901484E+03  0.79552295346E+02 0.  0.
        254    2    1    2    0    0  0.15761406862E+03  0.37606406991E+00  0.66649673692E+03  0.11312998977E+04  0.90043279713E+03 0.  0.
         23    2    4    4    0    0 -0.28845308057E+03  0.25086196024E+03  0.23593854957E+03  0.45663912105E+03  0.81947452185E+02 0.  0.
         23    2    4    4    0    0  0.44606714919E+03 -0.25048589617E+03  0.43055818736E+03  0.67466077664E+03  0.89820515885E+02 0.  0.
          2    1    3    3  502    0 -0.88399515119E+02  0.59086612225E+01 -0.17030329645E+03  0.19197030847E+03  0.00000000000E+00 0. -1.
         -1    1    3    3    0  502 -0.69214553496E+02 -0.62847252924E+01 -0.31919278508E+02  0.76478706371E+02  0.00000000000E+00 0.  1.
         13    1    5    5    0    0 -0.53323764375E+02  0.40577522519E+02  0.81223530598E+02  0.10529587411E+03  0.00000000000E+00 0. -1.
        -13    1    5    5    0    0 -0.23512931620E+03  0.21028443772E+03  0.15471501897E+03  0.35134324695E+03  0.00000000000E+00 0.  1.
          1    1    6    6  503    0  0.29133651058E+03 -0.18824196811E+03  0.24206049308E+03  0.42297196510E+03  0.00000000000E+00 0. -1.
         -1    1    6    6    0  503  0.15473063861E+03 -0.62243928054E+02  0.18849769428E+03  0.25168881154E+03  0.00000000000E+00 0.  1.
<mgrwt>
<rscale>  0 0.13205099E+04</rscale>
<asrwt>0</asrwt>
<pdfrwt beam="1">  1        2 0.71959596E-01 0.13205099E+04</pdfrwt>
<pdfrwt beam="2">  1       -1 0.14338639E+00 0.13205099E+04</pdfrwt>
<totfact> 0.29318082E+01</totfact>
</mgrwt>
</event>
<event>
12    7  0.1572140E-007  0.1108493E+04  0.7818608E-02  0.9196953E-01
         -1   -1    0    0    0  501 -0.00000000000E+00  0.00000000000E+00  0.89197108956E+02  0.89197108956E+02  0.00000000000E+00 0.  1.
          2   -1    0    0  501    0  0.00000000000E+00 -0.00000000000E+00 -0.34439390431E+04  0.34439390431E+04  0.00000000000E+00 0. -1.
         24    2    1    2    0    0 -0.10487051995E+03 -0.12149839364E+03 -0.33497942656E+03  0.37898011547E+03  0.75199907525E+02 0.  0.
        254    2    1    2    0    0  0.10487051995E+03  0.12149839364E+03 -0.30197625076E+04  0.31541560366E+04  0.89664653866E+03 0.  0.
         23    2    4    4    0    0  0.34920630213E+03 -0.72413767921E+01 -0.49362963515E+03  0.61133979016E+03  0.89825627466E+02 0.  0.
         23    2    4    4    0    0 -0.24433578218E+03  0.12873977043E+03 -0.25261328724E+04  0.25428162464E+04  0.91067397718E+02 0.  0.
          4    1    3    3  502    0 -0.76609717252E+02 -0.11674747245E+03 -0.31341631387E+03  0.34311631687E+03  0.00000000000E+00 0. -1.
         -3    1    3    3    0  502 -0.28260802701E+02 -0.47509211875E+01 -0.21563112695E+02  0.35863798608E+02  0.00000000000E+00 0.  1.
         13    1    5    5    0    0  0.31940381392E+03  0.13787531075E+02 -0.46794705944E+03  0.56673039693E+03  0.00000000000E+00 0. -1.
        -13    1    5    5    0    0  0.29802488213E+02 -0.21028907867E+02 -0.25682575705E+02  0.44609393233E+02  0.00000000000E+00 0.  1.
          3    1    6    6  503    0 -0.21556807834E+03  0.83344111300E+02 -0.18150920002E+04  0.18297471975E+04  0.00000000000E+00 0. -1.
         -3    1    6    6    0  503 -0.28767703843E+02  0.45395659134E+02 -0.71104087219E+03  0.71306904895E+03  0.00000000000E+00 0.  1.
<mgrwt>
<rscale>  0 0.11084934E+04</rscale>
<asrwt>0</asrwt>
<pdfrwt beam="1">  1        2 0.52983676E+00 0.11084934E+04</pdfrwt>
<pdfrwt beam="2">  1       -1 0.13722633E-01 0.11084934E+04</pdfrwt>
<totfact> 0.39371748E+01</totfact>
</mgrwt>
</event>
<event>
12    7  0.1572140E-007  0.2259985E+04  0.7818608E-02  0.8493868E-01
          2   -1    0    0  501    0  0.00000000000E+00  0.00000000000E+00  0.21155168239E+04  0.21155168239E+04  0.00000000000E+00 0. -1.
         -1   -1    0    0    0  501 -0.00000000000E+00 -0.00000000000E+00 -0.60357975428E+03  0.60357975428E+03  0.00000000000E+00 0.  1.
         24    2    1    2    0    0  0.88371003946E+03  0.20268281112E+03  0.91893855325E+03  0.12936050953E+04  0.83320598578E+02 0.  0.
        254    2    1    2    0    0 -0.88371003946E+03 -0.20268281112E+03  0.59299851632E+03  0.14254914828E+04  0.92647448509E+03 0.  0.
         23    2    4    4    0    0 -0.19866477940E+03 -0.46182523499E+03  0.59088371501E+02  0.51438811020E+03  0.91397210153E+02 0.  0.
         23    2    4    4    0    0 -0.68504526007E+03  0.25914242387E+03  0.53391014482E+03  0.91110337264E+03  0.92776660337E+02 0.  0.
          2    1    3    3  502    0  0.87885741496E+03  0.19394789889E+03  0.91280168690E+03  0.12818787239E+04  0.00000000000E+00 0. -1.
         -1    1    3    3    0  502  0.48526245045E+01  0.87349122299E+01  0.61368663500E+01  0.11726371342E+02  0.00000000000E+00 0.  1.
         13    1    5    5    0    0 -0.11534931079E+03 -0.36677256773E+03  0.48886424247E+02  0.38757897571E+03  0.00000000000E+00 0. -1.
        -13    1    5    5    0    0 -0.83315468604E+02 -0.95052667265E+02  0.10201947254E+02  0.12680913449E+03  0.00000000000E+00 0.  1.
          2    1    6    6  503    0 -0.58866176937E+03  0.24409682316E+03  0.43114173659E+03  0.76940830176E+03  0.00000000000E+00 0. -1.
         -2    1    6    6    0  503 -0.96383490697E+02  0.15045600707E+02  0.10276840823E+03  0.14169507088E+03  0.00000000000E+00 0.  1.
<mgrwt>
<rscale>  0 0.22599851E+04</rscale>
<asrwt>0</asrwt>
<pdfrwt beam="1">  1        2 0.32546412E+00 0.22599851E+04</pdfrwt>
<pdfrwt beam="2">  1       -1 0.92858425E-01 0.22599851E+04</pdfrwt>
<totfact> 0.67177852E+00</totfact>
</mgrwt>
</event>
<event>
12    7  0.1572140E-007  0.1393185E+04  0.7818608E-02  0.8958767E-01
         -1   -1    0    0    0  501 -0.00000000000E+00  0.00000000000E+00  0.21059649900E+04  0.21059649900E+04  0.00000000000E+00 0.  1.
          2   -1    0    0  501    0  0.00000000000E+00 -0.00000000000E+00 -0.23041263779E+03  0.23041263779E+03  0.00000000000E+00 0. -1.
         24    2    1    2    0    0 -0.29737860330E+01 -0.33334519424E+03  0.91929108245E+03  0.98156382139E+03  0.85109219603E+02 0.  0.
        254    2    1    2    0    0  0.29737860330E+01  0.33334519424E+03  0.95626126981E+03  0.13548138064E+04  0.89997609527E+03 0.  0.
         23    2    4    4    0    0  0.19012245841E+03  0.59158995100E+03  0.59815951187E+03  0.86679467330E+03  0.86098691619E+02 0.  0.
         23    2    4    4    0    0 -0.18714867238E+03 -0.25824475676E+03  0.35810175794E+03  0.48801913314E+03  0.90613604449E+02 0.  0.
          2    1    3    3  502    0 -0.25563856115E+02 -0.32084475152E+02  0.13515715783E+03  0.14124581976E+03  0.00000000000E+00 0. -1.
         -1    1    3    3    0  502  0.22590070082E+02 -0.30126071909E+03  0.78413392461E+03  0.84031800163E+03  0.00000000000E+00 0.  1.
         13    1    5    5    0    0  0.98934904359E+02  0.43348621229E+03  0.41463846624E+03  0.60796666786E+03  0.00000000000E+00 0. -1.
        -13    1    5    5    0    0  0.91187554053E+02  0.15810373871E+03  0.18352104562E+03  0.25882800543E+03  0.00000000000E+00 0.  1.
          4    1    6    6  503    0 -0.81832349954E+02 -0.16361562782E+03  0.25049199734E+03  0.31018195934E+03  0.00000000000E+00 0. -1.
         -4    1    6    6    0  503 -0.10531632242E+03 -0.94629128935E+02  0.10760976060E+03  0.17783717381E+03  0.00000000000E+00 0.  1.
<mgrwt>
<rscale>  0 0.13931848E+04</rscale>
<asrwt>0</asrwt>
<pdfrwt beam="1">  1        2 0.35448099E-01 0.13931848E+04</pdfrwt>
<pdfrwt beam="2">  1       -1 0.32399460E+00 0.13931848E+04</pdfrwt>
<totfact> 0.38138687E+00</totfact>
</mgrwt>
</event>
<event>
12    7  0.1572140E-007  0.1245264E+04  0.7818608E-02  0.9074135E-01
         -1   -1    0    0    0  501 -0.00000000000E+00  0.00000000000E+00  0.12840856193E+03  0.12840856193E+03  0.00000000000E+00 0.  1.
          2   -1    0    0  501    0  0.00000000000E+00 -0.00000000000E+00 -0.30190384544E+04  0.30190384544E+04  0.00000000000E+00 0. -1.
         24    2    1    2    0    0  0.37148193949E+02 -0.24311641562E+03 -0.34320782283E+03  0.43109918223E+03  0.87001812700E+02 0.  0.
        254    2    1    2    0    0 -0.37148193949E+02  0.24311641562E+03 -0.25474220697E+04  0.27163478341E+04  0.91033003634E+03 0.  0.
         23    2    4    4    0    0 -0.44552258052E+03  0.25103007883E+03 -0.12783105822E+04  0.13799323737E+04  0.92892094301E+02 0.  0.
         23    2    4    4    0    0  0.40837438657E+03 -0.79136632165E+01 -0.12691114875E+04  0.13364154605E+04  0.92358267499E+02 0.  0.
          2    1    3    3  502    0  0.20592267389E+02 -0.12200768981E+03 -0.24434757878E+03  0.27388986310E+03  0.00000000000E+00 0. -1.
         -1    1    3    3    0  502  0.16555926560E+02 -0.12110872580E+03 -0.98860244044E+02  0.15720931913E+03  0.00000000000E+00 0.  1.
         13    1    5    5    0    0 -0.31895027218E+03  0.14095495151E+03 -0.93301341980E+03  0.99604799885E+03  0.00000000000E+00 0. -1.
        -13    1    5    5    0    0 -0.12657230834E+03  0.11007512732E+03 -0.34529716237E+03  0.38388437482E+03  0.00000000000E+00 0.  1.
          4    1    6    6  503    0  0.24925011393E+03 -0.10776068031E+02 -0.91077148146E+03  0.94432326794E+03  0.00000000000E+00 0. -1.
         -4    1    6    6    0  503  0.15912427263E+03  0.28624048140E+01 -0.35834000607E+03  0.39209219254E+03  0.00000000000E+00 0.  1.
<mgrwt>
<rscale>  0 0.12452636E+04</rscale>
<asrwt>0</asrwt>
<pdfrwt beam="1">  1        2 0.46446744E+00 0.12452636E+04</pdfrwt>
<pdfrwt beam="2">  1       -1 0.19755164E-01 0.12452636E+04</pdfrwt>
<totfact> 0.40163202E+01</totfact>
</mgrwt>
</event>
<event>
12    7  0.1572140E-007  0.2366506E+04  0.7818608E-02  0.8452151E-01
         -1   -1    0    0    0  501 -0.00000000000E+00  0.00000000000E+00  0.11010433631E+04  0.11010433631E+04  0.00000000000E+00 0.  1.
          2   -1    0    0  501    0  0.00000000000E+00 -0.00000000000E+00 -0.12716008146E+04  0.12716008146E+04  0.00000000000E+00 0. -1.
         24    2    1    2    0    0  0.31136305284E+03 -0.10716914389E+03  0.88484704004E+03  0.94757881566E+03  0.80741262923E+02 0.  0.
        254    2    1    2    0    0 -0.31136305284E+03  0.10716914389E+03 -0.10554044915E+04  0.14250653620E+04  0.89916654154E+03 0.  0.
         23    2    4    4    0    0 -0.29172059667E+03  0.43718426201E+03 -0.34301717685E+03  0.63424083640E+03  0.91485897651E+02 0.  0.
         23    2    4    4    0    0 -0.19642456177E+02 -0.33001511812E+03 -0.71238731461E+03  0.79082452565E+03  0.92800539172E+02 0.  0.
          4    1    3    3  502    0  0.86133646816E+01 -0.94540723381E+01  0.98355483868E+02  0.99183520515E+02  0.00000000000E+00 0. -1.
         -1    1    3    3    0  502  0.30274968816E+03 -0.97715071552E+02  0.78649155617E+03  0.84839529514E+03  0.00000000000E+00 0.  1.
         13    1    5    5    0    0 -0.25472714862E+03  0.41851731455E+03 -0.29990262807E+03  0.57444255513E+03  0.00000000000E+00 0. -1.
        -13    1    5    5    0    0 -0.36993448051E+02  0.18666947464E+02 -0.43114548779E+02  0.59798281269E+02  0.00000000000E+00 0.  1.
          4    1    6    6  503    0 -0.22181246210E+02 -0.33560730209E+03 -0.70565526287E+03  0.78171197951E+03  0.00000000000E+00 0. -1.
         -4    1    6    6    0  503  0.25387900329E+01  0.55921839684E+01 -0.67320517436E+01  0.91125461340E+01  0.00000000000E+00 0.  1.
<mgrwt>
<rscale>  0 0.23665060E+04</rscale>
<asrwt>0</asrwt>
<pdfrwt beam="1">  1        2 0.19563089E+00 0.23665060E+04</pdfrwt>
<pdfrwt beam="2">  1       -1 0.16939129E+00 0.23665060E+04</pdfrwt>
<totfact> 0.43886513E+00</totfact>
</mgrwt>
</event>
<event>
12    7  0.1572140E-007  0.1212370E+04  0.7818608E-02  0.9102098E-01
          4   -1    0    0  501    0  0.00000000000E+00  0.00000000000E+00  0.15940772493E+03  0.15940772493E+03  0.00000000000E+00 0. -1.
         -1   -1    0    0    0  501 -0.00000000000E+00 -0.00000000000E+00 -0.23051588914E+04  0.23051588914E+04  0.00000000000E+00 0.  1.
         24    2    1    2    0    0 -0.25363091445E+03 -0.63973640505E+02 -0.60075865475E+03  0.65998251808E+03  0.79023385626E+02 0.  0.
        254    2    1    2    0    0  0.25363091445E+03  0.63973640505E+02 -0.15449925117E+04  0.18045840982E+04  0.89504225537E+03 0.  0.
         23    2    4    4    0    0 -0.12968246762E+03 -0.98470941539E+01 -0.13489890324E+04  0.13582584449E+04  0.90443828116E+02 0.  0.
         23    2    4    4    0    0  0.38331338208E+03  0.73820734659E+02 -0.19600347938E+03  0.44632565335E+03  0.91709188028E+02 0.  0.
          2    1    3    3  502    0 -0.24643152655E+03 -0.76506251123E+02 -0.55622673355E+03  0.61316383036E+03  0.00000000000E+00 0. -1.
         -1    1    3    3    0  502 -0.71993878994E+01  0.12532610618E+02 -0.44531921197E+02  0.46818687728E+02  0.00000000000E+00 0.  1.
         13    1    5    5    0    0 -0.72992692462E+02 -0.84122427170E+01 -0.34839034282E+03  0.35605411099E+03  0.00000000000E+00 0. -1.
        -13    1    5    5    0    0 -0.56689775159E+02 -0.14348514369E+01 -0.10005986895E+04  0.10022043339E+04  0.00000000000E+00 0.  1.
          2    1    6    6  503    0  0.21338020583E+03  0.20817441582E+02 -0.15244469430E+03  0.26306627099E+03  0.00000000000E+00 0. -1.
         -2    1    6    6    0  503  0.16993317624E+03  0.53003293077E+02 -0.43558785082E+02  0.18325938236E+03  0.00000000000E+00 0.  1.
<mgrwt>
<rscale>  0 0.12123698E+04</rscale>
<asrwt>0</asrwt>
<pdfrwt beam="1">  1        4 0.24524267E-01 0.12123698E+04</pdfrwt>
<pdfrwt beam="2">  1       -1 0.35463981E+00 0.12123698E+04</pdfrwt>
<totfact> 0.97447192E-01</totfact>
</mgrwt>
</event>
<event>
12    7  0.1572140E-007  0.1961713E+04  0.7818608E-02  0.8624733E-01
         -1   -1    0    0    0  501 -0.00000000000E+00  0.00000000000E+00  0.32965569913E+03  0.32965569913E+03  0.00000000000E+00 0.  1.
          2   -1    0    0  501    0  0.00000000000E+00 -0.00000000000E+00 -0.29184368763E+04  0.29184368763E+04  0.00000000000E+00 0. -1.
         24    2    1    2    0    0  0.22554673539E+03 -0.60971506698E+03 -0.17056978795E+04  0.18271410205E+04  0.80095317705E+02 0.  0.
        254    2    1    2    0    0 -0.22554673539E+03  0.60971506698E+03 -0.88308329766E+03  0.14209515549E+04  0.90368325096E+03 0.  0.
         23    2    4    4    0    0  0.24907588409E+03  0.55696356351E+03 -0.40903198539E+03  0.74097164563E+03  0.97388949268E+02 0.  0.
         23    2    4    4    0    0 -0.47462261948E+03  0.52751503475E+02 -0.47405131227E+03  0.67997990929E+03  0.97972844890E+02 0.  0.
          4    1    3    3  502    0  0.14753365050E+03 -0.48276433457E+03 -0.12688338678E+04  0.13655647054E+04  0.00000000000E+00 0. -1.
         -3    1    3    3    0  502  0.78013084883E+02 -0.12695073241E+03 -0.43686401178E+03  0.46157631510E+03  0.00000000000E+00 0.  1.
         13    1    5    5    0    0  0.83386624127E+02  0.15241985620E+03 -0.16841062311E+03  0.24196545130E+03  0.00000000000E+00 0. -1.
        -13    1    5    5    0    0  0.16568925996E+03  0.40454370731E+03 -0.24062136228E+03  0.49900619432E+03  0.00000000000E+00 0.  1.
          3    1    6    6  503    0 -0.20576161931E+03  0.64816323708E+02 -0.17613754600E+03  0.27850212730E+03  0.00000000000E+00 0. -1.
         -3    1    6    6    0  503 -0.26886100017E+03 -0.12064820233E+02 -0.29791376628E+03  0.40147778200E+03  0.00000000000E+00 0.  1.
<mgrwt>
<rscale>  0 0.19617129E+04</rscale>
<asrwt>0</asrwt>
<pdfrwt beam="1">  1        2 0.44899031E+00 0.19617129E+04</pdfrwt>
<pdfrwt beam="2">  1       -1 0.50716259E-01 0.19617129E+04</pdfrwt>
<totfact> 0.81281590E+00</totfact>
</mgrwt>
</event>
<event>
12    7  0.1572140E-007  0.1350183E+04  0.7818608E-02  0.8990689E-01
          2   -1    0    0  501    0  0.00000000000E+00  0.00000000000E+00  0.34927789508E+04  0.34927789508E+04  0.00000000000E+00 0. -1.
         -1   -1    0    0    0  501 -0.00000000000E+00 -0.00000000000E+00 -0.13048310891E+03  0.13048310891E+03  0.00000000000E+00 0.  1.
         24    2    1    2    0    0 -0.33928452166E+03 -0.97721342795E+02  0.60095937978E+03  0.70142932326E+03  0.78660485066E+02 0.  0.
        254    2    1    2    0    0  0.33928452166E+03  0.97721342795E+02  0.27613364621E+04  0.29218327364E+04  0.88739170340E+03 0.  0.
         23    2    4    4    0    0 -0.43162413269E+02 -0.68215675845E+02  0.22608562055E+04  0.22642913721E+04  0.95017173835E+02 0.  0.
         23    2    4    4    0    0  0.38244693493E+03  0.16593701864E+03  0.50048025654E+03  0.65754136430E+03  0.89885518240E+02 0.  0.
          2    1    3    3  502    0 -0.31163155775E+03 -0.84435140543E+02  0.49396026547E+03  0.59011885635E+03  0.00000000000E+00 0. -1.
         -1    1    3    3    0  502 -0.27652963905E+02 -0.13286202253E+02  0.10699911430E+03  0.11131046691E+03  0.00000000000E+00 0.  1.
         13    1    5    5    0    0 -0.54809001683E+02 -0.44827028680E+02  0.21101084820E+04  0.21112961173E+04  0.00000000000E+00 0. -1.
        -13    1    5    5    0    0  0.11646588414E+02 -0.23388647165E+02  0.15074772356E+03  0.15299525482E+03  0.00000000000E+00 0.  1.
          4    1    6    6  503    0  0.29891110700E+03  0.16294300051E+03  0.37201466839E+03  0.50427490994E+03  0.00000000000E+00 0. -1.
         -4    1    6    6    0  503  0.83535827927E+02  0.29940181338E+01  0.12846558815E+03  0.15326645436E+03  0.00000000000E+00 0.  1.
<mgrwt>
<rscale>  0 0.13501832E+04</rscale>
<asrwt>0</asrwt>
<pdfrwt beam="1">  1        2 0.53735054E+00 0.13501832E+04</pdfrwt>
<pdfrwt beam="2">  1       -1 0.20074327E-01 0.13501832E+04</pdfrwt>
<totfact> 0.18951960E+01</totfact>
</mgrwt>
</event>
<event>
12    7  0.1572140E-007  0.3271173E+04  0.7818608E-02  0.8170269E-01
          2   -1    0    0  501    0  0.00000000000E+00  0.00000000000E+00  0.30967234311E+04  0.30967234311E+04  0.00000000000E+00 0. -1.
         -3   -1    0    0    0  501 -0.00000000000E+00 -0.00000000000E+00 -0.86386260416E+03  0.86386260416E+03  0.00000000000E+00 0.  1.
         24    2    1    2    0    0 -0.28062354707E+03  0.68613266214E+03  0.26273651136E+04  0.27310737963E+04  0.78670423494E+02 0.  0.
        254    2    1    2    0    0  0.28062354707E+03 -0.68613266214E+03 -0.39450428663E+03  0.12295122390E+04  0.89807522422E+03 0.  0.
         23    2    4    4    0    0 -0.29474249316E+03 -0.84996317385E+02 -0.48374505504E+02  0.32366043854E+03  0.91205676634E+02 0.  0.
         23    2    4    4    0    0  0.57536604023E+03 -0.60113634476E+03 -0.34612978113E+03  0.90585180042E+03  0.91382020656E+02 0.  0.
          2    1    3    3  502    0 -0.25652388941E+03  0.54625792683E+03  0.21163759947E+04  0.22007384169E+04  0.00000000000E+00 0. -1.
         -1    1    3    3    0  502 -0.24099657663E+02  0.13987473531E+03  0.51098911885E+03  0.53033537941E+03  0.00000000000E+00 0.  1.
         13    1    5    5    0    0 -0.19216950772E+03 -0.52209254723E+02  0.13273011596E+02  0.19957730034E+03  0.00000000000E+00 0. -1.
        -13    1    5    5    0    0 -0.10257298545E+03 -0.32787062662E+02 -0.61647517100E+02  0.12408313820E+03  0.00000000000E+00 0.  1.
          4    1    6    6  503    0  0.16131510073E+03 -0.20020811441E+03 -0.14642297390E+03  0.29588095255E+03  0.00000000000E+00 0. -1.
         -4    1    6    6    0  503  0.41405093951E+03 -0.40092823035E+03 -0.19970680723E+03  0.60997084787E+03  0.00000000000E+00 0.  1.
<mgrwt>
<rscale>  0 0.32711732E+04</rscale>
<asrwt>0</asrwt>
<pdfrwt beam="1">  1        2 0.47641898E+00 0.32711732E+04</pdfrwt>
<pdfrwt beam="2">  1       -3 0.13290194E+00 0.32711732E+04</pdfrwt>
<totfact> 0.35439884E-01</totfact>
</mgrwt>
</event>
<event>
12    7  0.1572140E-007  0.3433851E+04  0.7818608E-02  0.8129648E-01
          2   -1    0    0  501    0  0.00000000000E+00  0.00000000000E+00  0.16506476960E+04  0.16506476960E+04  0.00000000000E+00 0. -1.
         -1   -1    0    0    0  501 -0.00000000000E+00 -0.00000000000E+00 -0.17858647504E+04  0.17858647504E+04  0.00000000000E+00 0.  1.
         24    2    1    2    0    0  0.86436860236E+03  0.48400382415E+03 -0.13171313151E+04  0.16500980233E+04  0.81214548282E+02 0.  0.
        254    2    1    2    0    0 -0.86436860236E+03 -0.48400382415E+03  0.11819142607E+04  0.17864144230E+04  0.90164426947E+03 0.  0.
         23    2    4    4    0    0 -0.12896683893E+03 -0.56936337023E+03  0.47046394317E+03  0.75557238921E+03  0.93521230830E+02 0.  0.
         23    2    4    4    0    0 -0.73540176343E+03  0.85359546075E+02  0.71145031752E+03  0.10308420338E+04  0.91497205607E+02 0.  0.
          4    1    3    3  502    0  0.31259447096E+03  0.13163559925E+03 -0.46100497314E+03  0.57233628186E+03  0.00000000000E+00 0. -1.
         -3    1    3    3    0  502  0.55177413140E+03  0.35236822490E+03 -0.85612634196E+03  0.10777617415E+04  0.00000000000E+00 0.  1.
         13    1    5    5    0    0  0.25756447541E+01 -0.88069123853E+01  0.27859315197E+02  0.29331503455E+02  0.00000000000E+00 0.  1.
        -13    1    5    5    0    0 -0.13154248368E+03 -0.56055645784E+03  0.44260462797E+03  0.72624088576E+03  0.00000000000E+00 0. -1.
          2    1    6    6  503    0 -0.18010663303E+02 -0.43085445445E+01  0.40368483834E+02  0.44413534376E+02  0.00000000000E+00 0.  1.
         -2    1    6    6    0  503 -0.71739110013E+03  0.89668090619E+02  0.67108183368E+03  0.98642849944E+03  0.00000000000E+00 0. -1.
<mgrwt>
<rscale>  0 0.34338512E+04</rscale>
<asrwt>0</asrwt>
<pdfrwt beam="1">  1        2 0.25394580E+00 0.34338512E+04</pdfrwt>
<pdfrwt beam="2">  1       -1 0.27474842E+00 0.34338512E+04</pdfrwt>
<totfact> 0.47287758E-01</totfact>
</mgrwt>
</event>
<event>
12    7  0.1572140E-007  0.1704150E+04  0.7818608E-02  0.8759001E-01
         -1   -1    0    0    0  501 -0.00000000000E+00  0.00000000000E+00  0.29260325093E+03  0.29260325093E+03  0.00000000000E+00 0.  1.
          2   -1    0    0  501    0  0.00000000000E+00 -0.00000000000E+00 -0.24812836538E+04  0.24812836538E+04  0.00000000000E+00 0. -1.
         24    2    1    2    0    0  0.45064936982E+03  0.40532033808E+03 -0.90886220234E+03  0.10953933185E+04  0.80539359105E+02 0.  0.
        254    2    1    2    0    0 -0.45064936982E+03 -0.40532033808E+03 -0.12798182006E+04  0.16784935863E+04  0.90113076838E+03 0.  0.
         23    2    4    4    0    0 -0.27724583961E+03  0.25781953362E+03 -0.53770328202E+03  0.66405584632E+03  0.92245216880E+02 0.  0.
         23    2    4    4    0    0 -0.17340353021E+03 -0.66313987170E+03 -0.74211491853E+03  0.10144377400E+04  0.92336895181E+02 0.  0.
          4    1    3    3  502    0  0.49568529102E+02  0.31633616018E+02 -0.53820701422E+02  0.79714444370E+02  0.00000000000E+00 0. -1.
         -3    1    3    3    0  502  0.40108084072E+03  0.37368672206E+03 -0.85504150092E+03  0.10156788741E+04  0.00000000000E+00 0.  1.
         13    1    5    5    0    0 -0.10628546618E+03  0.60914106285E+02 -0.23106992551E+03  0.26153477615E+03  0.00000000000E+00 0. -1.
        -13    1    5    5    0    0 -0.17096037344E+03  0.19690542734E+03 -0.30663335651E+03  0.40252107016E+03  0.00000000000E+00 0.  1.
          3    1    6    6  503    0 -0.97854844936E+02 -0.34038924591E+03 -0.44963719964E+03  0.57237576880E+03  0.00000000000E+00 0. -1.
         -3    1    6    6    0  503 -0.75548685270E+02 -0.32275062579E+03 -0.29247771889E+03  0.44206197116E+03  0.00000000000E+00 0.  1.
<mgrwt>
<rscale>  0 0.17041498E+04</rscale>
<asrwt>0</asrwt>
<pdfrwt beam="1">  1        2 0.38173593E+00 0.17041498E+04</pdfrwt>
<pdfrwt beam="2">  1       -1 0.45015887E-01 0.17041498E+04</pdfrwt>
<totfact> 0.18950189E+01</totfact>
</mgrwt>
</event>
<event>
12    7  0.1572140E-007  0.1142368E+04  0.7818608E-02  0.9164853E-01
          2   -1    0    0  501    0  0.00000000000E+00  0.00000000000E+00  0.16024879034E+04  0.16024879034E+04  0.00000000000E+00 0. -1.
         -1   -1    0    0    0  501 -0.00000000000E+00 -0.00000000000E+00 -0.20359049611E+03  0.20359049611E+03  0.00000000000E+00 0.  1.
         24    2    1    2    0    0  0.30724056219E+02  0.19076369715E+03  0.16656008439E+03  0.26733442526E+03  0.79941712751E+02 0.  0.
        254    2    1    2    0    0 -0.30724056219E+02 -0.19076369715E+03  0.12323373229E+04  0.15387439742E+04  0.90096780469E+03 0.  0.
         23    2    4    4    0    0 -0.25643455753E+03 -0.43514097038E+03  0.44982008995E+03  0.68353981762E+03  0.98905118974E+02 0.  0.
         23    2    4    4    0    0  0.22571050131E+03  0.24437727323E+03  0.78251723294E+03  0.85520415662E+03  0.91517471410E+02 0.  0.
          2    1    3    3  502    0  0.63530987927E+01  0.75274874582E+02  0.11711290155E+03  0.13936319570E+03  0.00000000000E+00 0. -1.
         -1    1    3    3    0  502  0.24370957426E+02  0.11548882257E+03  0.49447182842E+02  0.12797122956E+03  0.00000000000E+00 0.  1.
         13    1    5    5    0    0 -0.22478950583E+02 -0.87378629771E+02  0.12034199059E+03  0.15040785505E+03  0.00000000000E+00 0. -1.
        -13    1    5    5    0    0 -0.23395560695E+03 -0.34776234060E+03  0.32947809935E+03  0.53313196257E+03  0.00000000000E+00 0.  1.
          3    1    6    6  503    0  0.43265277540E+02  0.11038775808E+03  0.25936437106E+03  0.28517927406E+03  0.00000000000E+00 0. -1.
         -3    1    6    6    0  503  0.18244522377E+03  0.13398951514E+03  0.52315286188E+03  0.57002488256E+03  0.00000000000E+00 0.  1.
<mgrwt>
<rscale>  0 0.11423683E+04</rscale>
<asrwt>0</asrwt>
<pdfrwt beam="1">  1        2 0.24653659E+00 0.11423683E+04</pdfrwt>
<pdfrwt beam="2">  1       -1 0.31321616E-01 0.11423683E+04</pdfrwt>
<totfact> 0.11856831E+02</totfact>
</mgrwt>
</event>
<event>
12    7  0.1572140E-007  0.1588809E+04  0.7818608E-02  0.8827453E-01
          2   -1    0    0  501    0  0.00000000000E+00  0.00000000000E+00  0.25787221121E+04  0.25787221121E+04  0.00000000000E+00 0. -1.
         -1   -1    0    0    0  501 -0.00000000000E+00 -0.00000000000E+00 -0.24472536001E+03  0.24472536001E+03  0.00000000000E+00 0.  1.
         24    2    1    2    0    0  0.14682225231E+03  0.44637497625E+03  0.12224972479E+04  0.13122975861E+04  0.82571425052E+02 0.  0.
        254    2    1    2    0    0 -0.14682225231E+03 -0.44637497625E+03  0.11114995042E+04  0.15111498860E+04  0.90957981341E+03 0.  0.
         23    2    4    4    0    0  0.31613385248E+02 -0.17636204139E+03  0.11558554172E+04  0.11730533711E+04  0.89159912521E+02 0.  0.
         23    2    4    4    0    0 -0.17843563756E+03 -0.27001293486E+03 -0.44355913036E+02  0.33809651496E+03  0.87152422021E+02 0.  0.
          2    1    3    3  502    0  0.15717427653E+03  0.40460738158E+03  0.11141836479E+04  0.11957491743E+04  0.00000000000E+00 0. -1.
         -1    1    3    3    0  502 -0.10352024219E+02  0.41767594666E+02  0.10831359996E+03  0.11654841185E+03  0.00000000000E+00 0.  1.
         13    1    5    5    0    0  0.26979463889E+02 -0.16128473068E+03  0.11359316753E+04  0.11476416804E+04  0.00000000000E+00 0. -1.
        -13    1    5    5    0    0  0.46339213591E+01 -0.15077310704E+02  0.19923741981E+02  0.25411690612E+02  0.00000000000E+00 0.  1.
          3    1    6    6  503    0 -0.13570697340E+03 -0.21779616232E+03 -0.69878379301E+02  0.26595965642E+03  0.00000000000E+00 0. -1.
         -3    1    6    6    0  503 -0.42728664161E+02 -0.52216772536E+02  0.25522466266E+02  0.72136858535E+02  0.00000000000E+00 0.  1.
<mgrwt>
<rscale>  0 0.15888092E+04</rscale>
<asrwt>0</asrwt>
<pdfrwt beam="1">  1        2 0.39672646E+00 0.15888092E+04</pdfrwt>
<pdfrwt beam="2">  1       -1 0.37650057E-01 0.15888092E+04</pdfrwt>
<totfact> 0.23346868E+01</totfact>
</mgrwt>
</event>
<event>
12    7  0.1572140E-007  0.1020126E+04  0.7818608E-02  0.9286743E-01
          2   -1    0    0  501    0  0.00000000000E+00  0.00000000000E+00  0.71544418984E+03  0.71544418984E+03  0.00000000000E+00 0. -1.
         -1   -1    0    0    0  501 -0.00000000000E+00 -0.00000000000E+00 -0.36364004278E+03  0.36364004278E+03  0.00000000000E+00 0.  1.
         24    2    1    2    0    0 -0.50559197841E+02  0.51256255269E+02  0.12501821241E+02  0.11920029091E+03  0.94175249551E+02 0.  0.
        254    2    1    2    0    0  0.50559197841E+02 -0.51256255269E+02  0.33930232582E+03  0.95988394171E+03  0.89502384161E+03 0.  0.
         23    2    4    4    0    0  0.30494701407E+03 -0.36535790148E+03  0.19206969396E+03  0.52038326811E+03  0.86191071639E+02 0.  0.
         23    2    4    4    0    0 -0.25438781623E+03  0.31410164621E+03  0.14723263185E+03  0.43950067360E+03  0.90057698232E+02 0.  0.
          2    1    3    3  502    0 -0.31969612218E+02 -0.12741642264E+01  0.44603483583E+02  0.54892170185E+02  0.00000000000E+00 0. -1.
         -1    1    3    3    0  502 -0.18589585623E+02  0.52530419495E+02 -0.32101662342E+02  0.64308120725E+02  0.00000000000E+00 0.  1.
         13    1    5    5    0    0  0.73890789711E+02 -0.49287798393E+02  0.60005761399E+02  0.10719061188E+03  0.00000000000E+00 0. -1.
        -13    1    5    5    0    0  0.23105622436E+03 -0.31607010308E+03  0.13206393257E+03  0.41319265623E+03  0.00000000000E+00 0.  1.
          3    1    6    6  503    0 -0.24222792372E+03  0.25374676919E+03  0.13920451796E+03  0.37741182775E+03  0.00000000000E+00 0. -1.
         -3    1    6    6    0  503 -0.12159892507E+02  0.60354877014E+02  0.80281138899E+01  0.62088845841E+02  0.00000000000E+00 0.  1.
<mgrwt>
<rscale>  0 0.10201258E+04</rscale>
<asrwt>0</asrwt>
<pdfrwt beam="1">  1        2 0.11006834E+00 0.10201258E+04</pdfrwt>
<pdfrwt beam="2">  1       -1 0.55944622E-01 0.10201258E+04</pdfrwt>
<totfact> 0.14667040E+02</totfact>
</mgrwt>
</event>
<event>
12    7  0.1572140E-007  0.1540632E+04  0.7818608E-02  0.8857874E-01
          2   -1    0    0  501    0  0.00000000000E+00  0.00000000000E+00  0.24434119606E+04  0.24434119606E+04  0.00000000000E+00 0. -1.
         -1   -1    0    0    0  501 -0.00000000000E+00 -0.00000000000E+00 -0.24285182944E+03  0.24285182944E+03  0.00000000000E+00 0.  1.
         24    2    1    2    0    0  0.10318796654E+02 -0.33154563817E+03  0.60979371083E+02  0.34521979922E+03  0.73683365267E+02 0.  0.
        254    2    1    2    0    0 -0.10318796654E+02  0.33154563817E+03  0.21395807601E+04  0.23410439908E+04  0.89031014278E+03 0.  0.
         23    2    4    4    0    0  0.21514586183E+02 -0.21372834470E+03  0.13873495567E+04  0.14070804070E+04  0.94835629241E+02 0.  0.
         23    2    4    4    0    0 -0.31833382837E+02  0.54527398287E+03  0.75223120345E+03  0.93396358388E+03  0.89995066090E+02 0.  0.
          4    1    3    3  502    0  0.19358963477E+02 -0.19096325021E+02  0.58672730985E+01  0.27818410987E+02  0.00000000000E+00 0. -1.
         -3    1    3    3    0  502 -0.90401668236E+01 -0.31244931315E+03  0.55112097984E+02  0.31740138823E+03  0.00000000000E+00 0.  1.
         13    1    5    5    0    0  0.63949355555E+01 -0.11111576339E+01  0.44969449915E+01  0.78963527215E+01  0.00000000000E+00 0.  1.
        -13    1    5    5    0    0  0.15119650628E+02 -0.21261718706E+03  0.13828526117E+04  0.13991840542E+04  0.00000000000E+00 0. -1.
          3    1    6    6  503    0  0.62047063160E+01  0.41165284536E+03  0.60226855773E+03  0.72953682505E+03  0.00000000000E+00 0. -1.
         -3    1    6    6    0  503 -0.38038089153E+02  0.13362113752E+03  0.14996264571E+03  0.20442675883E+03  0.00000000000E+00 0.  1.
<mgrwt>
<rscale>  0 0.15406324E+04</rscale>
<asrwt>0</asrwt>
<pdfrwt beam="1">  1        2 0.37590952E+00 0.15406324E+04</pdfrwt>
<pdfrwt beam="2">  1       -1 0.37361822E-01 0.15406324E+04</pdfrwt>
<totfact> 0.28462125E+01</totfact>
</mgrwt>
</event>
<event>
12    7  0.1572140E-007  0.1455803E+04  0.7818608E-02  0.8914387E-01
          2   -1    0    0  501    0  0.00000000000E+00  0.00000000000E+00  0.10997555661E+04  0.10997555661E+04  0.00000000000E+00 0. -1.
         -1   -1    0    0    0  501 -0.00000000000E+00 -0.00000000000E+00 -0.48178047593E+03  0.48178047593E+03  0.00000000000E+00 0.  1.
         24    2    1    2    0    0 -0.58730886933E+02  0.35875037125E+03  0.47258753013E+03  0.60176616499E+03  0.81439534270E+02 0.  0.
        254    2    1    2    0    0  0.58730886933E+02 -0.35875037125E+03  0.14538756000E+03  0.97976987701E+03  0.89814270767E+03 0.  0.
         23    2    4    4    0    0 -0.23572949677E+03 -0.76055688527E+02 -0.27893388484E+03  0.38355083912E+03  0.89186718021E+02 0.  0.
         23    2    4    4    0    0  0.29446038371E+03 -0.28269468272E+03  0.42432144484E+03  0.59621903789E+03  0.93836300980E+02 0.  0.
          2    1    3    3  502    0 -0.59059267580E+02  0.25392047530E+03  0.28054101297E+03  0.38297110181E+03  0.00000000000E+00 0. -1.
         -3    1    3    3    0  502  0.32838064699E+00  0.10482989595E+03  0.19204651717E+03  0.21879506318E+03  0.00000000000E+00 0.  1.
         13    1    5    5    0    0 -0.21351071927E+03 -0.56158160358E+02 -0.19530318290E+03  0.29476074954E+03  0.00000000000E+00 0.  1.
        -13    1    5    5    0    0 -0.22218777503E+02 -0.19897528169E+02 -0.83630701936E+02  0.88790089578E+02  0.00000000000E+00 0. -1.
          1    1    6    6  503    0  0.77570551200E+02 -0.11273911099E+03  0.19214971749E+03  0.23590000316E+03  0.00000000000E+00 0. -1.
         -1    1    6    6    0  503  0.21688983251E+03 -0.16995557173E+03  0.23217172735E+03  0.36031903473E+03  0.00000000000E+00 0.  1.
<mgrwt>
<rscale>  0 0.14558032E+04</rscale>
<asrwt>0</asrwt>
<pdfrwt beam="1">  1        2 0.16919316E+00 0.14558032E+04</pdfrwt>
<pdfrwt beam="2">  1       -1 0.74120073E-01 0.14558032E+04</pdfrwt>
<totfact> 0.44163712E+01</totfact>
</mgrwt>
</event>
<event>
12    7  0.1572140E-007  0.1247362E+04  0.7818608E-02  0.9072381E-01
         -1   -1    0    0    0  501 -0.00000000000E+00  0.00000000000E+00  0.33043444149E+03  0.33043444149E+03  0.00000000000E+00 0.  1.
          2   -1    0    0  501    0  0.00000000000E+00 -0.00000000000E+00 -0.11771720231E+04  0.11771720231E+04  0.00000000000E+00 0. -1.
         24    2    1    2    0    0  0.70666036843E+02 -0.21702145087E+03 -0.41727264141E+03  0.48236974819E+03  0.80449473561E+02 0.  0.
        254    2    1    2    0    0 -0.70666036843E+02  0.21702145087E+03 -0.42946494021E+03  0.10252367164E+04  0.90253985558E+03 0.  0.
         23    2    4    4    0    0 -0.13149799684E+03  0.45743485898E+02 -0.68115743372E+03  0.70176981083E+03  0.95505121343E+02 0.  0.
         23    2    4    4    0    0  0.60831959993E+02  0.17127796497E+03  0.25169249351E+03  0.32346690558E+03  0.90802307638E+02 0.  0.
          2    1    3    3  502    0  0.67841638713E+02 -0.22422287423E+03 -0.40347941538E+03  0.46655548856E+03  0.00000000000E+00 0. -1.
         -3    1    3    3    0  502  0.28243981298E+01  0.72014233601E+01 -0.13793226029E+02  0.15814259625E+02  0.00000000000E+00 0.  1.
         13    1    5    5    0    0 -0.42210026061E+02  0.61729659090E+02 -0.23988343294E+03  0.25126937440E+03  0.00000000000E+00 0.  1.
        -13    1    5    5    0    0 -0.89287970775E+02 -0.15986173192E+02 -0.44127400078E+03  0.45050043643E+03  0.00000000000E+00 0. -1.
          3    1    6    6  503    0  0.42146075713E+02  0.16995721554E+03  0.24920018390E+03  0.30456933278E+03  0.00000000000E+00 0. -1.
         -3    1    6    6    0  503  0.18685884280E+02  0.13207494264E+01  0.24923096084E+01  0.18897572795E+02  0.00000000000E+00 0.  1.
<mgrwt>
<rscale>  0 0.12473623E+04</rscale>
<asrwt>0</asrwt>
<pdfrwt beam="1">  1        2 0.18110339E+00 0.12473623E+04</pdfrwt>
<pdfrwt beam="2">  1       -1 0.50836068E-01 0.12473623E+04</pdfrwt>
<totfact> 0.85233776E+01</totfact>
</mgrwt>
</event>
<event>
12    7  0.1572140E-007  0.2219946E+04  0.7818608E-02  0.8510172E-01
         -1   -1    0    0    0  501 -0.00000000000E+00  0.00000000000E+00  0.33705236576E+03  0.33705236576E+03  0.00000000000E+00 0.  1.
          2   -1    0    0  501    0  0.00000000000E+00 -0.00000000000E+00 -0.36553362904E+04  0.36553362904E+04  0.00000000000E+00 0. -1.
         24    2    1    2    0    0 -0.70200607237E+02 -0.22937911562E+03  0.21673909325E+03  0.33319247593E+03  0.80613197008E+02 0.  0.
        254    2    1    2    0    0  0.70200607237E+02  0.22937911562E+03 -0.35350230179E+04  0.36591961803E+04  0.91421334734E+03 0.  0.
         23    2    4    4    0    0  0.24800235054E+03 -0.50821612522E+02 -0.29235193789E+03  0.39832210167E+03  0.95408798973E+02 0.  0.
         23    2    4    4    0    0 -0.17780174331E+03  0.28020072815E+03 -0.32426710800E+04  0.32608740786E+04  0.90874171921E+02 0.  0.
          2    1    3    3  502    0  0.18912456544E+01 -0.35493421792E+01 -0.64500330007E+01  0.76011555530E+01  0.00000000000E+00 0. -1.
         -1    1    3    3    0  502 -0.72091852892E+02 -0.22582977344E+03  0.22318912625E+03  0.32559132038E+03  0.00000000000E+00 0.  1.
         13    1    5    5    0    0  0.16224332325E+03 -0.42909770727E+02 -0.12214179435E+03  0.20756387521E+03  0.00000000000E+00 0. -1.
        -13    1    5    5    0    0  0.85759027290E+02 -0.79118417945E+01 -0.17021014353E+03  0.19075822646E+03  0.00000000000E+00 0.  1.
          4    1    6    6  503    0 -0.10480870925E+03  0.23440387492E+03 -0.25372978150E+04  0.25502568977E+04  0.00000000000E+00 0. -1.
         -4    1    6    6    0  503 -0.72993034058E+02  0.45796853230E+02 -0.70537326503E+03  0.71061718091E+03  0.00000000000E+00 0.  1.
<mgrwt>
<rscale>  0 0.22199457E+04</rscale>
<asrwt>0</asrwt>
<pdfrwt beam="1">  1        2 0.56235944E+00 0.22199457E+04</pdfrwt>
<pdfrwt beam="2">  1       -1 0.51854209E-01 0.22199457E+04</pdfrwt>
<totfact> 0.24574571E+00</totfact>
</mgrwt>
</event>
<event>
12    7  0.1572140E-007  0.1794624E+04  0.7818608E-02  0.8709164E-01
          2   -1    0    0  501    0  0.00000000000E+00  0.00000000000E+00  0.27295155493E+04  0.27295155493E+04  0.00000000000E+00 0. -1.
         -1   -1    0    0    0  501 -0.00000000000E+00 -0.00000000000E+00 -0.29498587506E+03  0.29498587506E+03  0.00000000000E+00 0.  1.
         24    2    1    2    0    0 -0.13038806035E+03  0.50833878979E+03  0.16055814031E+04  0.16909555944E+04  0.77651844727E+02 0.  0.
        254    2    1    2    0    0  0.13038806035E+03 -0.50833878979E+03  0.82894827117E+03  0.13335458299E+04  0.90320533254E+03 0.  0.
         23    2    4    4    0    0 -0.19482231604E+03 -0.74938871427E+02 -0.10441383406E+03  0.25050901245E+03  0.90999710422E+02 0.  0.
         23    2    4    4    0    0  0.32521037639E+03 -0.43339991836E+03  0.93336210523E+03  0.10830368175E+04  0.90590564388E+02 0.  0.
          4    1    3    3  502    0 -0.14005175225E+03  0.44895974066E+03  0.14308101861E+04  0.15061198925E+04  0.00000000000E+00 0. -1.
         -3    1    3    3    0  502  0.96636919011E+01  0.59379049131E+02  0.17477121697E+03  0.18483570191E+03  0.00000000000E+00 0.  1.
         13    1    5    5    0    0 -0.15640690725E+03 -0.86815606858E+02 -0.55727282280E+02  0.18736488524E+03  0.00000000000E+00 0.  1.
        -13    1    5    5    0    0 -0.38415408791E+02  0.11876735431E+02 -0.48686551782E+02  0.63144127213E+02  0.00000000000E+00 0. -1.
          2    1    6    6  503    0  0.54519925669E+01 -0.38866267215E+02  0.44546540836E+02  0.59369228146E+02  0.00000000000E+00 0. -1.
         -2    1    6    6    0  503  0.31975838383E+03 -0.39453365115E+03  0.88881556440E+03  0.10236675893E+04  0.00000000000E+00 0.  1.
<mgrwt>
<rscale>  0 0.17946237E+04</rscale>
<asrwt>0</asrwt>
<pdfrwt beam="1">  1        2 0.41992545E+00 0.17946237E+04</pdfrwt>
<pdfrwt beam="2">  1       -1 0.45382444E-01 0.17946237E+04</pdfrwt>
<totfact> 0.13246999E+01</totfact>
</mgrwt>
</event>
<event>
12    7  0.1572140E-007  0.1453492E+04  0.7818608E-02  0.8915983E-01
          2   -1    0    0  501    0  0.00000000000E+00  0.00000000000E+00  0.16711442935E+04  0.16711442935E+04  0.00000000000E+00 0. -1.
         -1   -1    0    0    0  501 -0.00000000000E+00 -0.00000000000E+00 -0.31604694968E+03  0.31604694968E+03  0.00000000000E+00 0.  1.
         24    2    1    2    0    0  0.38471009594E+03 -0.99290090423E+02  0.18899626098E+03  0.44728617386E+03  0.80529216370E+02 0.  0.
        254    2    1    2    0    0 -0.38471009594E+03  0.99290090423E+02  0.11661010828E+04  0.15399050693E+04  0.92393479591E+03 0.  0.
         23    2    4    4    0    0 -0.33306824373E+02 -0.32751301122E+03  0.80166664061E+03  0.87143495909E+03  0.91407703077E+02 0.  0.
         23    2    4    4    0    0 -0.35140327157E+03  0.42680310165E+03  0.36443444221E+03  0.66847011020E+03  0.91622479324E+02 0.  0.
          4    1    3    3  502    0  0.18503361133E+03 -0.46060454058E+02  0.46495864433E+02  0.19626733849E+03  0.00000000000E+00 0. -1.
         -3    1    3    3    0  502  0.19967648461E+03 -0.53229636364E+02  0.14250039655E+03  0.25101883537E+03  0.00000000000E+00 0.  1.
         13    1    5    5    0    0  0.12119723915E+02 -0.38993040736E+02  0.47228638781E+02  0.62433078210E+02  0.00000000000E+00 0.  1.
        -13    1    5    5    0    0 -0.45426548289E+02 -0.28851997049E+03  0.75443800183E+03  0.80900188088E+03  0.00000000000E+00 0. -1.
          1    1    6    6  503    0 -0.32891298465E+03  0.39450442805E+03  0.36323856436E+03  0.62909438868E+03  0.00000000000E+00 0. -1.
         -1    1    6    6    0  503 -0.22490286919E+02  0.32298673592E+02  0.11958778459E+01  0.39375721521E+02  0.00000000000E+00 0.  1.
<mgrwt>
<rscale>  0 0.14534924E+04</rscale>
<asrwt>0</asrwt>
<pdfrwt beam="1">  1        2 0.25709912E+00 0.14534924E+04</pdfrwt>
<pdfrwt beam="2">  1       -1 0.48622609E-01 0.14534924E+04</pdfrwt>
<totfact> 0.47578527E+01</totfact>
</mgrwt>
</event>
<event>
12    7  0.1572140E-007  0.1232911E+04  0.7818608E-02  0.9084528E-01
          2   -1    0    0  501    0  0.00000000000E+00  0.00000000000E+00  0.21188360514E+04  0.21188360514E+04  0.00000000000E+00 0. -1.
         -1   -1    0    0    0  501 -0.00000000000E+00 -0.00000000000E+00 -0.17935187235E+03  0.17935187235E+03  0.00000000000E+00 0.  1.
         24    2    1    2    0    0  0.11354795579E+03  0.25124840811E+03  0.36706852258E+03  0.46438750243E+03  0.69982507149E+02 0.  0.
        254    2    1    2    0    0 -0.11354795579E+03 -0.25124840811E+03  0.15724156565E+04  0.18338004213E+04  0.90239353259E+03 0.  0.
         23    2    4    4    0    0 -0.16539725665E+03 -0.34259916668E+03  0.17267999877E+03  0.42693190573E+03  0.87875074069E+02 0.  0.
         23    2    4    4    0    0  0.51849300856E+02  0.91350758570E+02  0.13997356577E+04  0.14068685156E+04  0.94793447042E+02 0.  0.
          2    1    3    3  502    0  0.72528214554E+02  0.15285602422E+03  0.27817416965E+03  0.32558589451E+03  0.00000000000E+00 0. -1.
         -3    1    3    3    0  502  0.41019741237E+02  0.98392383887E+02  0.88894352932E+02  0.13880160792E+03  0.00000000000E+00 0.  1.
         13    1    5    5    0    0 -0.16077272262E+03 -0.26594706742E+03  0.11692738376E+03  0.33203572711E+03  0.00000000000E+00 0.  1.
        -13    1    5    5    0    0 -0.46245340252E+01 -0.76652099260E+02  0.55752615009E+02  0.94896178618E+02  0.00000000000E+00 0. -1.
          1    1    6    6  503    0  0.16101533636E+02  0.29920447922E+02  0.10889975677E+03  0.11407738432E+03  0.00000000000E+00 0. -1.
         -1    1    6    6    0  503  0.35747767220E+02  0.61430310648E+02  0.12908359009E+04  0.12927911313E+04  0.00000000000E+00 0.  1.
<mgrwt>
<rscale>  0 0.12329107E+04</rscale>
<asrwt>0</asrwt>
<pdfrwt beam="1">  1        2 0.32597476E+00 0.12329107E+04</pdfrwt>
<pdfrwt beam="2">  1       -1 0.27592597E-01 0.12329107E+04</pdfrwt>
<totfact> 0.76122758E+01</totfact>
</mgrwt>
</event>
<event>
12    7  0.1572140E-007  0.1919855E+04  0.7818608E-02  0.8645036E-01
         -1   -1    0    0    0  501 -0.00000000000E+00  0.00000000000E+00  0.94678863368E+03  0.94678863368E+03  0.00000000000E+00 0.  1.
          2   -1    0    0  501    0  0.00000000000E+00 -0.00000000000E+00 -0.97324837156E+03  0.97324837156E+03  0.00000000000E+00 0. -1.
         24    2    1    2    0    0 -0.22730964420E+03  0.56812938611E+03 -0.43833494713E+03  0.75612869728E+03  0.71780270717E+02 0.  0.
        254    2    1    2    0    0  0.22730964420E+03 -0.56812938611E+03  0.41187520926E+03  0.11639083080E+04  0.90033365350E+03 0.  0.
         23    2    4    4    0    0 -0.18948442533E+03  0.13492316047E+03  0.16698305225E+02  0.25138844966E+03  0.93854741781E+02 0.  0.
         23    2    4    4    0    0  0.41679406952E+03 -0.70305254658E+03  0.39517690403E+03  0.91251985830E+03  0.92344608168E+02 0.  0.
          4    1    3    3  502    0 -0.20728968372E+03  0.55034291693E+03 -0.40853414096E+03  0.71606318403E+03  0.00000000000E+00 0. -1.
         -3    1    3    3    0  502 -0.20019960484E+02  0.17786469181E+02 -0.29800806171E+02  0.40065513252E+02  0.00000000000E+00 0.  1.
         13    1    5    5    0    0 -0.87492970528E+02  0.11806708534E+03  0.17658273932E+02  0.14800902395E+03  0.00000000000E+00 0. -1.
        -13    1    5    5    0    0 -0.10199145480E+03  0.16856075127E+02 -0.95996870768E+00  0.10337942571E+03  0.00000000000E+00 0.  1.
          3    1    6    6  503    0  0.28787328190E+03 -0.39762968694E+03  0.22895293505E+03  0.54166395564E+03  0.00000000000E+00 0. -1.
         -3    1    6    6    0  503  0.12892078763E+03 -0.30542285964E+03  0.16622396898E+03  0.37085590266E+03  0.00000000000E+00 0.  1.
<mgrwt>
<rscale>  0 0.19198547E+04</rscale>
<asrwt>0</asrwt>
<pdfrwt beam="1">  1        2 0.14973052E+00 0.19198547E+04</pdfrwt>
<pdfrwt beam="2">  1       -1 0.14565979E+00 0.19198547E+04</pdfrwt>
<totfact> 0.10556973E+01</totfact>
</mgrwt>
</event>
<event>
12    7  0.1572140E-007  0.1683663E+04  0.7818608E-02  0.8770737E-01
         -3   -1    0    0    0  501 -0.00000000000E+00  0.00000000000E+00  0.15671375242E+04  0.15671375242E+04  0.00000000000E+00 0.  1.
          4   -1    0    0  501    0  0.00000000000E+00 -0.00000000000E+00 -0.45221337814E+03  0.45221337814E+03  0.00000000000E+00 0. -1.
         24    2    1    2    0    0  0.20785022227E+03 -0.56106277893E+03  0.35060683771E+03  0.69795385400E+03  0.78875033235E+02 0.  0.
        254    2    1    2    0    0 -0.20785022227E+03  0.56106277893E+03  0.76431730839E+03  0.13213970484E+04  0.89661365970E+03 0.  0.
         23    2    4    4    0    0  0.14237193136E+02 -0.21014905729E+01  0.69998948406E+03  0.70606386870E+03  0.91289621355E+02 0.  0.
         23    2    4    4    0    0 -0.22208741541E+03  0.56316426951E+03  0.64327824338E+02  0.61533317968E+03  0.89554667665E+02 0.  0.
          2    1    3    3  502    0  0.16787039772E+03 -0.44751523042E+03  0.31495700972E+03  0.57240568643E+03  0.00000000000E+00 0. -1.
         -1    1    3    3    0  502  0.39979824555E+02 -0.11354754852E+03  0.35649827985E+02  0.12554816757E+03  0.00000000000E+00 0.  1.
         13    1    5    5    0    0  0.32982171283E+02 -0.31740608640E+02  0.21555264040E+03  0.22035932166E+03  0.00000000000E+00 0. -1.
        -13    1    5    5    0    0 -0.18744978147E+02  0.29639118067E+02  0.48443684366E+03  0.48570454705E+03  0.00000000000E+00 0.  1.
          4    1    6    6  503    0 -0.23087965036E+02  0.28806410984E+02  0.23287936462E+02  0.43648498576E+02  0.00000000000E+00 0. -1.
         -4    1    6    6    0  503 -0.19899945037E+03  0.53435785852E+03  0.41039887876E+02  0.57168468111E+03  0.00000000000E+00 0.  1.
<mgrwt>
<rscale>  0 0.16836633E+04</rscale>
<asrwt>0</asrwt>
<pdfrwt beam="1">  1        4 0.69571290E-01 0.16836633E+04</pdfrwt>
<pdfrwt beam="2">  1       -3 0.24109808E+00 0.16836633E+04</pdfrwt>
<totfact> 0.34163805E-01</totfact>
</mgrwt>
</event>
<event>
12    7  0.1572140E-007  0.1850130E+04  0.7818608E-02  0.8680086E-01
         -1   -1    0    0    0  501 -0.00000000000E+00  0.00000000000E+00  0.75037864813E+03  0.75037864813E+03  0.00000000000E+00 0.  1.
          2   -1    0    0  501    0  0.00000000000E+00 -0.00000000000E+00 -0.11404180580E+04  0.11404180580E+04  0.00000000000E+00 0. -1.
         24    2    1    2    0    0 -0.46364908254E+03 -0.37146191667E+03  0.23472335062E+03  0.64371851864E+03  0.79523912390E+02 0.  0.
        254    2    1    2    0    0  0.46364908254E+03  0.37146191667E+03 -0.62476276046E+03  0.12470781874E+04  0.90106662988E+03 0.  0.
         23    2    4    4    0    0  0.22255880120E+03  0.57436696601E+03 -0.67279229514E+03  0.91677816505E+03  0.91667332641E+02 0.  0.
         23    2    4    4    0    0  0.24109028134E+03 -0.20290504933E+03  0.48029534684E+02  0.33030002240E+03  0.86581093753E+02 0.  0.
          2    1    3    3  502    0 -0.31490771229E+03 -0.25242959934E+03  0.11880271922E+03  0.42071564741E+03  0.00000000000E+00 0. -1.
         -1    1    3    3    0  502 -0.14874137025E+03 -0.11903231733E+03  0.11592063141E+03  0.22300287124E+03  0.00000000000E+00 0.  1.
         13    1    5    5    0    0  0.22558508199E+03  0.57628148636E+03 -0.66630868113E+03  0.90937134290E+03  0.00000000000E+00 0.  1.
        -13    1    5    5    0    0 -0.30262807897E+01 -0.19145203592E+01 -0.64836140088E+01  0.74068221417E+01  0.00000000000E+00 0. -1.
          4    1    6    6  503    0  0.57571246508E+02 -0.86128048956E+02  0.44494592482E+02  0.11274864967E+03  0.00000000000E+00 0. -1.
         -4    1    6    6    0  503  0.18351903483E+03 -0.11677700038E+03  0.35349422021E+01  0.21755137273E+03  0.00000000000E+00 0.  1.
<mgrwt>
<rscale>  0 0.18501301E+04</rscale>
<asrwt>0</asrwt>
<pdfrwt beam="1">  1        2 0.17544893E+00 0.18501301E+04</pdfrwt>
<pdfrwt beam="2">  1       -1 0.11544287E+00 0.18501301E+04</pdfrwt>
<totfact> 0.15007870E+01</totfact>
</mgrwt>
</event>
<event>
12    7  0.1572140E-007  0.1381773E+04  0.7818608E-02  0.8967119E-01
         -1   -1    0    0    0  501 -0.00000000000E+00  0.00000000000E+00  0.40919149124E+03  0.40919149124E+03  0.00000000000E+00 0.  1.
          2   -1    0    0  501    0  0.00000000000E+00 -0.00000000000E+00 -0.11665052331E+04  0.11665052331E+04  0.00000000000E+00 0. -1.
         24    2    1    2    0    0 -0.30202974898E+03 -0.16245426635E+03 -0.42271711443E+01  0.35201401568E+03  0.79263108261E+02 0.  0.
        254    2    1    2    0    0  0.30202974898E+03  0.16245426635E+03 -0.75308657071E+03  0.12236827087E+04  0.90146915119E+03 0.  0.
         23    2    4    4    0    0 -0.24888139442E+03 -0.10341836689E+03 -0.45703643736E+03  0.53810703645E+03  0.89663652061E+02 0.  0.
         23    2    4    4    0    0  0.55091114340E+03  0.26587263324E+03 -0.29605013335E+03  0.68557567220E+03  0.90426632320E+02 0.  0.
          4    1    3    3  502    0 -0.12778930518E+03 -0.11120682545E+03 -0.15063238569E+02  0.17007047275E+03  0.00000000000E+00 0. -1.
         -3    1    3    3    0  502 -0.17424044380E+03 -0.51247440898E+02  0.10836067424E+02  0.18194354293E+03  0.00000000000E+00 0.  1.
         13    1    5    5    0    0 -0.19432979879E+03 -0.11313804187E+03 -0.39806758251E+03  0.45718933437E+03  0.00000000000E+00 0.  1.
        -13    1    5    5    0    0 -0.54551595628E+02  0.97196749781E+01 -0.58968854853E+02  0.80917702080E+02  0.00000000000E+00 0. -1.
          1    1    6    6  503    0  0.21658799480E+03  0.56890259873E+02 -0.11472235665E+03  0.25161097010E+03  0.00000000000E+00 0. -1.
         -1    1    6    6    0  503  0.33432314860E+03  0.20898237336E+03 -0.18132777670E+03  0.43396470210E+03  0.00000000000E+00 0.  1.
<mgrwt>
<rscale>  0 0.13817728E+04</rscale>
<asrwt>0</asrwt>
<pdfrwt beam="1">  1        2 0.17946234E+00 0.13817728E+04</pdfrwt>
<pdfrwt beam="2">  1       -1 0.62952537E-01 0.13817728E+04</pdfrwt>
<totfact> 0.56430503E+01</totfact>
</mgrwt>
</event>
<event>
12    7  0.1572140E-007  0.2456982E+04  0.7818608E-02  0.8418473E-01
         -3   -1    0    0    0  501 -0.00000000000E+00  0.00000000000E+00  0.82383478248E+03  0.82383478248E+03  0.00000000000E+00 0.  1.
          2   -1    0    0  501    0  0.00000000000E+00 -0.00000000000E+00 -0.18319091942E+04  0.18319091942E+04  0.00000000000E+00 0. -1.
         24    2    1    2    0    0 -0.97050379896E+03  0.12508714964E+03 -0.85322471097E+03  0.13000444665E+04  0.67814368952E+02 0.  0.
        254    2    1    2    0    0  0.97050379896E+03 -0.12508714964E+03 -0.15484970079E+03  0.13556995102E+04  0.92542871872E+03 0.  0.
         23    2    4    4    0    0  0.73534619480E+03 -0.49494016226E+03 -0.30411048571E+02  0.89168279983E+03  0.92052122247E+02 0.  0.
         23    2    4    4    0    0  0.23515760415E+03  0.36985301262E+03 -0.12443865222E+03  0.46401671040E+03  0.87955554882E+02 0.  0.
          4    1    3    3  502    0 -0.57672112541E+03  0.57793495044E+02 -0.46635449683E+03  0.74393135522E+03  0.00000000000E+00 0. -1.
         -1    1    3    3    0  502 -0.39378267354E+03  0.67293654596E+02 -0.38687021414E+03  0.55611311126E+03  0.00000000000E+00 0.  1.
         13    1    5    5    0    0  0.42543342639E+03 -0.25683863672E+03 -0.55619557463E+02  0.50005321794E+03  0.00000000000E+00 0.  1.
        -13    1    5    5    0    0  0.30991276842E+03 -0.23810152554E+03  0.25208508892E+02  0.39162958189E+03  0.00000000000E+00 0. -1.
          1    1    6    6  503    0  0.51817613839E+02  0.29993517868E+02 -0.27450547786E+02  0.65865080216E+02  0.00000000000E+00 0. -1.
         -1    1    6    6    0  503  0.18333999031E+03  0.33985949475E+03 -0.96988104431E+02  0.39815163019E+03  0.00000000000E+00 0.  1.
<mgrwt>
<rscale>  0 0.24569823E+04</rscale>
<asrwt>0</asrwt>
<pdfrwt beam="1">  1        2 0.28183218E+00 0.24569823E+04</pdfrwt>
<pdfrwt beam="2">  1       -3 0.12674381E+00 0.24569823E+04</pdfrwt>
<totfact> 0.23297587E+00</totfact>
</mgrwt>
</event>
<event>
12    7  0.1572140E-007  0.1831007E+04  0.7818608E-02  0.8689982E-01
          2   -1    0    0  501    0  0.00000000000E+00  0.00000000000E+00  0.16635693670E+04  0.16635693670E+04  0.00000000000E+00 0. -1.
         -1   -1    0    0    0  501 -0.00000000000E+00 -0.00000000000E+00 -0.50382407594E+03  0.50382407594E+03  0.00000000000E+00 0.  1.
         24    2    1    2    0    0  0.53353049351E+03  0.40830439584E+03  0.25062740975E+03  0.72188107716E+03  0.83252170382E+02 0.  0.
        254    2    1    2    0    0 -0.53353049351E+03 -0.40830439584E+03  0.90911788127E+03  0.14455123657E+04  0.90091254309E+03 0.  0.
         23    2    4    4    0    0 -0.62356820216E+03 -0.54652445291E+03  0.93764778955E+03  0.12550778301E+04  0.92253466594E+02 0.  0.
         23    2    4    4    0    0  0.90037708655E+02  0.13822005706E+03 -0.28529908276E+02  0.19043453560E+03  0.90773253378E+02 0.  0.
          4    1    3    3  502    0  0.36671083783E+03  0.23532846145E+03  0.14322165934E+03  0.45865975085E+03  0.00000000000E+00 0. -1.
         -3    1    3    3    0  502  0.16681965568E+03  0.17297593440E+03  0.10740575041E+03  0.26322132631E+03  0.00000000000E+00 0.  1.
         13    1    5    5    0    0 -0.50980816037E+03 -0.40018313878E+03  0.75173219607E+03  0.99254833613E+03  0.00000000000E+00 0. -1.
        -13    1    5    5    0    0 -0.11376004179E+03 -0.14634131413E+03  0.18591559348E+03  0.26252949401E+03  0.00000000000E+00 0.  1.
          1    1    6    6  503    0  0.97207910447E+02  0.11881012756E+03 -0.49185994203E+02  0.16119704182E+03  0.00000000000E+00 0. -1.
         -1    1    6    6    0  503 -0.71702017918E+01  0.19409929503E+02  0.20656085926E+02  0.29237493785E+02  0.00000000000E+00 0.  1.
<mgrwt>
<rscale>  0 0.18310066E+04</rscale>
<asrwt>0</asrwt>
<pdfrwt beam="1">  1        2 0.25593375E+00 0.18310066E+04</pdfrwt>
<pdfrwt beam="2">  1       -1 0.77511397E-01 0.18310066E+04</pdfrwt>
<totfact> 0.18388875E+01</totfact>
</mgrwt>
</event>
<event>
12    7  0.1572140E-007  0.1490339E+04  0.7818608E-02  0.8890903E-01
         -1   -1    0    0    0  501 -0.00000000000E+00  0.00000000000E+00  0.91224458654E+03  0.91224458654E+03  0.00000000000E+00 0.  1.
          2   -1    0    0  501    0  0.00000000000E+00 -0.00000000000E+00 -0.60869386524E+03  0.60869386524E+03  0.00000000000E+00 0. -1.
         24    2    1    2    0    0  0.23482066576E+03  0.24398163577E+03  0.41969915379E+03  0.54514072631E+03  0.79769970121E+02 0.  0.
        254    2    1    2    0    0 -0.23482066576E+03 -0.24398163577E+03 -0.11614843249E+03  0.97579772547E+03  0.90775710353E+03 0.  0.
         23    2    4    4    0    0 -0.57258552066E+03 -0.17264381448E+03 -0.12928339187E+03  0.61874937051E+03  0.92068034341E+02 0.  0.
         23    2    4    4    0    0  0.33776485490E+03 -0.71337821287E+02  0.13134959378E+02  0.35704835496E+03  0.90204316249E+02 0.  0.
          4    1    3    3  502    0 -0.56912102009E+00  0.17222892092E+02  0.67771033325E+01  0.18517047290E+02  0.00000000000E+00 0. -1.
         -3    1    3    3    0  502  0.23538978678E+03  0.22675874367E+03  0.41292205045E+03  0.52662367902E+03  0.00000000000E+00 0.  1.
         13    1    5    5    0    0 -0.56957581317E+03 -0.16184603755E+03 -0.13311675264E+03  0.60690264182E+03  0.00000000000E+00 0.  1.
        -13    1    5    5    0    0 -0.30097074908E+01 -0.10797776931E+02  0.38333607705E+01  0.11846728689E+02  0.00000000000E+00 0. -1.
          1    1    6    6  503    0  0.26169924800E+03 -0.82570285612E+02 -0.15855859596E+02  0.27487407435E+03  0.00000000000E+00 0. -1.
         -1    1    6    6    0  503  0.76065606902E+02  0.11232464325E+02  0.28990818974E+02  0.82174280605E+02  0.00000000000E+00 0.  1.
<mgrwt>
<rscale>  0 0.14903391E+04</rscale>
<asrwt>0</asrwt>
<pdfrwt beam="1">  1        2 0.93645210E-01 0.14903391E+04</pdfrwt>
<pdfrwt beam="2">  1       -1 0.14034532E+00 0.14903391E+04</pdfrwt>
<totfact> 0.22428031E+01</totfact>
</mgrwt>
</event>
<event>
12    7  0.1572140E-007  0.1562463E+04  0.7818608E-02  0.8843946E-01
          2   -1    0    0  501    0  0.00000000000E+00  0.00000000000E+00  0.14820411596E+04  0.14820411596E+04  0.00000000000E+00 0. -1.
         -1   -1    0    0    0  501 -0.00000000000E+00 -0.00000000000E+00 -0.41181195614E+03  0.41181195614E+03  0.00000000000E+00 0.  1.
         24    2    1    2    0    0  0.47606190377E+03  0.14301930773E+03  0.49714984117E+03  0.71143524249E+03  0.10905356973E+03 0.  0.
        254    2    1    2    0    0 -0.47606190377E+03 -0.14301930773E+03  0.57307936231E+03  0.11824178733E+04  0.90697442794E+03 0.  0.
         23    2    4    4    0    0 -0.39490539323E+03  0.26690892285E+03  0.57761314782E+03  0.75453122844E+03  0.92140020927E+02 0.  0.
         23    2    4    4    0    0 -0.81156510544E+02 -0.40992823058E+03 -0.45337855120E+01  0.42788664484E+03  0.91863443175E+02 0.  0.
          2    1    3    3  502    0  0.41739607445E+03  0.15618909739E+03  0.46138976243E+03  0.64147878374E+03  0.00000000000E+00 0. -1.
         -1    1    3    3    0  502  0.58665829320E+02 -0.13169789655E+02  0.35760078743E+02  0.69956458751E+02  0.00000000000E+00 0.  1.
         13    1    5    5    0    0 -0.34169885720E+03  0.25271117958E+03  0.54278330930E+03  0.68937273673E+03  0.00000000000E+00 0.  1.
        -13    1    5    5    0    0 -0.53206536027E+02  0.14197743266E+02  0.34829838526E+02  0.65158491707E+02  0.00000000000E+00 0. -1.
          1    1    6    6  503    0 -0.66427965917E+02 -0.16008419385E+03  0.27779317910E+02  0.17553151934E+03  0.00000000000E+00 0. -1.
         -1    1    6    6    0  503 -0.14728544627E+02 -0.24984403673E+03 -0.32313103422E+02  0.25235512550E+03  0.00000000000E+00 0.  1.
<mgrwt>
<rscale>  0 0.15624625E+04</rscale>
<asrwt>0</asrwt>
<pdfrwt beam="1">  1        2 0.22800633E+00 0.15624625E+04</pdfrwt>
<pdfrwt beam="2">  1       -1 0.63355686E-01 0.15624625E+04</pdfrwt>
<totfact> 0.35979910E+01</totfact>
</mgrwt>
</event>
<event>
12    7  0.1572140E-007  0.1687540E+04  0.7818608E-02  0.8768503E-01
          2   -1    0    0  501    0  0.00000000000E+00  0.00000000000E+00  0.23117141554E+04  0.23117141554E+04  0.00000000000E+00 0. -1.
         -1   -1    0    0    0  501 -0.00000000000E+00 -0.00000000000E+00 -0.30797403116E+03  0.30797403116E+03  0.00000000000E+00 0.  1.
         24    2    1    2    0    0 -0.30302328839E+03  0.58633454525E+01 -0.48344028907E+02  0.31644347504E+03  0.77083303253E+02 0.  0.
        254    2    1    2    0    0  0.30302328839E+03 -0.58633454525E+01  0.20520841531E+04  0.23032447115E+04  0.10010141544E+04 0.  0.
         23    2    4    4    0    0  0.52628881924E+03 -0.34126920371E+03  0.12631634133E+04  0.14132552357E+04  0.90906335759E+02 0.  0.
         23    2    4    4    0    0 -0.22326553085E+03  0.33540585826E+03  0.78892073982E+03  0.88998947578E+03  0.85678155098E+02 0.  0.
          2    1    3    3  502    0 -0.19009860584E+03  0.24185842344E+02 -0.61572018118E+02  0.20127977625E+03  0.00000000000E+00 0. -1.
         -1    1    3    3    0  502 -0.11292468255E+03 -0.18322496892E+02  0.13227989211E+02  0.11516369879E+03  0.00000000000E+00 0.  1.
         13    1    5    5    0    0  0.92143945292E+02 -0.90493237709E+02  0.32076509797E+03  0.34578863602E+03  0.00000000000E+00 0. -1.
        -13    1    5    5    0    0  0.43414487395E+03 -0.25077596600E+03  0.94239831535E+03  0.10674665997E+04  0.00000000000E+00 0.  1.
          1    1    6    6  503    0 -0.16327734567E+03  0.23535391362E+03  0.47008746920E+03  0.55048450020E+03  0.00000000000E+00 0. -1.
         -1    1    6    6    0  503 -0.59988185185E+02  0.10005194464E+03  0.31883327062E+03  0.33950497558E+03  0.00000000000E+00 0.  1.
<mgrwt>
<rscale>  0 0.16875401E+04</rscale>
<asrwt>0</asrwt>
<pdfrwt beam="1">  1        2 0.35564832E+00 0.16875401E+04</pdfrwt>
<pdfrwt beam="2">  1       -1 0.47380622E-01 0.16875401E+04</pdfrwt>
<totfact> 0.21546713E+01</totfact>
</mgrwt>
</event>
<event>
12    7  0.1572140E-007  0.1479882E+04  0.7818608E-02  0.8897942E-01
          2   -1    0    0  501    0  0.00000000000E+00  0.00000000000E+00  0.28280080052E+04  0.28280080052E+04  0.00000000000E+00 0. -1.
         -1   -1    0    0    0  501 -0.00000000000E+00 -0.00000000000E+00 -0.19360375828E+03  0.19360375828E+03  0.00000000000E+00 0.  1.
         24    2    1    2    0    0 -0.41717852527E+03 -0.73516821138E+02  0.82076576320E+03  0.92709399296E+03  0.80026175787E+02 0.  0.
        254    2    1    2    0    0  0.41717852527E+03  0.73516821138E+02  0.18136384837E+04  0.20945177705E+04  0.95826796692E+03 0.  0.
         23    2    4    4    0    0 -0.22699465862E+03  0.24621410619E+03  0.40095047928E+03  0.52958604582E+03  0.86903003179E+02 0.  0.
         23    2    4    4    0    0  0.64417318389E+03 -0.17269728505E+03  0.14126880045E+04  0.15649317247E+04  0.92414619905E+02 0.  0.
          4    1    3    3  502    0  0.27783579008E+01 -0.20338732219E+01  0.17732754744E+02  0.18063955926E+02  0.00000000000E+00 0. -1.
         -3    1    3    3    0  502 -0.41995688318E+03 -0.71482947916E+02  0.80303300845E+03  0.90903003704E+03  0.00000000000E+00 0.  1.
         13    1    5    5    0    0 -0.93173517552E+01  0.40836061985E+02  0.23978613668E+02  0.48263556807E+02  0.00000000000E+00 0.  1.
        -13    1    5    5    0    0 -0.21767730686E+03  0.20537804420E+03  0.37697186562E+03  0.48132248901E+03  0.00000000000E+00 0. -1.
          4    1    6    6  503    0  0.58028681518E+03 -0.12922311566E+03  0.12813456600E+04  0.14125431328E+04  0.00000000000E+00 0. -1.
         -4    1    6    6    0  503  0.63886368713E+02 -0.43474169393E+02  0.13134234443E+03  0.15238859193E+03  0.00000000000E+00 0.  1.
<mgrwt>
<rscale>  0 0.14798824E+04</rscale>
<asrwt>0</asrwt>
<pdfrwt beam="1">  1        2 0.43507813E+00 0.14798824E+04</pdfrwt>
<pdfrwt beam="2">  1       -1 0.29785196E-01 0.14798824E+04</pdfrwt>
<totfact> 0.25467907E+01</totfact>
</mgrwt>
</event>
<event>
12    7  0.1572140E-007  0.1416106E+04  0.7818608E-02  0.8942242E-01
         -1   -1    0    0    0  501 -0.00000000000E+00  0.00000000000E+00  0.43724725381E+03  0.43724725381E+03  0.00000000000E+00 0.  1.
          2   -1    0    0  501    0  0.00000000000E+00 -0.00000000000E+00 -0.11465798570E+04  0.11465798570E+04  0.00000000000E+00 0. -1.
         24    2    1    2    0    0  0.58450701679E+02 -0.26000213456E+03  0.14815912955E+03  0.31514109431E+03  0.79656683008E+02 0.  0.
        254    2    1    2    0    0 -0.58450701679E+02  0.26000213456E+03 -0.85749173275E+03  0.12686860165E+04  0.89624468883E+03 0.  0.
         23    2    4    4    0    0  0.69538724042E+02 -0.99763300754E+02 -0.86229539004E+03  0.87549922625E+03  0.90317247304E+02 0.  0.
         23    2    4    4    0    0 -0.12798942572E+03  0.35976543532E+03  0.48036572948E+01  0.39318679026E+03  0.93596556380E+02 0.  0.
          2    1    3    3  502    0  0.82758774797E+01  0.35929069825E+01  0.91592153101E+00  0.90685192229E+01  0.00000000000E+00 0. -1.
         -1    1    3    3    0  502  0.50174824200E+02 -0.26359504155E+03  0.14724320802E+03  0.30607257508E+03  0.00000000000E+00 0.  1.
         13    1    5    5    0    0  0.67320920520E+02 -0.27620657661E+02 -0.30557143027E+03  0.31411607101E+03  0.00000000000E+00 0.  1.
        -13    1    5    5    0    0  0.22178035217E+01 -0.72142643093E+02 -0.55672395978E+03  0.56138315525E+03  0.00000000000E+00 0. -1.
          3    1    6    6  503    0  0.10110186098E+02  0.19153809974E+02  0.13535745119E+02  0.25540178061E+02  0.00000000000E+00 0. -1.
         -3    1    6    6    0  503 -0.13809961182E+03  0.34061162534E+03 -0.87320878243E+01  0.36764661220E+03  0.00000000000E+00 0.  1.
<mgrwt>
<rscale>  0 0.14161058E+04</rscale>
<asrwt>0</asrwt>
<pdfrwt beam="1">  1        2 0.17639690E+00 0.14161058E+04</pdfrwt>
<pdfrwt beam="2">  1       -1 0.67268809E-01 0.14161058E+04</pdfrwt>
<totfact> 0.50627446E+01</totfact>
</mgrwt>
</event>
<event>
12    7  0.1572140E-007  0.1186281E+04  0.7818608E-02  0.9124950E-01
          2   -1    0    0  501    0  0.00000000000E+00  0.00000000000E+00  0.11653881637E+04  0.11653881637E+04  0.00000000000E+00 0. -1.
         -1   -1    0    0    0  501 -0.00000000000E+00 -0.00000000000E+00 -0.30188713720E+03  0.30188713720E+03  0.00000000000E+00 0.  1.
         24    2    1    2    0    0 -0.21794402700E+03  0.54439854874E+02  0.94616035005E+02  0.25685954051E+03  0.81002054076E+02 0.  0.
        254    2    1    2    0    0  0.21794402700E+03 -0.54439854874E+02  0.76888499145E+03  0.12104157603E+04  0.90744635439E+03 0.  0.
         23    2    4    4    0    0 -0.12335373057E+03  0.29243013716E+03  0.45519874187E+02  0.33325255044E+03  0.90849741113E+02 0.  0.
         23    2    4    4    0    0  0.34129775757E+03 -0.34686999203E+03  0.72336511727E+03  0.87716320991E+03  0.96722558061E+02 0.  0.
          2    1    3    3  502    0 -0.20123010914E+02  0.18699246843E+02  0.40043359676E+02  0.48559942905E+02  0.00000000000E+00 0. -1.
         -1    1    3    3    0  502 -0.19782101609E+03  0.35740608031E+02  0.54572675329E+02  0.20829959760E+03  0.00000000000E+00 0.  1.
         13    1    5    5    0    0  0.11450935415E+02  0.26812719139E+02  0.17655917324E+02  0.34084853616E+02  0.00000000000E+00 0. -1.
        -13    1    5    5    0    0 -0.13480466599E+03  0.26561741802E+03  0.27863956863E+02  0.29916769682E+03  0.00000000000E+00 0.  1.
          1    1    6    6  503    0  0.66644608801E+02 -0.88584446253E+02  0.10359871610E+03  0.15172805271E+03  0.00000000000E+00 0. -1.
         -1    1    6    6    0  503  0.27465314877E+03 -0.25828554578E+03  0.61976640116E+03  0.72543515720E+03  0.00000000000E+00 0.  1.
<mgrwt>
<rscale>  0 0.11862811E+04</rscale>
<asrwt>0</asrwt>
<pdfrwt beam="1">  1        2 0.17929048E+00 0.11862811E+04</pdfrwt>
<pdfrwt beam="2">  1       -1 0.46444176E-01 0.11862811E+04</pdfrwt>
<totfact> 0.10322686E+02</totfact>
</mgrwt>
</event>
<event>
12    7  0.1572140E-007  0.1454924E+04  0.7818608E-02  0.8914994E-01
          2   -1    0    0  501    0  0.00000000000E+00  0.00000000000E+00  0.35255173726E+04  0.35255173726E+04  0.00000000000E+00 0. -1.
         -1   -1    0    0    0  501 -0.00000000000E+00 -0.00000000000E+00 -0.15010599021E+03  0.15010599021E+03  0.00000000000E+00 0.  1.
         24    2    1    2    0    0 -0.55025337635E+02 -0.37657663823E+03  0.15582641223E+04  0.16060346641E+04  0.79514246775E+02 0.  0.
        254    2    1    2    0    0  0.55025337635E+02  0.37657663823E+03  0.18171472601E+04  0.20695886986E+04  0.91451378578E+03 0.  0.
         23    2    4    4    0    0  0.36019833363E+03  0.24614386352E+02  0.29483707196E+03  0.47502123856E+03  0.91474425483E+02 0.  0.
         23    2    4    4    0    0 -0.30517299600E+03  0.35196225188E+03  0.15223101881E+04  0.15945674601E+04  0.90604037291E+02 0.  0.
          2    1    3    3  502    0 -0.43760201036E+02 -0.17332605187E+03  0.58471920026E+03  0.61143553921E+03  0.00000000000E+00 0. -1.
         -1    1    3    3    0  502 -0.11265136598E+02 -0.20325058636E+03  0.97354492201E+03  0.99459912493E+03  0.00000000000E+00 0.  1.
         13    1    5    5    0    0  0.17139812028E+03  0.56387862297E+02  0.15602907915E+03  0.23854135949E+03  0.00000000000E+00 0. -1.
        -13    1    5    5    0    0  0.18880021336E+03 -0.31773475945E+02  0.13880799281E+03  0.23647987907E+03  0.00000000000E+00 0.  1.
          2    1    6    6  503    0 -0.42532557693E+02  0.34314290379E+02  0.10270624261E+03  0.11634028219E+03  0.00000000000E+00 0. -1.
         -2    1    6    6    0  503 -0.26264043830E+03  0.31764796150E+03  0.14196039455E+04  0.14782271779E+04  0.00000000000E+00 0.  1.
<mgrwt>
<rscale>  0 0.14549244E+04</rscale>
<asrwt>0</asrwt>
<pdfrwt beam="1">  1        2 0.54238722E+00 0.14549244E+04</pdfrwt>
<pdfrwt beam="2">  1       -1 0.23093232E-01 0.14549244E+04</pdfrwt>
<totfact> 0.14037756E+01</totfact>
</mgrwt>
</event>
<event>
12    7  0.1572140E-007  0.1474512E+04  0.7818608E-02  0.8901581E-01
          2   -1    0    0  501    0  0.00000000000E+00  0.00000000000E+00  0.12457575546E+04  0.12457575546E+04  0.00000000000E+00 0. -1.
         -1   -1    0    0    0  501 -0.00000000000E+00 -0.00000000000E+00 -0.43631807497E+03  0.43631807497E+03  0.00000000000E+00 0.  1.
         24    2    1    2    0    0 -0.64221500899E+02 -0.57263071408E+01 -0.26226425635E+03  0.28119991668E+03  0.78317694112E+02 0.  0.
        254    2    1    2    0    0  0.64221500899E+02  0.57263071408E+01  0.10717037360E+04  0.14008757129E+04  0.89985925203E+03 0.  0.
         23    2    4    4    0    0  0.15199600750E+03  0.39589377168E+03  0.80102869820E+03  0.91062484429E+03  0.88067967795E+02 0.  0.
         23    2    4    4    0    0 -0.87774506606E+02 -0.39016746454E+03  0.27067503779E+03  0.49025086859E+03  0.84533565406E+02 0.  0.
          2    1    3    3  502    0  0.57918412483E+01  0.19483258895E+02 -0.23311515252E+02  0.30928458506E+02  0.00000000000E+00 0. -1.
         -1    1    3    3    0  502 -0.70013342147E+02 -0.25209566036E+02 -0.23895274110E+03  0.25027145818E+03  0.00000000000E+00 0.  1.
         13    1    5    5    0    0  0.88731756122E+02  0.12138565682E+03  0.30961043084E+03  0.34418951337E+03  0.00000000000E+00 0.  1.
        -13    1    5    5    0    0  0.63264251383E+02  0.27450811486E+03  0.49141826736E+03  0.56643533092E+03  0.00000000000E+00 0. -1.
          2    1    6    6  503    0 -0.41523770941E+02 -0.14588961922E+03  0.15208703702E+03  0.21479867639E+03  0.00000000000E+00 0. -1.
         -2    1    6    6    0  503 -0.46250735666E+02 -0.24427784533E+03  0.11858800077E+03  0.27545219221E+03  0.00000000000E+00 0.  1.
<mgrwt>
<rscale>  0 0.14745122E+04</rscale>
<asrwt>0</asrwt>
<pdfrwt beam="1">  1        2 0.19165501E+00 0.14745122E+04</pdfrwt>
<pdfrwt beam="2">  1       -1 0.67125858E-01 0.14745122E+04</pdfrwt>
<totfact> 0.44140727E+01</totfact>
</mgrwt>
</event>
<event>
12    7  0.1572140E-007  0.1745895E+04  0.7818608E-02  0.8735613E-01
         -1   -1    0    0    0  501 -0.00000000000E+00  0.00000000000E+00  0.53211654177E+03  0.53211654177E+03  0.00000000000E+00 0.  1.
          2   -1    0    0  501    0  0.00000000000E+00 -0.00000000000E+00 -0.14320871609E+04  0.14320871609E+04  0.00000000000E+00 0. -1.
         24    2    1    2    0    0  0.59876741371E+03 -0.33463518489E+03 -0.36809889214E+03  0.78251243210E+03  0.79534830738E+02 0.  0.
        254    2    1    2    0    0 -0.59876741371E+03  0.33463518489E+03 -0.53187172701E+03  0.11816912706E+04  0.80187505405E+03 0.  0.
         23    2    4    4    0    0 -0.78585525894E+03  0.24154092877E+03 -0.38874720366E+03  0.91382588123E+03  0.89681907672E+02 0.  0.
         23    2    4    4    0    0  0.18708784523E+03  0.93094256117E+02 -0.14312452334E+03  0.26786538936E+03  0.87171298477E+02 0.  0.
          4    1    3    3  502    0  0.96521121566E+02 -0.54912557030E+02 -0.27871942760E+02  0.11449262431E+03  0.00000000000E+00 0. -1.
         -3    1    3    3    0  502  0.50224629214E+03 -0.27972262786E+03 -0.34022694938E+03  0.66801980779E+03  0.00000000000E+00 0.  1.
         13    1    5    5    0    0 -0.56296513016E+02  0.43232320862E+02 -0.34047229627E+02  0.78724486598E+02  0.00000000000E+00 0. -1.
        -13    1    5    5    0    0 -0.72955874593E+03  0.19830860791E+03 -0.35469997404E+03  0.83510139463E+03  0.00000000000E+00 0.  1.
          1    1    6    6  503    0  0.97376108489E+02  0.69324136461E+02 -0.33310842631E+02  0.12408688342E+03  0.00000000000E+00 0. -1.
         -1    1    6    6    0  503  0.89711736745E+02  0.23770119655E+02 -0.10981368071E+03  0.14377850594E+03  0.00000000000E+00 0.  1.
<mgrwt>
<rscale>  0 0.17458949E+04</rscale>
<asrwt>0</asrwt>
<pdfrwt beam="1">  1        2 0.22032110E+00 0.17458949E+04</pdfrwt>
<pdfrwt beam="2">  1       -1 0.81864084E-01 0.17458949E+04</pdfrwt>
<totfact> 0.22257479E+01</totfact>
</mgrwt>
</event>
<event>
12    7  0.1572140E-007  0.2443223E+04  0.7818608E-02  0.8423497E-01
         -1   -1    0    0    0  501 -0.00000000000E+00  0.00000000000E+00  0.51064473790E+03  0.51064473790E+03  0.00000000000E+00 0.  1.
          2   -1    0    0  501    0  0.00000000000E+00 -0.00000000000E+00 -0.29224513279E+04  0.29224513279E+04  0.00000000000E+00 0. -1.
         24    2    1    2    0    0 -0.55848000096E+03  0.19948789101E+03  0.17921781568E+03  0.62468211172E+03  0.80083613289E+02 0.  0.
        254    2    1    2    0    0  0.55848000096E+03 -0.19948789101E+03 -0.25910244057E+04  0.28084139540E+04  0.90668965828E+03 0.  0.
         23    2    4    4    0    0  0.22693508851E+03 -0.59291984194E+02 -0.23539719447E+04  0.23673498542E+04  0.90257088980E+02 0.  0.
         23    2    4    4    0    0  0.33154491245E+03 -0.14019590682E+03 -0.23705246100E+03  0.44106409986E+03  0.93630922548E+02 0.  0.
          2    1    3    3  502    0 -0.16609100261E+02 -0.48996937316E+01  0.14476604223E+02  0.22570805922E+02  0.00000000000E+00 0. -1.
         -1    1    3    3    0  502 -0.54187090070E+03  0.20438758474E+03  0.16474121146E+03  0.60211130580E+03  0.00000000000E+00 0.  1.
         13    1    5    5    0    0  0.88484769442E+02  0.21264898267E+02 -0.81598012577E+03  0.82103916835E+03  0.00000000000E+00 0. -1.
        -13    1    5    5    0    0  0.13845031907E+03 -0.80556882461E+02 -0.15379918189E+04  0.15463106858E+04  0.00000000000E+00 0.  1.
          1    1    6    6  503    0  0.30776966694E+02 -0.36416515205E+02 -0.64485287363E+01  0.48114112081E+02  0.00000000000E+00 0. -1.
         -1    1    6    6    0  503  0.30076794575E+03 -0.10377939161E+03 -0.23060393226E+03  0.39294998777E+03  0.00000000000E+00 0.  1.
<mgrwt>
<rscale>  0 0.24432228E+04</rscale>
<asrwt>0</asrwt>
<pdfrwt beam="1">  1        2 0.44960788E+00 0.24432228E+04</pdfrwt>
<pdfrwt beam="2">  1       -1 0.78560731E-01 0.24432228E+04</pdfrwt>
<totfact> 0.32161106E+00</totfact>
</mgrwt>
</event>
<event>
12    7  0.1730074E-007  0.1477120E+04  0.7818608E-02  0.8899812E-01
         -3   -1    0    0    0  501 -0.00000000000E+00  0.00000000000E+00  0.25047295736E+03  0.25047295736E+03  0.00000000000E+00 0.  1.
          2   -1    0    0  501    0  0.00000000000E+00 -0.00000000000E+00 -0.21777637891E+04  0.21777637891E+04  0.00000000000E+00 0. -1.
         24    2    1    2    0    0 -0.21121842014E+03 -0.12198244393E+03  0.31476665823E+02  0.25847660675E+03  0.79538909435E+02 0.  0.
        254    2    1    2    0    0  0.21121842014E+03  0.12198244393E+03 -0.19587674975E+04  0.21697601397E+04  0.90088623962E+03 0.  0.
         23    2    4    4    0    0  0.38902441050E+03  0.34305415546E+03 -0.70007442269E+03  0.87630258308E+03  0.93679636395E+02 0.  0.
         23    2    4    4    0    0 -0.17780599036E+03 -0.22107171152E+03 -0.12586930748E+04  0.12934575566E+04  0.90755287589E+02 0.  0.
          2    1    3    3  502    0 -0.49047952022E+01 -0.23855031542E+02 -0.99178299814E+01  0.26296062394E+02  0.00000000000E+00 0. -1.
         -1    1    3    3    0  502 -0.20631362493E+03 -0.98127412392E+02  0.41394495804E+02  0.23218054436E+03  0.00000000000E+00 0.  1.
         13    1    5    5    0    0  0.71489275351E+02  0.23947707353E+02 -0.78615317803E+02  0.10892464079E+03  0.00000000000E+00 0. -1.
        -13    1    5    5    0    0  0.31753513515E+03  0.31910644811E+03 -0.62145910488E+03  0.76737794229E+03  0.00000000000E+00 0.  1.
          1    1    6    6  503    0 -0.74476651401E+02 -0.33005811512E+02 -0.28593139357E+03  0.29730946340E+03  0.00000000000E+00 0. -1.
         -1    1    6    6    0  503 -0.10332933896E+03 -0.18806590001E+03 -0.97276168125E+03  0.99614809318E+03  0.00000000000E+00 0.  1.
<mgrwt>
<rscale>  0 0.14771201E+04</rscale>
<asrwt>0</asrwt>
<pdfrwt beam="1">  1        2 0.33504058E+00 0.14771201E+04</pdfrwt>
<pdfrwt beam="2">  1       -3 0.38534302E-01 0.14771201E+04</pdfrwt>
<totfact> 0.22226902E+01</totfact>
</mgrwt>
</event>
<event>
12    7  0.1572140E-007  0.1541082E+04  0.7818608E-02  0.8857584E-01
         -1   -1    0    0    0  501 -0.00000000000E+00  0.00000000000E+00  0.30402537345E+03  0.30402537345E+03  0.00000000000E+00 0.  1.
          2   -1    0    0  501    0  0.00000000000E+00 -0.00000000000E+00 -0.19529075471E+04  0.19529075471E+04  0.00000000000E+00 0. -1.
         24    2    1    2    0    0  0.40228647672E+03 -0.10646300135E+03 -0.13579935787E+03  0.44507573655E+03  0.80511897642E+02 0.  0.
        254    2    1    2    0    0 -0.40228647672E+03  0.10646300135E+03 -0.15130828158E+04  0.18118571840E+04  0.90566995525E+03 0.  0.
         23    2    4    4    0    0  0.15443978903E+03 -0.21552159946E+03 -0.19299132293E+03  0.34061555452E+03  0.92043994847E+02 0.  0.
         23    2    4    4    0    0 -0.55672626575E+03  0.32198460080E+03 -0.13200914929E+04  0.14712416295E+04  0.91061323916E+02 0.  0.
          2    1    3    3  502    0  0.28330061895E+03 -0.72601053612E+02 -0.13314352655E+03  0.32133682071E+03  0.00000000000E+00 0. -1.
         -1    1    3    3    0  502  0.11898585776E+03 -0.33861947733E+02 -0.26558313229E+01  0.12373891583E+03  0.00000000000E+00 0.  1.
         13    1    5    5    0    0  0.34931333977E+01 -0.66852694528E+02 -0.63742760319E+02  0.92437136691E+02  0.00000000000E+00 0.  1.
        -13    1    5    5    0    0  0.15094665563E+03 -0.14866890493E+03 -0.12924856261E+03  0.24817841783E+03  0.00000000000E+00 0. -1.
          3    1    6    6  503    0 -0.20930850552E+03  0.78174739362E+02 -0.40599237251E+03  0.46341250188E+03  0.00000000000E+00 0. -1.
         -3    1    6    6    0  503 -0.34741776023E+03  0.24380986144E+03 -0.91409912036E+03  0.10078291276E+04  0.00000000000E+00 0.  1.
<mgrwt>
<rscale>  0 0.15410820E+04</rscale>
<asrwt>0</asrwt>
<pdfrwt beam="1">  1        2 0.30044730E+00 0.15410820E+04</pdfrwt>
<pdfrwt beam="2">  1       -1 0.46773136E-01 0.15410820E+04</pdfrwt>
<totfact> 0.35472283E+01</totfact>
</mgrwt>
</event>
<event>
12    7  0.1572140E-007  0.3298782E+04  0.7818608E-02  0.8163205E-01
         -1   -1    0    0    0  501 -0.00000000000E+00  0.00000000000E+00  0.66614357123E+03  0.66614357123E+03  0.00000000000E+00 0.  1.
          2   -1    0    0  501    0  0.00000000000E+00 -0.00000000000E+00 -0.40839397260E+04  0.40839397260E+04  0.00000000000E+00 0. -1.
         24    2    1    2    0    0  0.23071824645E+03  0.64040421536E+03  0.38330058161E+03  0.78526481724E+03  0.79831253540E+02 0.  0.
        254    2    1    2    0    0 -0.23071824645E+03 -0.64040421536E+03 -0.38010967364E+04  0.39648184800E+04  0.89894422053E+03 0.  0.
         23    2    4    4    0    0  0.16724460970E+03 -0.66127584071E+03 -0.19134648732E+04  0.20335502986E+04  0.93394318959E+02 0.  0.
         23    2    4    4    0    0 -0.39796285615E+03  0.20871625348E+02 -0.18876318632E+04  0.19312681814E+04  0.88502418547E+02 0.  0.
          2    1    3    3  502    0  0.51837214482E+02  0.76348353835E+02  0.69051276711E+02  0.11525730673E+03  0.00000000000E+00 0. -1.
         -1    1    3    3    0  502  0.17888103197E+03  0.56405586152E+03  0.31424930490E+03  0.67000751052E+03  0.00000000000E+00 0.  1.
         13    1    5    5    0    0  0.14316126537E+03 -0.37955000307E+03 -0.11147218788E+04  0.11862369999E+04  0.00000000000E+00 0. -1.
        -13    1    5    5    0    0  0.24083344334E+02 -0.28172583763E+03 -0.79874299443E+03  0.84731329874E+03  0.00000000000E+00 0.  1.
          4    1    6    6  503    0 -0.30385948464E+03 -0.19241198850E+02 -0.14803399610E+04  0.15113263083E+04  0.00000000000E+00 0. -1.
         -4    1    6    6    0  503 -0.94103371514E+02  0.40112824197E+02 -0.40729190220E+03  0.41994187311E+03  0.00000000000E+00 0.  1.
<mgrwt>
<rscale>  0 0.32987817E+04</rscale>
<asrwt>0</asrwt>
<pdfrwt beam="1">  1        2 0.62829841E+00 0.32987817E+04</pdfrwt>
<pdfrwt beam="2">  1       -1 0.10248363E+00 0.32987817E+04</pdfrwt>
<totfact> 0.24876389E-01</totfact>
</mgrwt>
</event>
<event>
12    7  0.1572140E-007  0.1750203E+04  0.7818608E-02  0.8733239E-01
          2   -1    0    0  501    0  0.00000000000E+00  0.00000000000E+00  0.13962956080E+04  0.13962956080E+04  0.00000000000E+00 0. -1.
         -1   -1    0    0    0  501 -0.00000000000E+00 -0.00000000000E+00 -0.54845308585E+03  0.54845308585E+03  0.00000000000E+00 0.  1.
         24    2    1    2    0    0  0.20743823057E+03  0.24541849823E+03 -0.30343011517E+03  0.44882287946E+03  0.78174699000E+02 0.  0.
        254    2    1    2    0    0 -0.20743823057E+03 -0.24541849823E+03  0.11512726373E+04  0.14959258144E+04  0.89950236127E+03 0.  0.
         23    2    4    4    0    0 -0.51952712173E+03 -0.40318594680E+02  0.87273187466E+03  0.10210624394E+04  0.96817151866E+02 0.  0.
         23    2    4    4    0    0  0.31208889116E+03 -0.20509990355E+03  0.27854076263E+03  0.47486337493E+03  0.91895712522E+02 0.  0.
          2    1    3    3  502    0  0.59992460279E+02  0.12618258412E+03 -0.10872915552E+03  0.17704002114E+03  0.00000000000E+00 0. -1.
         -1    1    3    3    0  502  0.14744577029E+03  0.11923591411E+03 -0.19470095965E+03  0.27178285832E+03  0.00000000000E+00 0.  1.
         13    1    5    5    0    0 -0.34009035148E+03 -0.71785611025E+02  0.58732836757E+03  0.68247288040E+03  0.00000000000E+00 0. -1.
        -13    1    5    5    0    0 -0.17943677025E+03  0.31467016346E+02  0.28540350709E+03  0.33858955905E+03  0.00000000000E+00 0.  1.
          2    1    6    6  503    0  0.22252772831E+02  0.49221763217E+01  0.26478094760E+01  0.22943945028E+02  0.00000000000E+00 0. -1.
         -2    1    6    6    0  503  0.28983611833E+03 -0.21002207987E+03  0.27589295316E+03  0.45191942990E+03  0.00000000000E+00 0.  1.
<mgrwt>
<rscale>  0 0.17502030E+04</rscale>
<asrwt>0</asrwt>
<pdfrwt beam="1">  1        2 0.21481471E+00 0.17502030E+04</pdfrwt>
<pdfrwt beam="2">  1       -1 0.84377399E-01 0.17502030E+04</pdfrwt>
<totfact> 0.21852671E+01</totfact>
</mgrwt>
</event>
<event>
12    7  0.1572140E-007  0.2482356E+04  0.7818608E-02  0.8409298E-01
          2   -1    0    0  501    0  0.00000000000E+00  0.00000000000E+00  0.15218112417E+04  0.15218112417E+04  0.00000000000E+00 0. -1.
         -1   -1    0    0    0  501 -0.00000000000E+00 -0.00000000000E+00 -0.10122953130E+04  0.10122953130E+04  0.00000000000E+00 0.  1.
         24    2    1    2    0    0  0.54582580264E+03  0.63210974384E+03 -0.47306674710E+03  0.96310580587E+03  0.79322827668E+02 0.  0.
        254    2    1    2    0    0 -0.54582580264E+03 -0.63210974384E+03  0.98258267580E+03  0.15710007488E+04  0.89726590415E+03 0.  0.
         23    2    4    4    0    0 -0.36911076579E+03 -0.75158460530E+03  0.10335961787E+04  0.13333084464E+04  0.90929512678E+02 0.  0.
         23    2    4    4    0    0 -0.17671503685E+03  0.11947486146E+03 -0.51013502887E+02  0.23769230237E+03  0.91612260975E+02 0.  0.
          4    1    3    3  502    0  0.17234005418E+03  0.14659112826E+03 -0.13462063003E+03  0.26327317977E+03  0.00000000000E+00 0. -1.
         -3    1    3    3    0  502  0.37348574846E+03  0.48551861558E+03 -0.33844611708E+03  0.69983262609E+03  0.00000000000E+00 0.  1.
         13    1    5    5    0    0 -0.17655344660E+03 -0.27791972836E+03  0.44649055274E+03  0.55476509317E+03  0.00000000000E+00 0.  1.
        -13    1    5    5    0    0 -0.19255731919E+03 -0.47366487694E+03  0.58710562594E+03  0.77854335322E+03  0.00000000000E+00 0. -1.
          2    1    6    6  503    0 -0.28411663046E+02  0.33787478199E+02 -0.49611041377E+02  0.66408370756E+02  0.00000000000E+00 0.  1.
         -2    1    6    6    0  503 -0.14830337380E+03  0.85687383263E+02 -0.14024615102E+01  0.17128393162E+03  0.00000000000E+00 0. -1.
<mgrwt>
<rscale>  0 0.24823556E+04</rscale>
<asrwt>0</asrwt>
<pdfrwt beam="1">  1        2 0.23412481E+00 0.24823556E+04</pdfrwt>
<pdfrwt beam="2">  1       -1 0.15573774E+00 0.24823556E+04</pdfrwt>
<totfact> 0.39539040E+00</totfact>
</mgrwt>
</event>
<event>
12    7  0.1572140E-007  0.3298653E+04  0.7818608E-02  0.8163238E-01
          2   -1    0    0  501    0  0.00000000000E+00  0.00000000000E+00  0.21442338450E+04  0.21442338450E+04  0.00000000000E+00 0. -1.
         -1   -1    0    0    0  501 -0.00000000000E+00 -0.00000000000E+00 -0.12686482590E+04  0.12686482590E+04  0.00000000000E+00 0.  1.
         24    2    1    2    0    0 -0.11864678018E+04  0.66324993591E+03  0.11268308757E+04  0.17674713000E+04  0.81244395636E+02 0.  0.
        254    2    1    2    0    0  0.11864678018E+04 -0.66324993591E+03 -0.25124528962E+03  0.16454108040E+04  0.89255038857E+03 0.  0.
         23    2    4    4    0    0  0.82057692001E+03 -0.80599790772E+03  0.29324825619E+02  0.11544405021E+04  0.94307044602E+02 0.  0.
         23    2    4    4    0    0  0.36589088177E+03  0.14274797181E+03 -0.28057011524E+03  0.49097030185E+03  0.89883963610E+02 0.  0.
          2    1    3    3  502    0 -0.26034870860E+02  0.21430332276E+01  0.23246662973E+02  0.34968763654E+02  0.00000000000E+00 0. -1.
         -1    1    3    3    0  502 -0.11604329309E+04  0.66110690268E+03  0.11035842127E+04  0.17325025363E+04  0.00000000000E+00 0.  1.
         13    1    5    5    0    0  0.41327855472E+03 -0.34264720635E+03  0.44809698146E+00  0.53684864962E+03  0.00000000000E+00 0.  1.
        -13    1    5    5    0    0  0.40729836529E+03 -0.46335070137E+03  0.28876728637E+02  0.61759185251E+03  0.00000000000E+00 0. -1.
          4    1    6    6  503    0  0.33759109839E+03  0.11209187412E+03 -0.22286759807E+03  0.41976458191E+03  0.00000000000E+00 0. -1.
         -4    1    6    6    0  503  0.28299783382E+02  0.30656097687E+02 -0.57702517162E+02  0.71205719936E+02  0.00000000000E+00 0.  1.
<mgrwt>
<rscale>  0 0.32986534E+04</rscale>
<asrwt>0</asrwt>
<pdfrwt beam="1">  1        2 0.32988213E+00 0.32986534E+04</pdfrwt>
<pdfrwt beam="2">  1       -1 0.19517666E+00 0.32986534E+04</pdfrwt>
<totfact> 0.85695093E-01</totfact>
</mgrwt>
</event>
<event>
12    7  0.1572140E-007  0.1500661E+04  0.7818608E-02  0.8884014E-01
         -1   -1    0    0    0  501 -0.00000000000E+00  0.00000000000E+00  0.90177940674E+03  0.90177940674E+03  0.00000000000E+00 0.  1.
          2   -1    0    0  501    0  0.00000000000E+00 -0.00000000000E+00 -0.62431647497E+03  0.62431647497E+03  0.00000000000E+00 0. -1.
         24    2    1    2    0    0  0.50189686868E+02 -0.47034542975E+03  0.48207968028E+02  0.48226835551E+03  0.80715119938E+02 0.  0.
        254    2    1    2    0    0 -0.50189686868E+02  0.47034542975E+03  0.22925496374E+03  0.10438275262E+04  0.90181718662E+03 0.  0.
         23    2    4    4    0    0 -0.11979126811E+03  0.72362671641E+03  0.18823288350E+03  0.76277604338E+03  0.91706604525E+02 0.  0.
         23    2    4    4    0    0  0.69601581237E+02 -0.25328128666E+03  0.41022080237E+02  0.28105148281E+03  0.91166521503E+02 0.  0.
          4    1    3    3  502    0  0.39430792426E+02 -0.23725470941E+03  0.62484096320E+02  0.24849315246E+03  0.00000000000E+00 0. -1.
         -3    1    3    3    0  502  0.10758894442E+02 -0.23309072034E+03 -0.14276128293E+02  0.23377520305E+03  0.00000000000E+00 0.  1.
         13    1    5    5    0    0 -0.83439893533E+02  0.23968223562E+03  0.59080253430E+02  0.26057679531E+03  0.00000000000E+00 0.  1.
        -13    1    5    5    0    0 -0.36351374573E+02  0.48394448079E+03  0.12915263007E+03  0.50219924808E+03  0.00000000000E+00 0. -1.
          1    1    6    6  503    0 -0.22409927894E+02 -0.47769531267E+02  0.10862305038E+02  0.53871352836E+02  0.00000000000E+00 0. -1.
         -1    1    6    6    0  503  0.92011509131E+02 -0.20551175539E+03  0.30159775199E+02  0.22718012998E+03  0.00000000000E+00 0.  1.
<mgrwt>
<rscale>  0 0.15006608E+04</rscale>
<asrwt>0</asrwt>
<pdfrwt beam="1">  1        2 0.96048689E-01 0.15006608E+04</pdfrwt>
<pdfrwt beam="2">  1       -1 0.13873529E+00 0.15006608E+04</pdfrwt>
<totfact> 0.22392079E+01</totfact>
</mgrwt>
</event>
<event>
12    7  0.1572140E-007  0.1372580E+04  0.7818608E-02  0.8973909E-01
         -1   -1    0    0    0  501 -0.00000000000E+00  0.00000000000E+00  0.74503310390E+03  0.74503310390E+03  0.00000000000E+00 0.  1.
          2   -1    0    0  501    0  0.00000000000E+00 -0.00000000000E+00 -0.63217825941E+03  0.63217825941E+03  0.00000000000E+00 0. -1.
         24    2    1    2    0    0 -0.85933852708E+02 -0.27454023414E+03 -0.22037278486E+03  0.37241573547E+03  0.85862381221E+02 0.  0.
        254    2    1    2    0    0  0.85933852708E+02  0.27454023414E+03  0.33322762935E+03  0.10047956278E+04  0.90322568253E+03 0.  0.
         23    2    4    4    0    0  0.21307249183E+03 -0.14986862985E+03 -0.17387493523E+03  0.32596754678E+03  0.90342987907E+02 0.  0.
         23    2    4    4    0    0 -0.12713863912E+03  0.42440886399E+03  0.50710256458E+03  0.67882808107E+03  0.85833765221E+02 0.  0.
          4    1    3    3  502    0 -0.46165034794E+02 -0.17280560806E+03 -0.83769807107E+02  0.19751042807E+03  0.00000000000E+00 0. -1.
         -3    1    3    3    0  502 -0.39768817914E+02 -0.10173462609E+03 -0.13660297776E+03  0.17490530740E+03  0.00000000000E+00 0.  1.
         13    1    5    5    0    0  0.16605712572E+03 -0.85669886151E+02 -0.80969280232E+02  0.20364263487E+03  0.00000000000E+00 0.  1.
        -13    1    5    5    0    0  0.47015366110E+02 -0.64198743699E+02 -0.92905654996E+02  0.12232491191E+03  0.00000000000E+00 0. -1.
          4    1    6    6  503    0 -0.13447423536E+02  0.13871336207E+03  0.20405260000E+03  0.24710259729E+03  0.00000000000E+00 0. -1.
         -4    1    6    6    0  503 -0.11369121559E+03  0.28569550192E+03  0.30304996458E+03  0.43172548379E+03  0.00000000000E+00 0.  1.
<mgrwt>
<rscale>  0 0.13725797E+04</rscale>
<asrwt>0</asrwt>
<pdfrwt beam="1">  1        2 0.97258194E-01 0.13725797E+04</pdfrwt>
<pdfrwt beam="2">  1       -1 0.11462048E+00 0.13725797E+04</pdfrwt>
<totfact> 0.35888338E+01</totfact>
</mgrwt>
</event>
<event>
12    7  0.1572140E-007  0.1712587E+04  0.7818608E-02  0.8754218E-01
         -1   -1    0    0    0  501 -0.00000000000E+00  0.00000000000E+00  0.38734116859E+03  0.38734116859E+03  0.00000000000E+00 0.  1.
          2   -1    0    0  501    0  0.00000000000E+00 -0.00000000000E+00 -0.18930044194E+04  0.18930044194E+04  0.00000000000E+00 0. -1.
         24    2    1    2    0    0 -0.24709418317E+02 -0.42322832400E+03  0.52801096741E+02  0.43496656672E+03  0.81701828375E+02 0.  0.
        254    2    1    2    0    0  0.24709418317E+02  0.42322832400E+03 -0.15584643475E+04  0.18453790212E+04  0.89268126445E+03 0.  0.
         23    2    4    4    0    0  0.14921822659E+03 -0.49891837030E+02  0.22958198922E+02  0.18772845344E+03  0.99797889690E+02 0.  0.
         23    2    4    4    0    0 -0.12450880827E+03  0.47312016103E+03 -0.15814225464E+04  0.16576505678E+04  0.86965535492E+02 0.  0.
          4    1    3    3  502    0 -0.79454555018E+01 -0.38258239620E+02  0.29440698705E+02  0.48924205688E+02  0.00000000000E+00 0. -1.
         -3    1    3    3    0  502 -0.16763962815E+02 -0.38497008438E+03  0.23360398037E+02  0.38604236104E+03  0.00000000000E+00 0.  1.
         13    1    5    5    0    0  0.53414829168E+02  0.20203306743E+00  0.53282201767E+02  0.75446522899E+02  0.00000000000E+00 0.  1.
        -13    1    5    5    0    0  0.95803397421E+02 -0.50093870097E+02 -0.30324002844E+02  0.11228193055E+03  0.00000000000E+00 0. -1.
          3    1    6    6  503    0  0.39987155616E+01  0.13515896217E+03 -0.44624388192E+03  0.46628053458E+03  0.00000000000E+00 0. -1.
         -3    1    6    6    0  503 -0.12850752383E+03  0.33796119886E+03 -0.11351786645E+04  0.11913700332E+04  0.00000000000E+00 0.  1.
<mgrwt>
<rscale>  0 0.17125870E+04</rscale>
<asrwt>0</asrwt>
<pdfrwt beam="1">  1        2 0.29123145E+00 0.17125870E+04</pdfrwt>
<pdfrwt beam="2">  1       -1 0.59590948E-01 0.17125870E+04</pdfrwt>
<totfact> 0.23683735E+01</totfact>
</mgrwt>
</event>
<event>
12    7  0.1572140E-007  0.1681967E+04  0.7818608E-02  0.8771717E-01
          2   -1    0    0  501    0  0.00000000000E+00  0.00000000000E+00  0.92171621363E+03  0.92171621363E+03  0.00000000000E+00 0. -1.
         -1   -1    0    0    0  501 -0.00000000000E+00 -0.00000000000E+00 -0.76732187885E+03  0.76732187885E+03  0.00000000000E+00 0.  1.
         24    2    1    2    0    0  0.51411338596E+03 -0.55776246027E+02  0.35077572238E+03  0.63103887838E+03  0.87993723463E+02 0.  0.
        254    2    1    2    0    0 -0.51411338596E+03  0.55776246027E+02 -0.19638138761E+03  0.10579992141E+04  0.90187201108E+03 0.  0.
         23    2    4    4    0    0 -0.58855352001E+03 -0.14493588041E+03  0.15689098829E+03  0.63308396416E+03  0.93695614216E+02 0.  0.
         23    2    4    4    0    0  0.74440134052E+02  0.20071212644E+03 -0.35327237590E+03  0.42491524993E+03  0.99623826428E+02 0.  0.
          4    1    3    3  502    0  0.49238279129E+03 -0.39547751968E+02  0.31391552998E+03  0.58527583053E+03  0.00000000000E+00 0. -1.
         -3    1    3    3    0  502  0.21730594670E+02 -0.16228494058E+02  0.36860192404E+02  0.45763047846E+02  0.00000000000E+00 0.  1.
         13    1    5    5    0    0 -0.35711505477E+03 -0.65344993051E+02  0.51751241279E+02  0.36671422311E+03  0.00000000000E+00 0.  1.
        -13    1    5    5    0    0 -0.23143846524E+03 -0.79590887360E+02  0.10513974701E+03  0.26636974105E+03  0.00000000000E+00 0. -1.
          2    1    6    6  503    0  0.40520646068E+02  0.47827864025E+02 -0.39110062128E+02  0.73885210256E+02  0.00000000000E+00 0.  1.
         -2    1    6    6    0  503  0.33919487984E+02  0.15288426241E+03 -0.31416231377E+03  0.35103003967E+03  0.00000000000E+00 0. -1.
<mgrwt>
<rscale>  0 0.16819667E+04</rscale>
<asrwt>0</asrwt>
<pdfrwt beam="1">  1        2 0.14180250E+00 0.16819667E+04</pdfrwt>
<pdfrwt beam="2">  1       -1 0.11804952E+00 0.16819667E+04</pdfrwt>
<totfact> 0.19869378E+01</totfact>
</mgrwt>
</event>
<event>
12    7  0.1572140E-007  0.1857779E+04  0.7818608E-02  0.8676162E-01
          2   -1    0    0  501    0  0.00000000000E+00  0.00000000000E+00  0.10975330606E+04  0.10975330606E+04  0.00000000000E+00 0. -1.
         -1   -1    0    0    0  501 -0.00000000000E+00 -0.00000000000E+00 -0.78615956756E+03  0.78615956756E+03  0.00000000000E+00 0.  1.
         24    2    1    2    0    0  0.15743510869E+03  0.44795261386E+03  0.64823294188E+03  0.80742704989E+03  0.79278851200E+02 0.  0.
        254    2    1    2    0    0 -0.15743510869E+03 -0.44795261386E+03 -0.33685944888E+03  0.10762655782E+04  0.90522149160E+03 0.  0.
         23    2    4    4    0    0 -0.26174172216E+03  0.99690227519E+02 -0.41208490705E+03  0.50629758499E+03  0.89868811976E+02 0.  0.
         23    2    4    4    0    0  0.10430661347E+03 -0.54764284138E+03  0.75225458173E+02  0.56996799323E+03  0.91717459750E+02 0.  0.
          4    1    3    3  502    0  0.10358412462E+03  0.19130102413E+03  0.26136782440E+03  0.34005718981E+03  0.00000000000E+00 0. -1.
         -3    1    3    3    0  502  0.53850984076E+02  0.25665158973E+03  0.38686511748E+03  0.46736986009E+03  0.00000000000E+00 0.  1.
         13    1    5    5    0    0 -0.21043445606E+02  0.41375111121E+02 -0.61150195941E+02  0.76772865564E+02  0.00000000000E+00 0. -1.
        -13    1    5    5    0    0 -0.24069827656E+03  0.58315116398E+02 -0.35093471111E+03  0.42952471943E+03  0.00000000000E+00 0.  1.
          4    1    6    6  503    0  0.10052621927E+03 -0.54717542912E+03  0.66307537049E+02  0.56027061360E+03  0.00000000000E+00 0. -1.
         -4    1    6    6    0  503  0.37803942039E+01 -0.46741225958E+00  0.89179211247E+01  0.96973796328E+01  0.00000000000E+00 0.  1.
<mgrwt>
<rscale>  0 0.18577794E+04</rscale>
<asrwt>0</asrwt>
<pdfrwt beam="1">  1        2 0.16885124E+00 0.18577794E+04</pdfrwt>
<pdfrwt beam="2">  1       -1 0.12094763E+00 0.18577794E+04</pdfrwt>
<totfact> 0.14230371E+01</totfact>
</mgrwt>
</event>
<event>
12    7  0.1572140E-007  0.1284430E+04  0.7818608E-02  0.9042004E-01
          2   -1    0    0  501    0  0.00000000000E+00  0.00000000000E+00  0.40022457087E+03  0.40022457087E+03  0.00000000000E+00 0. -1.
         -1   -1    0    0    0  501 -0.00000000000E+00 -0.00000000000E+00 -0.10305214417E+04  0.10305214417E+04  0.00000000000E+00 0.  1.
         24    2    1    2    0    0  0.15900923051E+03  0.11736836961E+03 -0.42531749325E+03  0.47891640703E+03  0.96988067722E+02 0.  0.
        254    2    1    2    0    0 -0.15900923051E+03 -0.11736836961E+03 -0.20497937760E+03  0.95182960557E+03  0.90824213909E+03 0.  0.
         23    2    4    4    0    0 -0.27059008925E+03 -0.11174206898E+03  0.29793629476E+03  0.42714030074E+03  0.89316932338E+02 0.  0.
         23    2    4    4    0    0  0.11158085874E+03 -0.56263006320E+01 -0.50291567235E+03  0.52468930482E+03  0.99462303417E+02 0.  0.
          4    1    3    3  502    0  0.17040790389E+02  0.45263799112E+02 -0.18053851014E+03  0.18690466471E+03  0.00000000000E+00 0. -1.
         -3    1    3    3    0  502  0.14196844012E+03  0.72104570503E+02 -0.24477898312E+03  0.29201174232E+03  0.00000000000E+00 0.  1.
         13    1    5    5    0    0 -0.15366539991E+03 -0.86711068008E+02  0.12237604898E+03  0.21472717995E+03  0.00000000000E+00 0.  1.
        -13    1    5    5    0    0 -0.11692468934E+03 -0.25031000974E+02  0.17556024578E+03  0.21241312079E+03  0.00000000000E+00 0. -1.
          4    1    6    6  503    0 -0.15606309573E+02 -0.14214753583E+02 -0.95079455992E+02  0.97394656268E+02  0.00000000000E+00 0. -1.
         -4    1    6    6    0  503  0.12718716831E+03  0.85884529508E+01 -0.40783621636E+03  0.42729464856E+03  0.00000000000E+00 0.  1.
<mgrwt>
<rscale>  0 0.12844298E+04</rscale>
<asrwt>0</asrwt>
<pdfrwt beam="1">  1        2 0.61573013E-01 0.12844298E+04</pdfrwt>
<pdfrwt beam="2">  1       -1 0.15854176E+00 0.12844298E+04</pdfrwt>
<totfact> 0.26753253E+01</totfact>
</mgrwt>
</event>
<event>
12    7  0.1572140E-007  0.2433185E+04  0.7818608E-02  0.8427183E-01
          2   -1    0    0  501    0  0.00000000000E+00  0.00000000000E+00  0.18237637792E+04  0.18237637792E+04  0.00000000000E+00 0. -1.
         -1   -1    0    0    0  501 -0.00000000000E+00 -0.00000000000E+00 -0.81156202639E+03  0.81156202639E+03  0.00000000000E+00 0.  1.
         24    2    1    2    0    0 -0.46391803052E+03 -0.81909992914E+03 -0.62179378620E+02  0.94673679121E+03  0.79370295107E+02 0.  0.
        254    2    1    2    0    0  0.46391803052E+03  0.81909992914E+03  0.10743811314E+04  0.16885890144E+04  0.90049620263E+03 0.  0.
         23    2    4    4    0    0 -0.15932865503E+03 -0.46499287439E+02  0.34011475262E+03  0.39034780652E+03  0.95632426818E+02 0.  0.
         23    2    4    4    0    0  0.62324668555E+03  0.86559921658E+03  0.73426637882E+03  0.12982412079E+04  0.92653569452E+02 0.  0.
          4    1    3    3  502    0 -0.24934219050E+03 -0.44892016345E+03 -0.73273025107E+02  0.51871936278E+03  0.00000000000E+00 0. -1.
         -3    1    3    3    0  502 -0.21457584001E+03 -0.37017976569E+03  0.11093646486E+02  0.42801742843E+03  0.00000000000E+00 0.  1.
         13    1    5    5    0    0 -0.13497424630E+03 -0.70001600061E+02  0.23482276135E+03  0.27974988905E+03  0.00000000000E+00 0.  1.
        -13    1    5    5    0    0 -0.24354408732E+02  0.23502312623E+02  0.10529199127E+03  0.11059791747E+03  0.00000000000E+00 0. -1.
          2    1    6    6  503    0  0.28286148132E+03  0.32318254037E+03  0.31927725582E+03  0.53515935767E+03  0.00000000000E+00 0. -1.
         -2    1    6    6    0  503  0.34038520423E+03  0.54241667621E+03  0.41498912300E+03  0.76308185019E+03  0.00000000000E+00 0.  1.
<mgrwt>
<rscale>  0 0.24331851E+04</rscale>
<asrwt>0</asrwt>
<pdfrwt beam="1">  1        2 0.28057904E+00 0.24331851E+04</pdfrwt>
<pdfrwt beam="2">  1       -1 0.12485570E+00 0.24331851E+04</pdfrwt>
<totfact> 0.47956171E+00</totfact>
</mgrwt>
</event>
<event>
12    7  0.1572140E-007  0.2427250E+04  0.7818608E-02  0.8429372E-01
         -1   -1    0    0    0  501 -0.00000000000E+00  0.00000000000E+00  0.15896466416E+04  0.15896466416E+04  0.00000000000E+00 0.  1.
          2   -1    0    0  501    0  0.00000000000E+00 -0.00000000000E+00 -0.92654883666E+03  0.92654883666E+03  0.00000000000E+00 0. -1.
         24    2    1    2    0    0 -0.36433886555E+03 -0.65409119413E+03  0.10346640170E+04  0.12800087346E+04  0.85525630442E+02 0.  0.
        254    2    1    2    0    0  0.36433886555E+03  0.65409119413E+03 -0.37156621207E+03  0.12361867436E+04  0.91077885131E+03 0.  0.
         23    2    4    4    0    0  0.52177546280E+03  0.59229495241E+03  0.26239088472E+02  0.79506723912E+03  0.91544965615E+02 0.  0.
         23    2    4    4    0    0 -0.15743659724E+03  0.61796241722E+02 -0.39780530054E+03  0.44111950452E+03  0.87933511710E+02 0.  0.
          2    1    3    3  502    0 -0.94839209559E+01 -0.10725699022E+02  0.46299850818E+02  0.48462991673E+02  0.00000000000E+00 0. -1.
         -1    1    3    3    0  502 -0.35485494460E+03 -0.64336549511E+03  0.98836416620E+03  0.12315457430E+04  0.00000000000E+00 0.  1.
         13    1    5    5    0    0  0.22271406931E+03  0.28218587435E+03  0.53216886539E+02  0.36340399195E+03  0.00000000000E+00 0. -1.
        -13    1    5    5    0    0  0.29906139348E+03  0.31010907806E+03 -0.26977798066E+02  0.43166324716E+03  0.00000000000E+00 0.  1.
          3    1    6    6  503    0 -0.99931525144E+01  0.38216054403E+02 -0.11015661975E+03  0.11702482978E+03  0.00000000000E+00 0. -1.
         -3    1    6    6    0  503 -0.14744344473E+03  0.23580187318E+02 -0.28764868080E+03  0.32409467474E+03  0.00000000000E+00 0.  1.
<mgrwt>
<rscale>  0 0.24272497E+04</rscale>
<asrwt>0</asrwt>
<pdfrwt beam="1">  1        2 0.14254597E+00 0.24272497E+04</pdfrwt>
<pdfrwt beam="2">  1       -1 0.24456102E+00 0.24272497E+04</pdfrwt>
<totfact> 0.21786880E+00</totfact>
</mgrwt>
</event>
<event>
12    7  0.1572140E-007  0.3659622E+04  0.7818608E-02  0.8076969E-01
          2   -1    0    0  501    0  0.00000000000E+00  0.00000000000E+00  0.19393146359E+04  0.19393146359E+04  0.00000000000E+00 0. -1.
         -1   -1    0    0    0  501 -0.00000000000E+00 -0.00000000000E+00 -0.17264903668E+04  0.17264903668E+04  0.00000000000E+00 0.  1.
         24    2    1    2    0    0  0.11745961724E+04 -0.11481648055E+04 -0.40570851534E+03  0.16938402118E+04  0.80849706544E+02 0.  0.
        254    2    1    2    0    0 -0.11745961724E+04  0.11481648055E+04  0.61853278444E+03  0.19719647909E+04  0.89894590636E+03 0.  0.
         23    2    4    4    0    0 -0.10094331023E+04  0.10490121277E+04  0.16189184088E+03  0.14676489945E+04  0.91667718985E+02 0.  0.
         23    2    4    4    0    0 -0.16516307009E+03  0.99152677779E+02  0.45664094357E+03  0.50431579649E+03  0.93291896829E+02 0.  0.
          2    1    3    3  502    0  0.20087764060E+03 -0.18667421191E+03 -0.98290459961E+02  0.29130757354E+03  0.00000000000E+00 0. -1.
         -1    1    3    3    0  502  0.97371853180E+03 -0.96149059356E+03 -0.30741805538E+03  0.14025326383E+04  0.00000000000E+00 0.  1.
         13    1    5    5    0    0 -0.26907464582E+03  0.24545217865E+03  0.72625784860E+02  0.37137910773E+03  0.00000000000E+00 0. -1.
        -13    1    5    5    0    0 -0.74035845649E+03  0.80355994904E+03  0.89266056015E+02  0.10962698867E+04  0.00000000000E+00 0.  1.
          1    1    6    6  503    0 -0.40044788458E+01 -0.10622129594E+02  0.50498494213E+01  0.12424430253E+02  0.00000000000E+00 0. -1.
         -1    1    6    6    0  503 -0.16115859124E+03  0.10977480737E+03  0.45159109415E+03  0.49189136624E+03  0.00000000000E+00 0.  1.
<mgrwt>
<rscale>  0 0.36596219E+04</rscale>
<asrwt>0</asrwt>
<pdfrwt beam="1">  1        2 0.29835610E+00 0.36596219E+04</pdfrwt>
<pdfrwt beam="2">  1       -1 0.26561390E+00 0.36596219E+04</pdfrwt>
<totfact> 0.36760361E-01</totfact>
</mgrwt>
</event>
<event>
12    7  0.1572140E-007  0.2453209E+04  0.7818608E-02  0.8419847E-01
          2   -1    0    0  501    0  0.00000000000E+00  0.00000000000E+00  0.23766894022E+04  0.23766894022E+04  0.00000000000E+00 0. -1.
         -1   -1    0    0    0  501 -0.00000000000E+00 -0.00000000000E+00 -0.63304816899E+03  0.63304816899E+03  0.00000000000E+00 0.  1.
         24    2    1    2    0    0 -0.16625831875E+03  0.37063224735E+03 -0.44496378423E+03  0.60798145112E+03  0.81477507909E+02 0.  0.
        254    2    1    2    0    0  0.16625831875E+03 -0.37063224735E+03  0.21886050175E+04  0.24017561201E+04  0.90190379013E+03 0.  0.
         23    2    4    4    0    0  0.44713353240E+03 -0.22909403141E+03  0.18933024447E+04  0.19609442818E+04  0.91081601273E+02 0.  0.
         23    2    4    4    0    0 -0.28087521365E+03 -0.14153821594E+03  0.29530257274E+03  0.44081183830E+03  0.90484888832E+02 0.  0.
          4    1    3    3  502    0 -0.12056199370E+03  0.24475549730E+03 -0.24128871053E+03  0.36422615174E+03  0.00000000000E+00 0. -1.
         -3    1    3    3    0  502 -0.45696325048E+02  0.12587675005E+03 -0.20367507370E+03  0.24375529938E+03  0.00000000000E+00 0.  1.
         13    1    5    5    0    0  0.45921300497E+02 -0.56928883727E+02  0.31397634887E+03  0.32238301955E+03  0.00000000000E+00 0.  1.
        -13    1    5    5    0    0  0.40121223190E+03 -0.17216514768E+03  0.15793260959E+04  0.16385612623E+04  0.00000000000E+00 0. -1.
          3    1    6    6  503    0 -0.27013251979E+03 -0.14989261038E+03  0.29506130721E+03  0.42720082854E+03  0.00000000000E+00 0. -1.
         -3    1    6    6    0  503 -0.10742693856E+02  0.83543944335E+01  0.24126552907E+00  0.13611009760E+02  0.00000000000E+00 0.  1.
<mgrwt>
<rscale>  0 0.24532092E+04</rscale>
<asrwt>0</asrwt>
<pdfrwt beam="1">  1        2 0.36564452E+00 0.24532092E+04</pdfrwt>
<pdfrwt beam="2">  1       -1 0.97392027E-01 0.24532092E+04</pdfrwt>
<totfact> 0.42258142E+00</totfact>
</mgrwt>
</event>
<event>
12    7  0.1572140E-007  0.1358786E+04  0.7818608E-02  0.8984204E-01
         -1   -1    0    0    0  501 -0.00000000000E+00  0.00000000000E+00  0.21264588083E+03  0.21264588083E+03  0.00000000000E+00 0.  1.
          2   -1    0    0  501    0  0.00000000000E+00 -0.00000000000E+00 -0.21706260849E+04  0.21706260849E+04  0.00000000000E+00 0. -1.
         24    2    1    2    0    0 -0.19120924890E+03  0.25725546386E+03 -0.20417351839E+03  0.38809318788E+03  0.78664771758E+02 0.  0.
        254    2    1    2    0    0  0.19120924890E+03 -0.25725546386E+03 -0.17538066857E+04  0.19951787778E+04  0.89563335930E+03 0.  0.
         23    2    4    4    0    0 -0.16787795438E+03 -0.37780435293E+03 -0.38702824498E+03  0.57400161327E+03  0.93636814163E+02 0.  0.
         23    2    4    4    0    0  0.35908720327E+03  0.12054888906E+03 -0.13667784407E+04  0.14211771646E+04  0.90474156271E+02 0.  0.
          2    1    3    3  502    0 -0.15505271757E+02 -0.24012281892E+01 -0.42482740464E+01  0.16255066332E+02  0.00000000000E+00 0. -1.
         -1    1    3    3    0  502 -0.17570397714E+03  0.25965669205E+03 -0.19992524435E+03  0.37183812155E+03  0.00000000000E+00 0.  1.
         13    1    5    5    0    0 -0.29023157995E+01 -0.20378758415E+01 -0.29518869136E+02  0.29731128637E+02  0.00000000000E+00 0.  1.
        -13    1    5    5    0    0 -0.16497563858E+03 -0.37576647709E+03 -0.35750937584E+03  0.54427048463E+03  0.00000000000E+00 0. -1.
          3    1    6    6  503    0  0.33241811801E+03  0.13088197020E+03 -0.12032452903E+04  0.12551617919E+04  0.00000000000E+00 0. -1.
         -3    1    6    6    0  503  0.26669085264E+02 -0.10333081140E+02 -0.16353315039E+03  0.16601537264E+03  0.00000000000E+00 0.  1.
<mgrwt>
<rscale>  0 0.13587858E+04</rscale>
<asrwt>0</asrwt>
<pdfrwt beam="1">  1        2 0.33394246E+00 0.13587858E+04</pdfrwt>
<pdfrwt beam="2">  1       -1 0.32714753E-01 0.13587858E+04</pdfrwt>
<totfact> 0.52298367E+01</totfact>
</mgrwt>
</event>
<event>
12    7  0.1572140E-007  0.1821801E+04  0.7818608E-02  0.8694791E-01
         -1   -1    0    0    0  501 -0.00000000000E+00  0.00000000000E+00  0.79859637139E+03  0.79859637139E+03  0.00000000000E+00 0.  1.
          2   -1    0    0  501    0  0.00000000000E+00 -0.00000000000E+00 -0.10389971380E+04  0.10389971380E+04  0.00000000000E+00 0. -1.
         24    2    1    2    0    0 -0.66029022415E+02  0.13128445736E+03 -0.76763556343E+03  0.78567367268E+03  0.80145624652E+02 0.  0.
        254    2    1    2    0    0  0.66029022415E+02 -0.13128445736E+03  0.52723479685E+03  0.10519198367E+04  0.89831139994E+03 0.  0.
         23    2    4    4    0    0  0.19066009859E+02  0.20375906529E+02 -0.24247936432E+03  0.26055908147E+03  0.91192667000E+02 0.  0.
         23    2    4    4    0    0  0.46963012556E+02 -0.15166036388E+03  0.76971416118E+03  0.79136075522E+03  0.92658321048E+02 0.  0.
          4    1    3    3  502    0 -0.25302323955E+02  0.98767567162E+02 -0.63559161607E+03  0.64371728448E+03  0.00000000000E+00 0. -1.
         -3    1    3    3    0  502 -0.40726698460E+02  0.32516890194E+02 -0.13204394736E+03  0.14195638820E+03  0.00000000000E+00 0.  1.
         13    1    5    5    0    0  0.54530680797E+02  0.23124848480E+02 -0.13743299993E+03  0.14965354402E+03  0.00000000000E+00 0.  1.
        -13    1    5    5    0    0 -0.35464670938E+02 -0.27489419510E+01 -0.10504636439E+03  0.11090553745E+03  0.00000000000E+00 0. -1.
          3    1    6    6  503    0  0.41641993407E+02 -0.12147920182E+02  0.15220971395E+03  0.15827010015E+03  0.00000000000E+00 0. -1.
         -3    1    6    6    0  503  0.53210191489E+01 -0.13951244370E+03  0.61750444723E+03  0.63309065507E+03  0.00000000000E+00 0.  1.
<mgrwt>
<rscale>  0 0.18218006E+04</rscale>
<asrwt>0</asrwt>
<pdfrwt beam="1">  1        2 0.15984571E+00 0.18218006E+04</pdfrwt>
<pdfrwt beam="2">  1       -1 0.12286098E+00 0.18218006E+04</pdfrwt>
<totfact> 0.14939105E+01</totfact>
</mgrwt>
</event>
<event>
12    7  0.1572140E-007  0.1674447E+04  0.7818608E-02  0.8776074E-01
          2   -1    0    0  501    0  0.00000000000E+00  0.00000000000E+00  0.41753379268E+04  0.41753379268E+04  0.00000000000E+00 0. -1.
         -1   -1    0    0    0  501 -0.00000000000E+00 -0.00000000000E+00 -0.16787690430E+03  0.16787690430E+03  0.00000000000E+00 0.  1.
         24    2    1    2    0    0 -0.69310137511E+02  0.55117545620E+03  0.90477416558E+03  0.10651106529E+04  0.85124223923E+02 0.  0.
        254    2    1    2    0    0  0.69310137511E+02 -0.55117545620E+03  0.31026868569E+04  0.32781041782E+04  0.90039046669E+03 0.  0.
         23    2    4    4    0    0 -0.29767466348E+03 -0.93110759133E+02  0.19940080587E+04  0.20202461190E+04  0.89701864927E+02 0.  0.
         23    2    4    4    0    0  0.36698480099E+03 -0.45806469707E+03  0.11086787983E+04  0.12578580593E+04  0.92396475040E+02 0.  0.
          2    1    3    3  502    0 -0.61126708094E+02  0.20353193595E+03  0.30313997270E+03  0.37021016524E+03  0.00000000000E+00 0. -1.
         -1    1    3    3    0  502 -0.81834294167E+01  0.34764352026E+03  0.60163419287E+03  0.69490048764E+03  0.00000000000E+00 0.  1.
         13    1    5    5    0    0 -0.29272841840E+03 -0.73318649597E+02  0.17943728695E+04  0.18195712534E+04  0.00000000000E+00 0. -1.
        -13    1    5    5    0    0 -0.49462450820E+01 -0.19792109536E+02  0.19963518915E+03  0.20067486561E+03  0.00000000000E+00 0.  1.
          4    1    6    6  503    0  0.19680316815E+03 -0.17741689784E+03  0.45940102031E+03  0.53033719471E+03  0.00000000000E+00 0. -1.
         -4    1    6    6    0  503  0.17018163284E+03 -0.28064779924E+03  0.64927777798E+03  0.72752086454E+03  0.00000000000E+00 0.  1.
<mgrwt>
<rscale>  0 0.16744465E+04</rscale>
<asrwt>0</asrwt>
<pdfrwt beam="1">  1        2 0.64235961E+00 0.16744465E+04</pdfrwt>
<pdfrwt beam="2">  1       -1 0.25827219E-01 0.16744465E+04</pdfrwt>
<totfact> 0.35861384E+00</totfact>
</mgrwt>
</event>
<event>
12    7  0.1572140E-007  0.2015734E+04  0.7818608E-02  0.8599300E-01
         -1   -1    0    0    0  501 -0.00000000000E+00  0.00000000000E+00  0.46007613691E+03  0.46007613691E+03  0.00000000000E+00 0.  1.
          2   -1    0    0  501    0  0.00000000000E+00 -0.00000000000E+00 -0.22078869137E+04  0.22078869137E+04  0.00000000000E+00 0. -1.
         24    2    1    2    0    0  0.57125948776E+03  0.43436488084E+03 -0.22041981705E+03  0.75509266622E+03  0.81054221184E+02 0.  0.
        254    2    1    2    0    0 -0.57125948776E+03 -0.43436488084E+03 -0.15273909598E+04  0.19128703844E+04  0.90063295053E+03 0.  0.
         23    2    4    4    0    0 -0.31225178018E+03  0.25214006050E+03 -0.56602477501E+03  0.69994966772E+03  0.92031011493E+02 0.  0.
         23    2    4    4    0    0 -0.25900770758E+03 -0.68650494134E+03 -0.96136618477E+03  0.12129207167E+04  0.92615855962E+02 0.  0.
          4    1    3    3  502    0  0.16187139615E+03  0.80216799686E+02 -0.46849305468E+02  0.18663317301E+03  0.00000000000E+00 0. -1.
         -3    1    3    3    0  502  0.40938809160E+03  0.35414808115E+03 -0.17357051158E+03  0.56845949321E+03  0.00000000000E+00 0.  1.
         13    1    5    5    0    0 -0.92187483540E+02  0.11179549915E+03 -0.14795032120E+03  0.20708950551E+03  0.00000000000E+00 0. -1.
        -13    1    5    5    0    0 -0.22006429664E+03  0.14034456135E+03 -0.41807445382E+03  0.49286016221E+03  0.00000000000E+00 0.  1.
          1    1    6    6  503    0 -0.15037756386E+03 -0.31204040848E+03 -0.50942631397E+03  0.61603392569E+03  0.00000000000E+00 0. -1.
         -1    1    6    6    0  503 -0.10863014372E+03 -0.37446453286E+03 -0.45193987080E+03  0.59688679104E+03  0.00000000000E+00 0.  1.
<mgrwt>
<rscale>  0 0.20157342E+04</rscale>
<asrwt>0</asrwt>
<pdfrwt beam="1">  1        2 0.33967491E+00 0.20157342E+04</pdfrwt>
<pdfrwt beam="2">  1       -1 0.70780944E-01 0.20157342E+04</pdfrwt>
<totfact> 0.10888229E+01</totfact>
</mgrwt>
</event>
<event>
12    7  0.1572140E-007  0.1901434E+04  0.7818608E-02  0.8654143E-01
          2   -1    0    0  501    0  0.00000000000E+00  0.00000000000E+00  0.12591070473E+04  0.12591070473E+04  0.00000000000E+00 0. -1.
         -1   -1    0    0    0  501 -0.00000000000E+00 -0.00000000000E+00 -0.71786046939E+03  0.71786046939E+03  0.00000000000E+00 0.  1.
         24    2    1    2    0    0  0.34184910869E+03  0.55258413047E+03 -0.10918211851E+03  0.66365702552E+03  0.79434741511E+02 0.  0.
        254    2    1    2    0    0 -0.34184910869E+03 -0.55258413047E+03  0.65042869638E+03  0.13133104911E+04  0.93782563555E+03 0.  0.
         23    2    4    4    0    0  0.11149864321E+03 -0.64265706052E+03  0.29019981627E+03  0.71975464096E+03  0.91601118668E+02 0.  0.
         23    2    4    4    0    0 -0.45334775190E+03  0.90072930050E+02  0.36022888011E+03  0.59355585018E+03  0.94373642171E+02 0.  0.
          4    1    3    3  502    0  0.11260901874E+03  0.15474392352E+03 -0.66127674085E+02  0.20248294310E+03  0.00000000000E+00 0. -1.
         -3    1    3    3    0  502  0.22924008994E+03  0.39784020695E+03 -0.43054444423E+02  0.46117408242E+03  0.00000000000E+00 0.  1.
         13    1    5    5    0    0  0.12311402746E+03 -0.56148211709E+03  0.23555087782E+03  0.62121127454E+03  0.00000000000E+00 0.  1.
        -13    1    5    5    0    0 -0.11615384243E+02 -0.81174943432E+02  0.54648938450E+02  0.98543366423E+02  0.00000000000E+00 0. -1.
          2    1    6    6  503    0 -0.25814870105E+03  0.97210533894E+02  0.19644079993E+03  0.33864380643E+03  0.00000000000E+00 0. -1.
         -2    1    6    6    0  503 -0.19519905085E+03 -0.71376038443E+01  0.16378808018E+03  0.25491204375E+03  0.00000000000E+00 0.  1.
<mgrwt>
<rscale>  0 0.19014344E+04</rscale>
<asrwt>0</asrwt>
<pdfrwt beam="1">  1        2 0.19370878E+00 0.19014344E+04</pdfrwt>
<pdfrwt beam="2">  1       -1 0.11044007E+00 0.19014344E+04</pdfrwt>
<totfact> 0.14101446E+01</totfact>
</mgrwt>
</event>
<event>
12    7  0.1572140E-007  0.2928834E+04  0.7818608E-02  0.8264350E-01
          2   -1    0    0  501    0  0.00000000000E+00  0.00000000000E+00  0.79961203125E+03  0.79961203125E+03  0.00000000000E+00 0. -1.
         -1   -1    0    0    0  501 -0.00000000000E+00 -0.00000000000E+00 -0.26819471293E+04  0.26819471293E+04  0.00000000000E+00 0.  1.
         24    2    1    2    0    0 -0.20097593891E+03  0.11136311693E+04 -0.16712175573E+04  0.20198717634E+04  0.79675012199E+02 0.  0.
        254    2    1    2    0    0  0.20097593891E+03 -0.11136311693E+04 -0.21111754079E+03  0.14616873972E+04  0.90077395715E+03 0.  0.
         23    2    4    4    0    0 -0.29968978618E+03 -0.20794793545E+03 -0.19274727347E+03  0.42263052592E+03  0.91699172360E+02 0.  0.
         23    2    4    4    0    0  0.50066572509E+03 -0.90568323382E+03 -0.18370267322E+02  0.10390568713E+04  0.91506429869E+02 0.  0.
          2    1    3    3  502    0 -0.11608828459E+02  0.17902699335E+03 -0.30302754163E+03  0.35215212655E+03  0.00000000000E+00 0. -1.
         -1    1    3    3    0  502 -0.18936711045E+03  0.93460417593E+03 -0.13681900157E+04  0.16677196368E+04  0.00000000000E+00 0.  1.
         13    1    5    5    0    0 -0.75175440830E+02 -0.62971215829E+02 -0.99166256838E+02  0.13946564961E+03  0.00000000000E+00 0. -1.
        -13    1    5    5    0    0 -0.22451434535E+03 -0.14497671962E+03 -0.93581016632E+02  0.28316487631E+03  0.00000000000E+00 0.  1.
          4    1    6    6  503    0  0.37825152595E+03 -0.74734928483E+03  0.43853134372E+01  0.83763022951E+03  0.00000000000E+00 0. -1.
         -4    1    6    6    0  503  0.12241419914E+03 -0.15833394900E+03 -0.22755580759E+02  0.20142664176E+03  0.00000000000E+00 0.  1.
<mgrwt>
<rscale>  0 0.29288340E+04</rscale>
<asrwt>0</asrwt>
<pdfrwt beam="1">  1        2 0.12301724E+00 0.29288340E+04</pdfrwt>
<pdfrwt beam="2">  1       -1 0.41260724E+00 0.29288340E+04</pdfrwt>
<totfact> 0.19820899E-01</totfact>
</mgrwt>
</event>
<event>
12    7  0.1572140E-007  0.1561806E+04  0.7818608E-02  0.8844362E-01
         -1   -1    0    0    0  501 -0.00000000000E+00  0.00000000000E+00  0.35390265898E+03  0.35390265898E+03  0.00000000000E+00 0.  1.
          2   -1    0    0  501    0  0.00000000000E+00 -0.00000000000E+00 -0.17230995218E+04  0.17230995218E+04  0.00000000000E+00 0. -1.
         24    2    1    2    0    0  0.51147740008E+03  0.19823130625E+02 -0.34705007676E+03  0.62363253399E+03  0.80446841845E+02 0.  0.
        254    2    1    2    0    0 -0.51147740008E+03 -0.19823130625E+02 -0.10221467861E+04  0.14533696468E+04  0.89749495303E+03 0.  0.
         23    2    4    4    0    0 -0.18352214788E+03  0.81093773244E+02 -0.10722451492E+04  0.10946205972E+04  0.90708394971E+02 0.  0.
         23    2    4    4    0    0 -0.32795525220E+03 -0.10091690387E+03  0.50098363110E+02  0.35874904967E+03  0.91935660783E+02 0.  0.
          2    1    3    3  502    0  0.39708593107E+03 -0.29713219586E+01 -0.23252663960E+03  0.46016812529E+03  0.00000000000E+00 0. -1.
         -1    1    3    3    0  502  0.11439146901E+03  0.22794452583E+02 -0.11452343717E+03  0.16346440870E+03  0.00000000000E+00 0.  1.
         13    1    5    5    0    0 -0.37494318218E+02 -0.84421027446E+01 -0.36098780147E+03  0.36302794081E+03  0.00000000000E+00 0.  1.
        -13    1    5    5    0    0 -0.14602782967E+03  0.89535875988E+02 -0.71125734773E+03  0.73159265635E+03  0.00000000000E+00 0. -1.
          3    1    6    6  503    0 -0.99458519833E+02 -0.68900972510E+02  0.41317103832E+02  0.12785321368E+03  0.00000000000E+00 0. -1.
         -3    1    6    6    0  503 -0.22849673237E+03 -0.32015931358E+02  0.87812592781E+01  0.23089583599E+03  0.00000000000E+00 0.  1.
<mgrwt>
<rscale>  0 0.15618060E+04</rscale>
<asrwt>0</asrwt>
<pdfrwt beam="1">  1        2 0.26509223E+00 0.15618060E+04</pdfrwt>
<pdfrwt beam="2">  1       -1 0.54446563E-01 0.15618060E+04</pdfrwt>
<totfact> 0.35540904E+01</totfact>
</mgrwt>
</event>
<event>
12    7  0.1572140E-007  0.2651388E+04  0.7818608E-02  0.8350952E-01
          2   -1    0    0  501    0  0.00000000000E+00  0.00000000000E+00  0.75339804240E+03  0.75339804240E+03  0.00000000000E+00 0. -1.
         -1   -1    0    0    0  501 -0.00000000000E+00 -0.00000000000E+00 -0.23327178693E+04  0.23327178693E+04  0.00000000000E+00 0.  1.
         24    2    1    2    0    0 -0.67705306980E+03  0.38127005864E+03  0.31943259990E+03  0.84426857281E+03  0.83573442136E+02 0.  0.
        254    2    1    2    0    0  0.67705306980E+03 -0.38127005864E+03 -0.18987524268E+04  0.22418473389E+04  0.90379809453E+03 0.  0.
         23    2    4    4    0    0  0.17337181318E+03 -0.10946776546E+03  0.30901805834E+02  0.22654763030E+03  0.91257492354E+02 0.  0.
         23    2    4    4    0    0  0.50368125662E+03 -0.27180229318E+03 -0.19296542326E+04  0.20152997086E+04  0.10147001087E+03 0.  0.
          2    1    3    3  502    0 -0.61592333859E+03  0.32992908240E+03  0.26333381132E+03  0.74669903885E+03  0.00000000000E+00 0. -1.
         -1    1    3    3    0  502 -0.61129731205E+02  0.51340976238E+02  0.56098788577E+02  0.97569533965E+02  0.00000000000E+00 0.  1.
         13    1    5    5    0    0  0.95860839397E+02 -0.51050957953E+02 -0.29101728186E+02  0.11243847838E+03  0.00000000000E+00 0. -1.
        -13    1    5    5    0    0  0.77510973779E+02 -0.58416807503E+02  0.60003534021E+02  0.11410915191E+03  0.00000000000E+00 0.  1.
          1    1    6    6  503    0  0.17965741636E+03 -0.13087445191E+03 -0.61286526534E+03  0.65192694596E+03  0.00000000000E+00 0. -1.
         -1    1    6    6    0  503  0.32402384026E+03 -0.14092784127E+03 -0.13167889673E+04  0.13633727626E+04  0.00000000000E+00 0.  1.
<mgrwt>
<rscale>  0 0.26513884E+04</rscale>
<asrwt>0</asrwt>
<pdfrwt beam="1">  1        2 0.11590739E+00 0.26513884E+04</pdfrwt>
<pdfrwt beam="2">  1       -1 0.35887967E+00 0.26513884E+04</pdfrwt>
<totfact> 0.50790658E-01</totfact>
</mgrwt>
</event>
<event>
12    7  0.1572140E-007  0.1820090E+04  0.7818608E-02  0.8695688E-01
          2   -1    0    0  501    0  0.00000000000E+00  0.00000000000E+00  0.98005542857E+03  0.98005542857E+03  0.00000000000E+00 0. -1.
         -3   -1    0    0    0  501 -0.00000000000E+00 -0.00000000000E+00 -0.84503576571E+03  0.84503576571E+03  0.00000000000E+00 0.  1.
         24    2    1    2    0    0  0.36892009354E+03  0.50989133251E+03 -0.21898413245E+03  0.67129275180E+03  0.81170819690E+02 0.  0.
        254    2    1    2    0    0 -0.36892009354E+03 -0.50989133251E+03  0.35400379531E+03  0.11537984425E+04  0.89991163587E+03 0.  0.
         23    2    4    4    0    0  0.12274182523E+03 -0.56089895248E+03  0.28177784027E+03  0.64506971824E+03  0.83922580814E+02 0.  0.
         23    2    4    4    0    0 -0.49166191877E+03  0.51007619966E+02  0.72225955037E+02  0.50872872424E+03  0.96203464705E+02 0.  0.
          4    1    3    3  502    0  0.10345255239E+02  0.10127664292E+00  0.87909882477E+00  0.10383033163E+02  0.00000000000E+00 0. -1.
         -3    1    3    3    0  502  0.35857483830E+03  0.50979005587E+03 -0.21986323127E+03  0.66090971864E+03  0.00000000000E+00 0.  1.
         13    1    5    5    0    0  0.11053145896E+03 -0.48998742219E+03  0.21321291269E+03  0.54567813174E+03  0.00000000000E+00 0.  1.
        -13    1    5    5    0    0  0.12210366274E+02 -0.70911530289E+02  0.68564927583E+02  0.99391586499E+02  0.00000000000E+00 0. -1.
          2    1    6    6  503    0 -0.41186556459E+03  0.67670984007E+02  0.34224777020E+02  0.41878865880E+03  0.00000000000E+00 0. -1.
         -2    1    6    6    0  503 -0.79796354175E+02 -0.16663364042E+02  0.38001178017E+02  0.89940065441E+02  0.00000000000E+00 0.  1.
<mgrwt>
<rscale>  0 0.18200900E+04</rscale>
<asrwt>0</asrwt>
<pdfrwt beam="1">  1        2 0.15077776E+00 0.18200900E+04</pdfrwt>
<pdfrwt beam="2">  1       -3 0.13000550E+00 0.18200900E+04</pdfrwt>
<totfact> 0.71754343E+00</totfact>
</mgrwt>
</event>
<event>
12    7  0.1572140E-007  0.2032138E+04  0.7818608E-02  0.8591741E-01
         -1   -1    0    0    0  501 -0.00000000000E+00  0.00000000000E+00  0.41346992834E+03  0.41346992834E+03  0.00000000000E+00 0.  1.
          2   -1    0    0  501    0  0.00000000000E+00 -0.00000000000E+00 -0.24969067860E+04  0.24969067860E+04  0.00000000000E+00 0. -1.
         24    2    1    2    0    0 -0.39780132958E+03 -0.45905595687E+03 -0.60718872896E+02  0.61545706983E+03  0.78245472293E+02 0.  0.
        254    2    1    2    0    0  0.39780132958E+03  0.45905595687E+03 -0.20227179848E+04  0.22949196445E+04  0.89793644515E+03 0.  0.
         23    2    4    4    0    0  0.42497500266E+03  0.68604770903E+03 -0.17323436003E+04  0.19132524618E+04  0.90859349210E+02 0.  0.
         23    2    4    4    0    0 -0.27173673082E+02 -0.22699175217E+03 -0.29037438452E+03  0.38166718270E+03  0.95335675945E+02 0.  0.
          2    1    3    3  502    0 -0.92130836493E+02 -0.80047337375E+02 -0.38747650108E+02  0.12805095721E+03  0.00000000000E+00 0. -1.
         -1    1    3    3    0  502 -0.30567049308E+03 -0.37900861949E+03 -0.21971222788E+02  0.48740611262E+03  0.00000000000E+00 0.  1.
         13    1    5    5    0    0  0.12825984516E+03  0.24959194041E+03 -0.69099315476E+03  0.74580041869E+03  0.00000000000E+00 0. -1.
        -13    1    5    5    0    0  0.29671515750E+03  0.43645576862E+03 -0.10413504455E+04  0.11674520431E+04  0.00000000000E+00 0.  1.
          2    1    6    6  503    0  0.81879360053E+01 -0.13214142290E+02 -0.73389961189E+02  0.75018279478E+02  0.00000000000E+00 0. -1.
         -2    1    6    6    0  503 -0.35361609087E+02 -0.21377760988E+03 -0.21698442333E+03  0.30664890322E+03  0.00000000000E+00 0.  1.
<mgrwt>
<rscale>  0 0.20321377E+04</rscale>
<asrwt>0</asrwt>
<pdfrwt beam="1">  1        2 0.38413950E+00 0.20321377E+04</pdfrwt>
<pdfrwt beam="2">  1       -1 0.63610759E-01 0.20321377E+04</pdfrwt>
<totfact> 0.92455679E+00</totfact>
</mgrwt>
</event>
<event>
12    7  0.1572140E-007  0.2157736E+04  0.7818608E-02  0.8536228E-01
          2   -1    0    0  501    0  0.00000000000E+00  0.00000000000E+00  0.14486192137E+04  0.14486192137E+04  0.00000000000E+00 0. -1.
         -1   -1    0    0    0  501 -0.00000000000E+00 -0.00000000000E+00 -0.80349346348E+03  0.80349346348E+03  0.00000000000E+00 0.  1.
         24    2    1    2    0    0 -0.50968039912E+03 -0.72384555375E+03  0.31600643537E+03  0.94335263784E+03  0.79546446718E+02 0.  0.
        254    2    1    2    0    0  0.50968039912E+03  0.72384555375E+03  0.32911931481E+03  0.13087600393E+04  0.90598389728E+03 0.  0.
         23    2    4    4    0    0  0.71419590714E+03  0.32077363031E+03  0.31159078870E+03  0.84754710218E+03  0.90971177428E+02 0.  0.
         23    2    4    4    0    0 -0.20451550802E+03  0.40307192344E+03  0.17528526104E+02  0.46121293711E+03  0.90091928862E+02 0.  0.
          4    1    3    3  502    0 -0.23791448167E+03 -0.31585251112E+03  0.10146076367E+03  0.40824061034E+03  0.00000000000E+00 0. -1.
         -3    1    3    3    0  502 -0.27176591745E+03 -0.40799304263E+03  0.21454567170E+03  0.53511202749E+03  0.00000000000E+00 0.  1.
         13    1    5    5    0    0  0.45441370027E+03  0.22399709930E+03  0.15836775060E+03  0.53079831944E+03  0.00000000000E+00 0.  1.
        -13    1    5    5    0    0  0.25978220687E+03  0.96776531013E+02  0.15322303810E+03  0.31674878274E+03  0.00000000000E+00 0. -1.
          3    1    6    6  503    0 -0.32879680451E+02  0.28611516037E+02  0.22944056739E+02  0.49255679634E+02  0.00000000000E+00 0. -1.
         -3    1    6    6    0  503 -0.17163582757E+03  0.37446040740E+03 -0.54155306348E+01  0.41195725748E+03  0.00000000000E+00 0.  1.
<mgrwt>
<rscale>  0 0.21577359E+04</rscale>
<asrwt>0</asrwt>
<pdfrwt beam="1">  1        2 0.22286449E+00 0.21577359E+04</pdfrwt>
<pdfrwt beam="2">  1       -1 0.12361438E+00 0.21577359E+04</pdfrwt>
<totfact> 0.81626007E+00</totfact>
</mgrwt>
</event>
<event>
12    7  0.1572140E-007  0.1824884E+04  0.7818608E-02  0.8693177E-01
         -1   -1    0    0    0  501 -0.00000000000E+00  0.00000000000E+00  0.39101006444E+03  0.39101006444E+03  0.00000000000E+00 0.  1.
          2   -1    0    0  501    0  0.00000000000E+00 -0.00000000000E+00 -0.21292304220E+04  0.21292304220E+04  0.00000000000E+00 0. -1.
         24    2    1    2    0    0 -0.45347078604E+03 -0.49435344982E+03 -0.47354440238E+03  0.82504747887E+03  0.80236863250E+02 0.  0.
        254    2    1    2    0    0  0.45347078604E+03  0.49435344982E+03 -0.12646759552E+04  0.16951930076E+04  0.90788378891E+03 0.  0.
         23    2    4    4    0    0 -0.23653319483E+03  0.31220441891E+03 -0.54711943463E+03  0.67939044844E+03  0.93873075170E+02 0.  0.
         23    2    4    4    0    0  0.69000398086E+03  0.18214903091E+03 -0.71755652059E+03  0.10158025592E+04  0.87656807399E+02 0.  0.
          2    1    3    3  502    0 -0.39988181121E+03 -0.46433763302E+03 -0.41424832746E+03  0.73967329084E+03  0.00000000000E+00 0. -1.
         -1    1    3    3    0  502 -0.53588974823E+02 -0.30015816800E+02 -0.59296074915E+02  0.85374188026E+02  0.00000000000E+00 0.  1.
         13    1    5    5    0    0 -0.17625958828E+03  0.15734002428E+03 -0.30758405914E+03  0.38785471396E+03  0.00000000000E+00 0. -1.
        -13    1    5    5    0    0 -0.60273606543E+02  0.15486439463E+03 -0.23953537549E+03  0.29153573448E+03  0.00000000000E+00 0.  1.
          1    1    6    6  503    0  0.14786465822E+03  0.74298336986E+02 -0.14606302313E+03  0.22072291851E+03  0.00000000000E+00 0. -1.
         -1    1    6    6    0  503  0.54213932264E+03  0.10785069392E+03 -0.57149349746E+03  0.79507964065E+03  0.00000000000E+00 0.  1.
<mgrwt>
<rscale>  0 0.18248841E+04</rscale>
<asrwt>0</asrwt>
<pdfrwt beam="1">  1        2 0.32757390E+00 0.18248841E+04</pdfrwt>
<pdfrwt beam="2">  1       -1 0.60155396E-01 0.18248841E+04</pdfrwt>
<totfact> 0.17014405E+01</totfact>
</mgrwt>
</event>
<event>
12    7  0.1572140E-007  0.3271820E+04  0.7818608E-02  0.8170103E-01
         -1   -1    0    0    0  501 -0.00000000000E+00  0.00000000000E+00  0.13683042396E+04  0.13683042396E+04  0.00000000000E+00 0.  1.
          2   -1    0    0  501    0  0.00000000000E+00 -0.00000000000E+00 -0.19558525143E+04  0.19558525143E+04  0.00000000000E+00 0. -1.
         24    2    1    2    0    0 -0.15397988815E+03 -0.92393121718E+03  0.93478711163E+03  0.13257055148E+04  0.79432159412E+02 0.  0.
        254    2    1    2    0    0  0.15397988815E+03  0.92393121718E+03 -0.15223353863E+04  0.19984512391E+04  0.89383646515E+03 0.  0.
         23    2    4    4    0    0  0.50053575945E+03  0.49982596111E+03 -0.65226132356E+03  0.96646417049E+03  0.90808153488E+02 0.  0.
         23    2    4    4    0    0 -0.34655587129E+03  0.42410525607E+03 -0.87007406277E+03  0.10319870686E+04  0.89454987919E+02 0.  0.
          2    1    3    3  502    0 -0.15324328296E+02 -0.34825944462E+02  0.57708042804E+02  0.69122352750E+02  0.00000000000E+00 0. -1.
         -1    1    3    3    0  502 -0.13865555985E+03 -0.88910527271E+03  0.87707906882E+03  0.12565831621E+04  0.00000000000E+00 0.  1.
         13    1    5    5    0    0  0.20679235862E+03  0.25414397238E+03 -0.26000123752E+03  0.41827369244E+03  0.00000000000E+00 0. -1.
        -13    1    5    5    0    0  0.29374340083E+03  0.24568198873E+03 -0.39226008604E+03  0.54819047804E+03  0.00000000000E+00 0.  1.
          1    1    6    6  503    0 -0.60857827618E+02  0.12191007054E+03 -0.17203687832E+03  0.21945939939E+03  0.00000000000E+00 0.  1.
         -1    1    6    6    0  503 -0.28569804368E+03  0.30219518553E+03 -0.69803718446E+03  0.81252766919E+03  0.00000000000E+00 0. -1.
<mgrwt>
<rscale>  0 0.32718199E+04</rscale>
<asrwt>0</asrwt>
<pdfrwt beam="1">  1        2 0.30090039E+00 0.32718199E+04</pdfrwt>
<pdfrwt beam="2">  1       -1 0.21050835E+00 0.32718199E+04</pdfrwt>
<totfact> 0.85868959E-01</totfact>
</mgrwt>
</event>
<event>
12    7  0.1572140E-007  0.2841003E+04  0.7818608E-02  0.8290651E-01
          2   -1    0    0  501    0  0.00000000000E+00  0.00000000000E+00  0.15523903321E+04  0.15523903321E+04  0.00000000000E+00 0. -1.
         -1   -1    0    0    0  501 -0.00000000000E+00 -0.00000000000E+00 -0.12998174916E+04  0.12998174916E+04  0.00000000000E+00 0.  1.
         24    2    1    2    0    0  0.80145208896E+03 -0.64326014669E+03  0.87036721288E+03  0.13491880343E+04  0.81610044089E+02 0.  0.
        254    2    1    2    0    0 -0.80145208896E+03  0.64326014669E+03 -0.61779437237E+03  0.15030197894E+04  0.90625025994E+03 0.  0.
         23    2    4    4    0    0  0.15378882978E+03  0.10986292248E+03  0.52374701112E+02  0.21657106924E+03  0.91864317418E+02 0.  0.
         23    2    4    4    0    0 -0.95524091874E+03  0.53339722421E+03 -0.67016907348E+03  0.12864487202E+04  0.93946319596E+02 0.  0.
          4    1    3    3  502    0  0.17579957385E+03 -0.14456043183E+03  0.14999912956E+03  0.27258566999E+03  0.00000000000E+00 0. -1.
         -3    1    3    3    0  502  0.62565251511E+03 -0.49869971486E+03  0.72036808332E+03  0.10766023643E+04  0.00000000000E+00 0.  1.
         13    1    5    5    0    0  0.26995803347E+02  0.69726332431E+02  0.34624369189E+02  0.82397704910E+02  0.00000000000E+00 0.  1.
        -13    1    5    5    0    0  0.12679302643E+03  0.40136590051E+02  0.17750331923E+02  0.13417336433E+03  0.00000000000E+00 0. -1.
          1    1    6    6  503    0 -0.92647216474E+03  0.51481249691E+03 -0.62745467527E+03  0.12316988059E+04  0.00000000000E+00 0. -1.
         -1    1    6    6    0  503 -0.28768753999E+02  0.18584727296E+02 -0.42714398208E+02  0.54749914243E+02  0.00000000000E+00 0.  1.
<mgrwt>
<rscale>  0 0.28410027E+04</rscale>
<asrwt>0</asrwt>
<pdfrwt beam="1">  1        2 0.23882928E+00 0.28410027E+04</pdfrwt>
<pdfrwt beam="2">  1       -1 0.19997192E+00 0.28410027E+04</pdfrwt>
<totfact> 0.17633567E+00</totfact>
</mgrwt>
</event>
<event>
12    7  0.1572140E-007  0.4849500E+04  0.7818608E-02  0.7852152E-01
         -1   -1    0    0    0  501 -0.00000000000E+00  0.00000000000E+00  0.14606767812E+04  0.14606767812E+04  0.00000000000E+00 0.  1.
          2   -1    0    0  501    0  0.00000000000E+00 -0.00000000000E+00 -0.40251291833E+04  0.40251291833E+04  0.00000000000E+00 0. -1.
         24    2    1    2    0    0  0.11216438262E+04 -0.13315786414E+03 -0.35581926630E+04  0.37340293062E+04  0.80149506925E+02 0.  0.
        254    2    1    2    0    0 -0.11216438262E+04  0.13315786414E+03  0.99374026090E+03  0.17517766582E+04  0.89743293043E+03 0.  0.
         23    2    4    4    0    0 -0.32985951757E+03 -0.11515591369E+02  0.86690674611E+03  0.93205430506E+03  0.90873598745E+02 0.  0.
         23    2    4    4    0    0 -0.79178430859E+03  0.14467345550E+03  0.12683351479E+03  0.81972235317E+03  0.89471759509E+02 0.  0.
          2    1    3    3  502    0  0.39967441809E+03 -0.90339536135E+01 -0.12674137959E+04  0.13289691429E+04  0.00000000000E+00 0. -1.
         -1    1    3    3    0  502  0.72196940808E+03 -0.12412391052E+03 -0.22907788671E+04  0.24050601634E+04  0.00000000000E+00 0.  1.
         13    1    5    5    0    0 -0.20062547345E+03 -0.91685230506E+01  0.40001251191E+03  0.44759876239E+03  0.00000000000E+00 0.  1.
        -13    1    5    5    0    0 -0.12923404413E+03 -0.23470683183E+01  0.46689423420E+03  0.48445554266E+03  0.00000000000E+00 0. -1.
          2    1    6    6  503    0 -0.74928533116E+03  0.13487753771E+03  0.14015188130E+03  0.77412079646E+03  0.00000000000E+00 0. -1.
         -2    1    6    6    0  503 -0.42498977427E+02  0.97959177957E+01 -0.13318366512E+02  0.45601556710E+02  0.00000000000E+00 0.  1.
<mgrwt>
<rscale>  0 0.48495001E+04</rscale>
<asrwt>0</asrwt>
<pdfrwt beam="1">  1        2 0.61925064E+00 0.48495001E+04</pdfrwt>
<pdfrwt beam="2">  1       -1 0.22471951E+00 0.48495001E+04</pdfrwt>
<totfact> 0.27791340E-02</totfact>
</mgrwt>
</event>
<event>
12    7  0.1572140E-007  0.3188159E+04  0.7818608E-02  0.8191951E-01
         -1   -1    0    0    0  501 -0.00000000000E+00  0.00000000000E+00  0.13310729513E+04  0.13310729513E+04  0.00000000000E+00 0.  1.
          2   -1    0    0  501    0  0.00000000000E+00 -0.00000000000E+00 -0.19090537956E+04  0.19090537956E+04  0.00000000000E+00 0. -1.
         24    2    1    2    0    0 -0.65044861686E+03  0.12326695987E+04  0.19379120359E+03  0.14090596488E+04  0.73050123448E+02 0.  0.
        254    2    1    2    0    0  0.65044861686E+03 -0.12326695987E+04 -0.77177204788E+03  0.18310670981E+04  0.90256128944E+03 0.  0.
         23    2    4    4    0    0 -0.12949422307E+02 -0.59306596414E+03  0.37280206911E+02  0.60138758941E+03  0.91554866147E+02 0.  0.
         23    2    4    4    0    0  0.66339803917E+03 -0.63960363459E+03 -0.80905225480E+03  0.12296795087E+04  0.91413212629E+02 0.  0.
          4    1    3    3  502    0 -0.19249105086E+03  0.37262786988E+03  0.92051916371E+02  0.42939246544E+03  0.00000000000E+00 0. -1.
         -3    1    3    3    0  502 -0.45795756600E+03  0.86004172885E+03  0.10173928722E+03  0.97966718338E+03  0.00000000000E+00 0.  1.
         13    1    5    5    0    0 -0.40289018632E+02 -0.21348567698E+03 -0.12331799654E+02  0.21760379726E+03  0.00000000000E+00 0.  1.
        -13    1    5    5    0    0  0.27339596324E+02 -0.37958028716E+03  0.49612006565E+02  0.38378379216E+03  0.00000000000E+00 0. -1.
          4    1    6    6  503    0  0.22299103285E+03 -0.27665403449E+03 -0.30762036893E+03  0.46999228388E+03  0.00000000000E+00 0. -1.
         -4    1    6    6    0  503  0.44040700632E+03 -0.36294960010E+03 -0.50143188587E+03  0.75968722484E+03  0.00000000000E+00 0.  1.
<mgrwt>
<rscale>  0 0.31881593E+04</rscale>
<asrwt>0</asrwt>
<pdfrwt beam="1">  1        2 0.29370058E+00 0.31881593E+04</pdfrwt>
<pdfrwt beam="2">  1       -1 0.20478046E+00 0.31881593E+04</pdfrwt>
<totfact> 0.10043598E+00</totfact>
</mgrwt>
</event>
<event>
12    7  0.1572140E-007  0.2228025E+04  0.7818608E-02  0.8506853E-01
         -1   -1    0    0    0  501 -0.00000000000E+00  0.00000000000E+00  0.12969316788E+04  0.12969316788E+04  0.00000000000E+00 0.  1.
          2   -1    0    0  501    0  0.00000000000E+00 -0.00000000000E+00 -0.95689186810E+03  0.95689186810E+03  0.00000000000E+00 0. -1.
         24    2    1    2    0    0 -0.15117708263E+03  0.51911580868E+03  0.92246967638E+03  0.10723072648E+04  0.80974275281E+02 0.  0.
        254    2    1    2    0    0  0.15117708263E+03 -0.51911580868E+03 -0.58242986567E+03  0.11815162821E+04  0.87431141089E+03 0.  0.
         23    2    4    4    0    0  0.50499975609E+03 -0.32355363876E+03 -0.41442170435E+03  0.73442321575E+03  0.88996629073E+02 0.  0.
         23    2    4    4    0    0 -0.35382267345E+03 -0.19556216992E+03 -0.16800816131E+03  0.44709306631E+03  0.90721668429E+02 0.  0.
          2    1    3    3  502    0 -0.61620387624E+02  0.11179623633E+03  0.17902934262E+03  0.21987945823E+03  0.00000000000E+00 0. -1.
         -1    1    3    3    0  502 -0.89556695009E+02  0.40731957235E+03  0.74344033375E+03  0.85242780661E+03  0.00000000000E+00 0.  1.
         13    1    5    5    0    0  0.47916273137E+03 -0.27807941361E+03 -0.37712176237E+03  0.67018348761E+03  0.00000000000E+00 0.  1.
        -13    1    5    5    0    0  0.25837024712E+02 -0.45474225155E+02 -0.37299941988E+02  0.64239728142E+02  0.00000000000E+00 0. -1.
          1    1    6    6  503    0 -0.57442192819E+02 -0.57096558941E+02 -0.38452744874E+01  0.81082727474E+02  0.00000000000E+00 0. -1.
         -1    1    6    6    0  503 -0.29638048064E+03 -0.13846561098E+03 -0.16416288683E+03  0.36601033884E+03  0.00000000000E+00 0.  1.
<mgrwt>
<rscale>  0 0.22280246E+04</rscale>
<asrwt>0</asrwt>
<pdfrwt beam="1">  1        2 0.14721413E+00 0.22280246E+04</pdfrwt>
<pdfrwt beam="2">  1       -1 0.19952795E+00 0.22280246E+04</pdfrwt>
<totfact> 0.42373555E+00</totfact>
</mgrwt>
</event>
<event>
12    7  0.1572140E-007  0.1788886E+04  0.7818608E-02  0.8712232E-01
         -1   -1    0    0    0  501 -0.00000000000E+00  0.00000000000E+00  0.53784785339E+03  0.53784785339E+03  0.00000000000E+00 0.  1.
          2   -1    0    0  501    0  0.00000000000E+00 -0.00000000000E+00 -0.14874622896E+04  0.14874622896E+04  0.00000000000E+00 0. -1.
         24    2    1    2    0    0 -0.52783870277E+03  0.34763971626E+03 -0.61704981137E+03  0.88682895436E+03  0.79044646307E+02 0.  0.
        254    2    1    2    0    0  0.52783870277E+03 -0.34763971626E+03 -0.33256462486E+03  0.11384811887E+04  0.88660764646E+03 0.  0.
         23    2    4    4    0    0 -0.60854571921E+02 -0.13865418428E+03 -0.46207514547E+03  0.49479145220E+03  0.91525293555E+02 0.  0.
         23    2    4    4    0    0  0.58869327469E+03 -0.20898553199E+03  0.12951052061E+03  0.64368973647E+03  0.85608280183E+02 0.  0.
          2    1    3    3  502    0 -0.52910555332E+03  0.34966534615E+03 -0.61628032409E+03  0.88431893495E+03  0.00000000000E+00 0. -1.
         -1    1    3    3    0  502  0.12668505493E+01 -0.20256298884E+01 -0.76948728632E+00  0.25100194109E+01  0.00000000000E+00 0.  1.
         13    1    5    5    0    0  0.85285880676E+01  0.98399172290E+01 -0.35176511956E+02  0.37509302565E+02  0.00000000000E+00 0. -1.
        -13    1    5    5    0    0 -0.69383159989E+02 -0.14849410150E+03 -0.42689863352E+03  0.45728214963E+03  0.00000000000E+00 0.  1.
          3    1    6    6  503    0  0.26352093671E+03 -0.54796719550E+02  0.77356423976E+02  0.28005353218E+03  0.00000000000E+00 0. -1.
         -3    1    6    6    0  503  0.32517233799E+03 -0.15418881244E+03  0.52154096633E+02  0.36363620429E+03  0.00000000000E+00 0.  1.
<mgrwt>
<rscale>  0 0.17888861E+04</rscale>
<asrwt>0</asrwt>
<pdfrwt beam="1">  1        2 0.22884035E+00 0.17888861E+04</pdfrwt>
<pdfrwt beam="2">  1       -1 0.82745824E-01 0.17888861E+04</pdfrwt>
<totfact> 0.20158993E+01</totfact>
</mgrwt>
</event>
<event>
12    7  0.1572140E-007  0.2944146E+04  0.7818608E-02  0.8259863E-01
          2   -1    0    0  501    0  0.00000000000E+00  0.00000000000E+00  0.29884210193E+04  0.29884210193E+04  0.00000000000E+00 0. -1.
         -1   -1    0    0    0  501 -0.00000000000E+00 -0.00000000000E+00 -0.72513177265E+03  0.72513177265E+03  0.00000000000E+00 0.  1.
         24    2    1    2    0    0  0.33397504980E+03 -0.11656149450E+04  0.17229503026E+04  0.21083258124E+04  0.79261923417E+02 0.  0.
        254    2    1    2    0    0 -0.33397504980E+03  0.11656149450E+04  0.54033894411E+03  0.16052269795E+04  0.90254636861E+03 0.  0.
         23    2    4    4    0    0 -0.57795255197E+03  0.86214478228E+03  0.16162553931E+03  0.10544889243E+04  0.92202486467E+02 0.  0.
         23    2    4    4    0    0  0.24397750217E+03  0.30347016268E+03  0.37871340479E+03  0.55073805526E+03  0.90936248723E+02 0.  0.
          4    1    3    3  502    0  0.29655335330E+03 -0.10960438510E+04  0.15929873652E+04  0.19562373988E+04  0.00000000000E+00 0. -1.
         -3    1    3    3    0  502  0.37421696501E+02 -0.69571093939E+02  0.12996293737E+03  0.15208841367E+03  0.00000000000E+00 0.  1.
         13    1    5    5    0    0 -0.36144775641E+03  0.60215913991E+03  0.13450076194E+03  0.71507381811E+03  0.00000000000E+00 0. -1.
        -13    1    5    5    0    0 -0.21650479557E+03  0.25998564237E+03  0.27124777374E+02  0.33941510616E+03  0.00000000000E+00 0.  1.
          4    1    6    6  503    0  0.27415014193E+02  0.27510050501E+02  0.66869306219E+01  0.39409401453E+02  0.00000000000E+00 0.  1.
         -4    1    6    6    0  503  0.21656248798E+03  0.27596011218E+03  0.37202647417E+03  0.51132865380E+03  0.00000000000E+00 0. -1.
<mgrwt>
<rscale>  0 0.29441461E+04</rscale>
<asrwt>0</asrwt>
<pdfrwt beam="1">  1        2 0.45975707E+00 0.29441461E+04</pdfrwt>
<pdfrwt beam="2">  1       -1 0.11155874E+00 0.29441461E+04</pdfrwt>
<totfact> 0.12762399E+00</totfact>
</mgrwt>
</event>
<event>
12    7  0.1572140E-007  0.1717808E+04  0.7818608E-02  0.8751273E-01
         -1   -1    0    0    0  501 -0.00000000000E+00  0.00000000000E+00  0.34446196692E+03  0.34446196692E+03  0.00000000000E+00 0.  1.
          2   -1    0    0  501    0  0.00000000000E+00 -0.00000000000E+00 -0.21416464666E+04  0.21416464666E+04  0.00000000000E+00 0. -1.
         24    2    1    2    0    0  0.39107946868E+03  0.20267934307E+03 -0.32353510429E+02  0.44925495175E+03  0.82226486646E+02 0.  0.
        254    2    1    2    0    0 -0.39107946868E+03 -0.20267934307E+03 -0.17648309892E+04  0.20368534818E+04  0.91658148498E+03 0.  0.
         23    2    4    4    0    0 -0.31259211523E+03 -0.36950632644E+03 -0.17630843885E+04  0.18310055901E+04  0.99328515648E+02 0.  0.
         23    2    4    4    0    0 -0.78487353445E+02  0.16682698336E+03 -0.17466006920E+01  0.20584789166E+03  0.91535768192E+02 0.  0.
          2    1    3    3  502    0  0.32618240932E+03  0.18927773154E+03 -0.50652382303E+02  0.38050845936E+03  0.00000000000E+00 0. -1.
         -1    1    3    3    0  502  0.64897059357E+02  0.13401611529E+02  0.18298871874E+02  0.68746492395E+02  0.00000000000E+00 0.  1.
         13    1    5    5    0    0 -0.50445433091E+02 -0.87263203269E+02 -0.51723837981E+03  0.52696788319E+03  0.00000000000E+00 0. -1.
        -13    1    5    5    0    0 -0.26214668214E+03 -0.28224312317E+03 -0.12458460087E+04  0.13040377069E+04  0.00000000000E+00 0.  1.
          1    1    6    6  503    0 -0.45027545309E+02  0.14770893971E+02 -0.14699957948E+02  0.49616004564E+02  0.00000000000E+00 0. -1.
         -1    1    6    6    0  503 -0.33459808136E+02  0.15205608939E+03  0.12953357256E+02  0.15623188710E+03  0.00000000000E+00 0.  1.
<mgrwt>
<rscale>  0 0.17178076E+04</rscale>
<asrwt>0</asrwt>
<pdfrwt beam="1">  1        2 0.32948408E+00 0.17178076E+04</pdfrwt>
<pdfrwt beam="2">  1       -1 0.52994148E-01 0.17178076E+04</pdfrwt>
<totfact> 0.21643016E+01</totfact>
</mgrwt>
</event>
<event>
12    7  0.1572140E-007  0.1550868E+04  0.7818608E-02  0.8851313E-01
          2   -1    0    0  501    0  0.00000000000E+00  0.00000000000E+00  0.27085197159E+04  0.27085197159E+04  0.00000000000E+00 0. -1.
         -1   -1    0    0    0  501 -0.00000000000E+00 -0.00000000000E+00 -0.22200251370E+03  0.22200251370E+03  0.00000000000E+00 0.  1.
         24    2    1    2    0    0  0.20900148166E+03 -0.39457719250E+03  0.34212259085E+03  0.56841564147E+03  0.81704921025E+02 0.  0.
        254    2    1    2    0    0 -0.20900148166E+03  0.39457719250E+03  0.21443946113E+04  0.23621065881E+04  0.88416429714E+03 0.  0.
         23    2    4    4    0    0  0.28789388379E+03  0.33592866998E+02  0.34359546053E+03  0.45721765579E+03  0.83539064082E+02 0.  0.
         23    2    4    4    0    0 -0.49689536545E+03  0.36098432551E+03  0.18007991508E+04  0.19048889323E+04  0.92247360562E+02 0.  0.
          2    1    3    3  502    0  0.81643018979E+02 -0.12340196805E+03  0.15943314406E+03  0.21751449536E+03  0.00000000000E+00 0. -1.
         -1    1    3    3    0  502  0.12735846268E+03 -0.27117522446E+03  0.18268944679E+03  0.35090114611E+03  0.00000000000E+00 0.  1.
         13    1    5    5    0    0  0.84253010048E+02  0.48093777346E+02  0.98872664925E+02  0.13851853663E+03  0.00000000000E+00 0. -1.
        -13    1    5    5    0    0  0.20364087374E+03 -0.14500910349E+02  0.24472279561E+03  0.31869911916E+03  0.00000000000E+00 0.  1.
          3    1    6    6  503    0 -0.20832945901E+02 -0.24859943932E+01  0.85041542847E+02  0.87591414036E+02  0.00000000000E+00 0. -1.
         -3    1    6    6    0  503 -0.47606241955E+03  0.36347031990E+03  0.17157576079E+04  0.18172975183E+04  0.00000000000E+00 0.  1.
<mgrwt>
<rscale>  0 0.15508684E+04</rscale>
<asrwt>0</asrwt>
<pdfrwt beam="1">  1        2 0.41669532E+00 0.15508684E+04</pdfrwt>
<pdfrwt beam="2">  1       -1 0.34154235E-01 0.15508684E+04</pdfrwt>
<totfact> 0.23415313E+01</totfact>
</mgrwt>
</event>
<event>
12    7  0.1572140E-007  0.2960414E+04  0.7818608E-02  0.8255126E-01
         -1   -1    0    0    0  501 -0.00000000000E+00  0.00000000000E+00  0.63383417554E+03  0.63383417554E+03  0.00000000000E+00 0.  1.
          2   -1    0    0  501    0  0.00000000000E+00 -0.00000000000E+00 -0.34567591542E+04  0.34567591542E+04  0.00000000000E+00 0. -1.
         24    2    1    2    0    0  0.99913633283E+03 -0.88950335955E+03 -0.10695593726E+04  0.17145801066E+04  0.79611884181E+02 0.  0.
        254    2    1    2    0    0 -0.99913633283E+03  0.88950335955E+03 -0.17533656061E+04  0.23760132232E+04  0.88411438737E+03 0.  0.
         23    2    4    4    0    0 -0.83410521741E+03  0.41410568395E+03 -0.59189019891E+03  0.11073475390E+04  0.93110329134E+02 0.  0.
         23    2    4    4    0    0 -0.16503111541E+03  0.47539767560E+03 -0.11614754072E+04  0.12686656842E+04  0.85142690321E+02 0.  0.
          4    1    3    3  502    0  0.48957463804E+03 -0.43929412449E+03 -0.47512482623E+03  0.81142236507E+03  0.00000000000E+00 0. -1.
         -3    1    3    3    0  502  0.50956169478E+03 -0.45020923506E+03 -0.59443454635E+03  0.90315774149E+03  0.00000000000E+00 0.  1.
         13    1    5    5    0    0 -0.77633439794E+03  0.39500618417E+03 -0.52548058249E+03  0.10172781456E+04  0.00000000000E+00 0. -1.
        -13    1    5    5    0    0 -0.57770819470E+02  0.19099499779E+02 -0.66409616428E+02  0.90069393404E+02  0.00000000000E+00 0.  1.
          2    1    6    6  503    0 -0.10934600684E+03  0.41029625756E+03 -0.95720623288E+03  0.10471596538E+04  0.00000000000E+00 0. -1.
         -2    1    6    6    0  503 -0.55685108572E+02  0.65101418033E+02 -0.20426917432E+03  0.22150603044E+03  0.00000000000E+00 0.  1.
<mgrwt>
<rscale>  0 0.29604135E+04</rscale>
<asrwt>0</asrwt>
<pdfrwt beam="1">  1        2 0.53180911E+00 0.29604135E+04</pdfrwt>
<pdfrwt beam="2">  1       -1 0.97512948E-01 0.29604135E+04</pdfrwt>
<totfact> 0.85764776E-01</totfact>
</mgrwt>
</event>
<event>
12    7  0.1572140E-007  0.3343265E+04  0.7818608E-02  0.8151973E-01
         -1   -1    0    0    0  501 -0.00000000000E+00  0.00000000000E+00  0.17148007771E+04  0.17148007771E+04  0.00000000000E+00 0.  1.
          2   -1    0    0  501    0  0.00000000000E+00 -0.00000000000E+00 -0.16295510529E+04  0.16295510529E+04  0.00000000000E+00 0. -1.
         24    2    1    2    0    0  0.32961734660E+03  0.87471853532E+03  0.12731709012E+04  0.15814484369E+04  0.78961406623E+02 0.  0.
        254    2    1    2    0    0 -0.32961734660E+03 -0.87471853532E+03 -0.11879211771E+04  0.17629033931E+04  0.90713369424E+03 0.  0.
         23    2    4    4    0    0  0.12930425394E+03  0.68080147694E+02  0.40391745962E+01  0.17276155445E+03  0.92063799450E+02 0.  0.
         23    2    4    4    0    0 -0.45892160053E+03 -0.94279868301E+03 -0.11919603517E+04  0.15901418386E+04  0.91121868515E+02 0.  0.
          4    1    3    3  502    0  0.74097810521E+02  0.12310972511E+03  0.21510688862E+03  0.25868409977E+03  0.00000000000E+00 0. -1.
         -3    1    3    3    0  502  0.25551953607E+03  0.75160881021E+03  0.10580640126E+04  0.13227643371E+04  0.00000000000E+00 0.  1.
         13    1    5    5    0    0  0.10739426567E+03  0.41899568430E+02  0.41088234163E+02  0.12238196403E+03  0.00000000000E+00 0.  1.
        -13    1    5    5    0    0  0.21909988272E+02  0.26180579264E+02 -0.37049059567E+02  0.50379590426E+02  0.00000000000E+00 0. -1.
          2    1    6    6  503    0 -0.73920151201E+02 -0.10598066406E+03 -0.18203933855E+03  0.22323622172E+03  0.00000000000E+00 0. -1.
         -2    1    6    6    0  503 -0.38500144933E+03 -0.83681801895E+03 -0.10099210131E+04  0.13669056169E+04  0.00000000000E+00 0.  1.
<mgrwt>
<rscale>  0 0.33432651E+04</rscale>
<asrwt>0</asrwt>
<pdfrwt beam="1">  1        2 0.25070016E+00 0.33432651E+04</pdfrwt>
<pdfrwt beam="2">  1       -1 0.26381550E+00 0.33432651E+04</pdfrwt>
<totfact> 0.57635372E-01</totfact>
</mgrwt>
</event>
<event>
12    7  0.1572140E-007  0.1996408E+04  0.7818608E-02  0.8608302E-01
          2   -1    0    0  501    0  0.00000000000E+00  0.00000000000E+00  0.14560040544E+04  0.14560040544E+04  0.00000000000E+00 0. -1.
         -1   -1    0    0    0  501 -0.00000000000E+00 -0.00000000000E+00 -0.68434671377E+03  0.68434671377E+03  0.00000000000E+00 0.  1.
         24    2    1    2    0    0  0.22255445739E+01  0.68267189376E+03  0.74328082906E+03  0.10123414872E+04  0.79517471450E+02 0.  0.
        254    2    1    2    0    0 -0.22255445739E+01 -0.68267189376E+03  0.28376511533E+02  0.11280092809E+04  0.89752651432E+03 0.  0.
         23    2    4    4    0    0 -0.19190874469E+03 -0.65495172905E+03  0.32544272865E+03  0.76295546044E+03  0.10196730508E+03 0.  0.
         23    2    4    4    0    0  0.18968320011E+03 -0.27720164707E+02 -0.29706621712E+03  0.36505382051E+03  0.90927611737E+02 0.  0.
          2    1    3    3  502    0  0.50341754348E+01  0.35958689928E+03  0.33305691776E+03  0.49015812910E+03  0.00000000000E+00 0. -1.
         -1    1    3    3    0  502 -0.28086308609E+01  0.32308499447E+03  0.41022391130E+03  0.52218335808E+03  0.00000000000E+00 0.  1.
         13    1    5    5    0    0 -0.48718337503E+02 -0.14451137330E+03  0.12131512108E+03  0.19487014144E+03  0.00000000000E+00 0. -1.
        -13    1    5    5    0    0 -0.14319040718E+03 -0.51044035575E+03  0.20412760757E+03  0.56808531899E+03  0.00000000000E+00 0.  1.
          1    1    6    6  503    0  0.12269225817E+02 -0.76536297279E+01 -0.92096553028E+02  0.93224927084E+02  0.00000000000E+00 0. -1.
         -1    1    6    6    0  503  0.17741397430E+03 -0.20066534979E+02 -0.20496966409E+03  0.27182889342E+03  0.00000000000E+00 0.  1.
<mgrwt>
<rscale>  0 0.19964084E+04</rscale>
<asrwt>0</asrwt>
<pdfrwt beam="1">  1        2 0.22400062E+00 0.19964084E+04</pdfrwt>
<pdfrwt beam="2">  1       -1 0.10528411E+00 0.19964084E+04</pdfrwt>
<totfact> 0.12044640E+01</totfact>
</mgrwt>
</event>
<event>
12    7  0.1572140E-007  0.1086817E+04  0.7818608E-02  0.9218137E-01
          2   -1    0    0  501    0  0.00000000000E+00  0.00000000000E+00  0.15027356405E+04  0.15027356405E+04  0.00000000000E+00 0. -1.
         -1   -1    0    0    0  501 -0.00000000000E+00 -0.00000000000E+00 -0.19650363944E+03  0.19650363944E+03  0.00000000000E+00 0.  1.
         24    2    1    2    0    0  0.67804037084E+02 -0.23240895935E+02 -0.82277972654E+01  0.10477327701E+03  0.75975102758E+02 0.  0.
        254    2    1    2    0    0 -0.67804037084E+02  0.23240895935E+02  0.13144597983E+04  0.15944660029E+04  0.89965534869E+03 0.  0.
         23    2    4    4    0    0  0.92875977572E+02 -0.46870433165E+02 -0.96652254240E+02  0.16955546399E+03  0.92653183448E+02 0.  0.
         23    2    4    4    0    0 -0.16068001466E+03  0.70111329099E+02  0.14111120526E+04  0.14249105389E+04  0.91646895968E+02 0.  0.
          2    1    3    3  502    0  0.77365307536E-01  0.18276528335E+02  0.13140550933E+02  0.22510254379E+02  0.00000000000E+00 0. -1.
         -1    1    3    3    0  502  0.67726671776E+02 -0.41517424270E+02 -0.21368348199E+02  0.82263022633E+02  0.00000000000E+00 0.  1.
         13    1    5    5    0    0  0.32121348202E+02 -0.16708599096E+02  0.14775734889E+02  0.39106017895E+02  0.00000000000E+00 0. -1.
        -13    1    5    5    0    0  0.60754629370E+02 -0.30161834068E+02 -0.11142798913E+03  0.13044944609E+03  0.00000000000E+00 0.  1.
          4    1    6    6  503    0  0.35575820209E+01 -0.84241861571E+01  0.19836431413E+03  0.19857498438E+03  0.00000000000E+00 0.  1.
         -4    1    6    6    0  503 -0.16423759668E+03  0.78535515257E+02  0.12127477384E+04  0.12263355546E+04  0.00000000000E+00 0. -1.
<mgrwt>
<rscale>  0 0.10868174E+04</rscale>
<asrwt>0</asrwt>
<pdfrwt beam="1">  1        2 0.23119009E+00 0.10868174E+04</pdfrwt>
<pdfrwt beam="2">  1       -1 0.30231330E-01 0.10868174E+04</pdfrwt>
<totfact> 0.14405197E+02</totfact>
</mgrwt>
</event>
<event>
12    7  0.1572140E-007  0.1805315E+04  0.7818608E-02  0.8703478E-01
         -3   -1    0    0    0  501 -0.00000000000E+00  0.00000000000E+00  0.89440186479E+03  0.89440186479E+03  0.00000000000E+00 0.  1.
          2   -1    0    0  501    0  0.00000000000E+00 -0.00000000000E+00 -0.91098901956E+03  0.91098901956E+03  0.00000000000E+00 0. -1.
         24    2    1    2    0    0  0.35480018373E+03  0.46832185767E+03  0.35161196792E+03  0.69051984801E+03  0.89320500231E+02 0.  0.
        254    2    1    2    0    0 -0.35480018373E+03 -0.46832185767E+03 -0.36819912269E+03  0.11148710363E+04  0.87301678161E+03 0.  0.
         23    2    4    4    0    0  0.10535181171E+03  0.16992497172E+03  0.40918092787E+02  0.22357677972E+03  0.91316952809E+02 0.  0.
         23    2    4    4    0    0 -0.46015199545E+03 -0.63824682939E+03 -0.40911721547E+03  0.89129425661E+03  0.89048760467E+02 0.  0.
          2    1    3    3  502    0  0.80477364086E+02  0.15240702555E+03  0.69158495306E+02  0.18570784862E+03  0.00000000000E+00 0. -1.
         -1    1    3    3    0  502  0.27432281965E+03  0.31591483212E+03  0.28245347261E+03  0.50481199938E+03  0.00000000000E+00 0.  1.
         13    1    5    5    0    0  0.97223393309E+02  0.97734161310E+02  0.56992428805E+02  0.14917268998E+03  0.00000000000E+00 0. -1.
        -13    1    5    5    0    0  0.81284184042E+01  0.72190810405E+02 -0.16074336018E+02  0.74404089747E+02  0.00000000000E+00 0.  1.
          1    1    6    6  503    0 -0.35934022507E+03 -0.52058259147E+03 -0.29006901398E+03  0.69589630318E+03  0.00000000000E+00 0. -1.
         -1    1    6    6    0  503 -0.10081177037E+03 -0.11766423791E+03 -0.11904820149E+03  0.19539795344E+03  0.00000000000E+00 0.  1.
<mgrwt>
<rscale>  0 0.18053147E+04</rscale>
<asrwt>0</asrwt>
<pdfrwt beam="1">  1        2 0.14015216E+00 0.18053147E+04</pdfrwt>
<pdfrwt beam="2">  1       -3 0.13760029E+00 0.18053147E+04</pdfrwt>
<totfact> 0.69134292E+00</totfact>
</mgrwt>
</event>
<event>
12    7  0.1572140E-007  0.1564423E+04  0.7818608E-02  0.8842707E-01
          2   -1    0    0  501    0  0.00000000000E+00  0.00000000000E+00  0.71234611425E+03  0.71234611425E+03  0.00000000000E+00 0. -1.
         -1   -1    0    0    0  501 -0.00000000000E+00 -0.00000000000E+00 -0.85892914375E+03  0.85892914375E+03  0.00000000000E+00 0.  1.
         24    2    1    2    0    0  0.10436854677E+02  0.32647768351E+03 -0.44416560116E+03  0.55726100124E+03  0.80994669481E+02 0.  0.
        254    2    1    2    0    0 -0.10436854677E+02 -0.32647768351E+03  0.29758257167E+03  0.10140142568E+04  0.91267350141E+03 0.  0.
         23    2    4    4    0    0 -0.42184289240E+03 -0.32013240271E+03  0.91602404388E+02  0.54504515508E+03  0.90813211887E+02 0.  0.
         23    2    4    4    0    0  0.41140603772E+03 -0.63452808035E+01  0.20598016728E+03  0.46896910168E+03  0.90603523958E+02 0.  0.
          2    1    3    3  502    0  0.77783649995E+00  0.33522227399E+02 -0.13141604681E+02  0.36014532247E+02  0.00000000000E+00 0. -1.
         -1    1    3    3    0  502  0.96590181773E+01  0.29295545611E+03 -0.43102399648E+03  0.52124646900E+03  0.00000000000E+00 0.  1.
         13    1    5    5    0    0 -0.18270836926E+03 -0.91595024089E+02  0.11498441004E+02  0.20470518015E+03  0.00000000000E+00 0.  1.
        -13    1    5    5    0    0 -0.23913452314E+03 -0.22853737862E+03  0.80103963384E+02  0.34033997492E+03  0.00000000000E+00 0. -1.
          2    1    6    6  503    0  0.26833792428E+03 -0.46043990208E+02  0.14495511168E+03  0.30844330928E+03  0.00000000000E+00 0.  1.
         -2    1    6    6    0  503  0.14306811344E+03  0.39698709404E+02  0.61025055604E+02  0.16052579240E+03  0.00000000000E+00 0. -1.
<mgrwt>
<rscale>  0 0.15644230E+04</rscale>
<asrwt>0</asrwt>
<pdfrwt beam="1">  1        2 0.10959171E+00 0.15644230E+04</pdfrwt>
<pdfrwt beam="2">  1       -1 0.13214294E+00 0.15644230E+04</pdfrwt>
<totfact> 0.21413532E+01</totfact>
</mgrwt>
</event>
<event>
12    7  0.1572140E-007  0.1943232E+04  0.7818608E-02  0.8633631E-01
         -1   -1    0    0    0  501 -0.00000000000E+00  0.00000000000E+00  0.34115773110E+03  0.34115773110E+03  0.00000000000E+00 0.  1.
          2   -1    0    0  501    0  0.00000000000E+00 -0.00000000000E+00 -0.27671578782E+04  0.27671578782E+04  0.00000000000E+00 0. -1.
         24    2    1    2    0    0  0.15159908854E+03 -0.52761634581E+03 -0.97432160354E+02  0.56326692911E+03  0.80095664965E+02 0.  0.
        254    2    1    2    0    0 -0.15159908854E+03  0.52761634581E+03 -0.23285679867E+04  0.25450486802E+04  0.86814896397E+03 0.  0.
         23    2    4    4    0    0  0.16538541824E+03 -0.10550066778E+03 -0.17760872967E+03  0.27873384997E+03  0.87549818953E+02 0.  0.
         23    2    4    4    0    0 -0.31698450678E+03  0.63311701359E+03 -0.21509592571E+04  0.22663148302E+04  0.90779147562E+02 0.  0.
          4    1    3    3  502    0  0.38364556286E+02 -0.88433729087E+02  0.10760011442E+02  0.96995574464E+02  0.00000000000E+00 0. -1.
         -3    1    3    3    0  502  0.11323453225E+03 -0.43918261672E+03 -0.10819217180E+03  0.46627135464E+03  0.00000000000E+00 0.  1.
         13    1    5    5    0    0  0.72058163826E+01 -0.18677193610E+02 -0.60240052994E+02  0.63479329987E+02  0.00000000000E+00 0.  1.
        -13    1    5    5    0    0  0.15817960185E+03 -0.86823474172E+02 -0.11736867667E+03  0.21525451998E+03  0.00000000000E+00 0. -1.
          2    1    6    6  503    0 -0.22400919528E+03  0.34948092998E+03 -0.12223900396E+04  0.12909509863E+04  0.00000000000E+00 0. -1.
         -2    1    6    6    0  503 -0.92975311493E+02  0.28363608361E+03 -0.92856921743E+03  0.97536384393E+03  0.00000000000E+00 0.  1.
<mgrwt>
<rscale>  0 0.19432316E+04</rscale>
<asrwt>0</asrwt>
<pdfrwt beam="1">  1        2 0.42571660E+00 0.19432316E+04</pdfrwt>
<pdfrwt beam="2">  1       -1 0.52485805E-01 0.19432316E+04</pdfrwt>
<totfact> 0.94213010E+00</totfact>
</mgrwt>
</event>
<event>
12    7  0.1572140E-007  0.2002532E+04  0.7818608E-02  0.8605438E-01
         -1   -1    0    0    0  501 -0.00000000000E+00  0.00000000000E+00  0.54225222274E+03  0.54225222274E+03  0.00000000000E+00 0.  1.
          2   -1    0    0  501    0  0.00000000000E+00 -0.00000000000E+00 -0.18488332901E+04  0.18488332901E+04  0.00000000000E+00 0. -1.
         24    2    1    2    0    0  0.48750763093E+02  0.50640222297E+03  0.21105836243E+03  0.55656796506E+03  0.80015117637E+02 0.  0.
        254    2    1    2    0    0 -0.48750763093E+02 -0.50640222297E+03 -0.15176394298E+04  0.18345175478E+04  0.89632881575E+03 0.  0.
         23    2    4    4    0    0 -0.89226313655E+02  0.15518997087E+03 -0.90604419716E+03  0.92798057461E+03  0.90479818439E+02 0.  0.
         23    2    4    4    0    0  0.40475550563E+02 -0.66159219384E+03 -0.61159523260E+03  0.90653697314E+03  0.91749953659E+02 0.  0.
          2    1    3    3  502    0 -0.16146900302E+02  0.11701289043E+03  0.70327839712E+02  0.13747270258E+03  0.00000000000E+00 0. -1.
         -1    1    3    3    0  502  0.64897663395E+02  0.38938933254E+03  0.14073052272E+03  0.41909526248E+03  0.00000000000E+00 0.  1.
         13    1    5    5    0    0  0.25168631141E+00  0.12719002911E+02 -0.26252460709E+03  0.26283265724E+03  0.00000000000E+00 0.  1.
        -13    1    5    5    0    0 -0.89477999967E+02  0.14247096796E+03 -0.64351959007E+03  0.66514791738E+03  0.00000000000E+00 0. -1.
          3    1    6    6  503    0  0.64103933324E+02 -0.39525856482E+03 -0.39464044803E+03  0.56220968557E+03  0.00000000000E+00 0. -1.
         -3    1    6    6    0  503 -0.23628382761E+02 -0.26633362902E+03 -0.21695478457E+03  0.34432728757E+03  0.00000000000E+00 0.  1.
<mgrwt>
<rscale>  0 0.20025324E+04</rscale>
<asrwt>0</asrwt>
<pdfrwt beam="1">  1        2 0.28443589E+00 0.20025324E+04</pdfrwt>
<pdfrwt beam="2">  1       -1 0.83423419E-01 0.20025324E+04</pdfrwt>
<totfact> 0.12224487E+01</totfact>
</mgrwt>
</event>
<event>
12    7  0.1572140E-007  0.3392582E+04  0.7818608E-02  0.8139729E-01
         -1   -1    0    0    0  501 -0.00000000000E+00  0.00000000000E+00  0.12664087157E+04  0.12664087157E+04  0.00000000000E+00 0.  1.
          2   -1    0    0  501    0  0.00000000000E+00 -0.00000000000E+00 -0.22720962515E+04  0.22720962515E+04  0.00000000000E+00 0. -1.
         24    2    1    2    0    0 -0.90062232754E+02 -0.39931462713E+03  0.11202791014E+04  0.11953829889E+04  0.79698481354E+02 0.  0.
        254    2    1    2    0    0  0.90062232754E+02  0.39931462713E+03 -0.21259666372E+04  0.23431219783E+04  0.89605975562E+03 0.  0.
         23    2    4    4    0    0  0.10522309348E+02 -0.22327685758E+03 -0.11767394437E+04  0.12014653145E+04  0.94020792257E+02 0.  0.
         23    2    4    4    0    0  0.79539923406E+02  0.62259148472E+03 -0.94922719345E+03  0.11416566638E+04  0.91656516425E+02 0.  0.
          4    1    3    3  502    0 -0.52274535576E+02 -0.83785231042E+02  0.24159300097E+03  0.26099764391E+03  0.00000000000E+00 0. -1.
         -3    1    3    3    0  502 -0.37787697178E+02 -0.31552939609E+03  0.87868610042E+03  0.93438534498E+03  0.00000000000E+00 0.  1.
         13    1    5    5    0    0  0.57494565915E+01  0.62672243012E+01 -0.14887675543E+02  0.17145764335E+02  0.00000000000E+00 0. -1.
        -13    1    5    5    0    0  0.47728527566E+01 -0.22954408188E+03 -0.11618517682E+04  0.11843195502E+04  0.00000000000E+00 0.  1.
          4    1    6    6  503    0  0.28134586959E+01  0.19642593279E+03 -0.36429439419E+03  0.41388581549E+03  0.00000000000E+00 0. -1.
         -4    1    6    6    0  503  0.76726464710E+02  0.42616555192E+03 -0.58493279926E+03  0.72777084834E+03  0.00000000000E+00 0.  1.
<mgrwt>
<rscale>  0 0.33925816E+04</rscale>
<asrwt>0</asrwt>
<pdfrwt beam="1">  1        2 0.34955326E+00 0.33925816E+04</pdfrwt>
<pdfrwt beam="2">  1       -1 0.19483211E+00 0.33925816E+04</pdfrwt>
<totfact> 0.72424514E-01</totfact>
</mgrwt>
</event>
<event>
12    7  0.1572140E-007  0.2202762E+04  0.7818608E-02  0.8517279E-01
         -1   -1    0    0    0  501 -0.00000000000E+00  0.00000000000E+00  0.63979934358E+03  0.63979934358E+03  0.00000000000E+00 0.  1.
          2   -1    0    0  501    0  0.00000000000E+00 -0.00000000000E+00 -0.18959697201E+04  0.18959697201E+04  0.00000000000E+00 0. -1.
         24    2    1    2    0    0 -0.71940022306E+03 -0.76915513679E+02  0.12520211389E+03  0.73848559584E+03  0.78947633033E+02 0.  0.
        254    2    1    2    0    0  0.71940022306E+03  0.76915513679E+02 -0.13813724904E+04  0.17972834679E+04  0.89363596016E+03 0.  0.
         23    2    4    4    0    0  0.50652863036E+03  0.41649241458E+02 -0.14610189753E+04  0.15496571739E+04  0.92493231149E+02 0.  0.
         23    2    4    4    0    0  0.21287159270E+03  0.35266272222E+02  0.79646484868E+02  0.24762629393E+03  0.91745266668E+02 0.  0.
          2    1    3    3  502    0 -0.28529739039E+03  0.79260654234E+01  0.54160419451E+02  0.29050090278E+03  0.00000000000E+00 0. -1.
         -1    1    3    3    0  502 -0.43410283267E+03 -0.84841579103E+02  0.71041694443E+02  0.44798469307E+03  0.00000000000E+00 0.  1.
         13    1    5    5    0    0  0.98527175735E+02 -0.23793980596E+02 -0.34565757202E+03  0.36021231929E+03  0.00000000000E+00 0. -1.
        -13    1    5    5    0    0  0.40800145462E+03  0.65443222054E+02 -0.11153614033E+04  0.11894448546E+04  0.00000000000E+00 0.  1.
          2    1    6    6  503    0  0.93551216796E+01 -0.10778072110E+01 -0.16985380659E+02  0.19421203005E+02  0.00000000000E+00 0. -1.
         -2    1    6    6    0  503  0.20351647102E+03  0.36344079433E+02  0.96631865527E+02  0.22820509092E+03  0.00000000000E+00 0.  1.
<mgrwt>
<rscale>  0 0.22027621E+04</rscale>
<asrwt>0</asrwt>
<pdfrwt beam="1">  1        2 0.29168765E+00 0.22027621E+04</pdfrwt>
<pdfrwt beam="2">  1       -1 0.98430668E-01 0.22027621E+04</pdfrwt>
<totfact> 0.78458926E+00</totfact>
</mgrwt>
</event>
<event>
12    7  0.1572140E-007  0.3018377E+04  0.7818608E-02  0.8238503E-01
          2   -1    0    0  501    0  0.00000000000E+00  0.00000000000E+00  0.10290829730E+04  0.10290829730E+04  0.00000000000E+00 0. -1.
         -1   -1    0    0    0  501 -0.00000000000E+00 -0.00000000000E+00 -0.22132814740E+04  0.22132814740E+04  0.00000000000E+00 0.  1.
         24    2    1    2    0    0 -0.12909353230E+04  0.46304781385E+03 -0.61532981588E+03  0.15052774096E+04  0.79385208654E+02 0.  0.
        254    2    1    2    0    0  0.12909353230E+04 -0.46304781385E+03 -0.56886868510E+03  0.17370870374E+04  0.90162769940E+03 0.  0.
         23    2    4    4    0    0  0.13416634420E+04 -0.56666916558E+03 -0.39554904273E+03  0.15119500006E+04  0.91427698561E+02 0.  0.
         23    2    4    4    0    0 -0.50728119001E+02  0.10362135174E+03 -0.17331964237E+03  0.22513703681E+03  0.85651972067E+02 0.  0.
          4    1    3    3  502    0 -0.48703506470E+03  0.15115145672E+03 -0.26315763556E+03  0.57384828855E+03  0.00000000000E+00 0. -1.
         -3    1    3    3    0  502 -0.80390025833E+03  0.31189635713E+03 -0.35217218032E+03  0.93142912104E+03  0.00000000000E+00 0.  1.
         13    1    5    5    0    0  0.10471559657E+04 -0.41790151020E+03 -0.33782971843E+03  0.11769903175E+04  0.00000000000E+00 0. -1.
        -13    1    5    5    0    0  0.29450747629E+03 -0.14876765539E+03 -0.57719324296E+02  0.33495968306E+03  0.00000000000E+00 0.  1.
          4    1    6    6  503    0 -0.26557115150E+02 -0.71963817196E+01 -0.53418358378E+02  0.60088179260E+02  0.00000000000E+00 0. -1.
         -4    1    6    6    0  503 -0.24171003851E+02  0.11081773346E+03 -0.11990128399E+03  0.16504885755E+03  0.00000000000E+00 0.  1.
<mgrwt>
<rscale>  0 0.30183772E+04</rscale>
<asrwt>0</asrwt>
<pdfrwt beam="1">  1        2 0.15832046E+00 0.30183772E+04</pdfrwt>
<pdfrwt beam="2">  1       -1 0.34050484E+00 0.30183772E+04</pdfrwt>
<totfact> 0.42195899E-01</totfact>
</mgrwt>
</event>
<event>
12    7  0.1572140E-007  0.1663727E+04  0.7818608E-02  0.8782327E-01
         -1   -1    0    0    0  501 -0.00000000000E+00  0.00000000000E+00  0.65079905426E+03  0.65079905426E+03  0.00000000000E+00 0.  1.
          2   -1    0    0  501    0  0.00000000000E+00 -0.00000000000E+00 -0.10633033734E+04  0.10633033734E+04  0.00000000000E+00 0. -1.
         24    2    1    2    0    0 -0.43892080478E+03 -0.39485207838E+03 -0.15121715026E+03  0.61470920495E+03  0.80256734575E+02 0.  0.
        254    2    1    2    0    0  0.43892080478E+03  0.39485207838E+03 -0.26128716884E+03  0.10993932227E+04  0.88985101945E+03 0.  0.
         23    2    4    4    0    0  0.84949187281E+02  0.37212854002E+03  0.25378752219E+03  0.46735649156E+03  0.91202900562E+02 0.  0.
         23    2    4    4    0    0  0.35397161750E+03  0.22723538361E+02 -0.51507469103E+03  0.63203673112E+03  0.91412400459E+02 0.  0.
          4    1    3    3  502    0 -0.29312791373E+03 -0.29698532146E+03 -0.78239690996E+02  0.42455353516E+03  0.00000000000E+00 0. -1.
         -3    1    3    3    0  502 -0.14579289105E+03 -0.97866756914E+02 -0.72977459269E+02  0.19015566978E+03  0.00000000000E+00 0.  1.
         13    1    5    5    0    0  0.52318905070E+02  0.34784859380E+03  0.22861560707E+03  0.41952474043E+03  0.00000000000E+00 0. -1.
        -13    1    5    5    0    0  0.32630282211E+02  0.24279946212E+02  0.25171915124E+02  0.47831751130E+02  0.00000000000E+00 0.  1.
          4    1    6    6  503    0  0.32988285339E+03  0.80115417065E+01 -0.50244515603E+03  0.60111397969E+03  0.00000000000E+00 0. -1.
         -4    1    6    6    0  503  0.24088764108E+02  0.14711996655E+02 -0.12629535002E+02  0.30922751433E+02  0.00000000000E+00 0.  1.
<mgrwt>
<rscale>  0 0.16637269E+04</rscale>
<asrwt>0</asrwt>
<pdfrwt beam="1">  1        2 0.16358513E+00 0.16637269E+04</pdfrwt>
<pdfrwt beam="2">  1       -1 0.10012293E+00 0.16637269E+04</pdfrwt>
<totfact> 0.23760259E+01</totfact>
</mgrwt>
</event>
<event>
12    7  0.1572140E-007  0.2825627E+04  0.7818608E-02  0.8295356E-01
         -1   -1    0    0    0  501 -0.00000000000E+00  0.00000000000E+00  0.73520956697E+03  0.73520956697E+03  0.00000000000E+00 0.  1.
          2   -1    0    0  501    0  0.00000000000E+00 -0.00000000000E+00 -0.27149295776E+04  0.27149295776E+04  0.00000000000E+00 0. -1.
         24    2    1    2    0    0 -0.77310906995E+03 -0.47600633492E+03  0.19091841329E+03  0.93119239359E+03  0.79936027129E+02 0.  0.
        254    2    1    2    0    0  0.77310906995E+03  0.47600633492E+03 -0.21706384239E+04  0.25189467510E+04  0.89952315253E+03 0.  0.
         23    2    4    4    0    0  0.52665651346E+03  0.23527281956E+03 -0.20692965414E+04  0.21501238417E+04  0.91235824518E+02 0.  0.
         23    2    4    4    0    0  0.24645255649E+03  0.24073351536E+03 -0.10134188247E+03  0.36882290921E+03  0.84075401872E+02 0.  0.
          4    1    3    3  502    0 -0.33180631352E+03 -0.22451731580E+03  0.12079100857E+03  0.41844225711E+03  0.00000000000E+00 0. -1.
         -3    1    3    3    0  502 -0.44130275643E+03 -0.25148901912E+03  0.70127404721E+02  0.51275013648E+03  0.00000000000E+00 0.  1.
         13    1    5    5    0    0  0.16944835427E+03  0.10738987882E+03 -0.60092608389E+03  0.63352781245E+03  0.00000000000E+00 0. -1.
        -13    1    5    5    0    0  0.35720815919E+03  0.12788294074E+03 -0.14683704575E+04  0.15165960293E+04  0.00000000000E+00 0.  1.
          3    1    6    6  503    0  0.23904384975E+02  0.62336298997E+02 -0.37378196293E+02  0.76513811510E+02  0.00000000000E+00 0. -1.
         -3    1    6    6    0  503  0.22254817152E+03  0.17839721636E+03 -0.63963686175E+02  0.29230909770E+03  0.00000000000E+00 0.  1.
<mgrwt>
<rscale>  0 0.28256272E+04</rscale>
<asrwt>0</asrwt>
<pdfrwt beam="1">  1        2 0.41768147E+00 0.28256272E+04</pdfrwt>
<pdfrwt beam="2">  1       -1 0.11310917E+00 0.28256272E+04</pdfrwt>
<totfact> 0.18332636E+00</totfact>
</mgrwt>
</event>
<event>
12    7  0.1572140E-007  0.2176937E+04  0.7818608E-02  0.8528089E-01
         -1   -1    0    0    0  501 -0.00000000000E+00  0.00000000000E+00  0.10442433660E+04  0.10442433660E+04  0.00000000000E+00 0.  1.
          2   -1    0    0  501    0  0.00000000000E+00 -0.00000000000E+00 -0.11345664739E+04  0.11345664739E+04  0.00000000000E+00 0. -1.
         24    2    1    2    0    0  0.10301675293E+03  0.73775060890E+03 -0.55033777817E+03  0.92966955277E+03  0.80779916643E+02 0.  0.
        254    2    1    2    0    0 -0.10301675293E+03 -0.73775060890E+03  0.46001467036E+03  0.12491402871E+04  0.89098234980E+03 0.  0.
         23    2    4    4    0    0 -0.19937748003E+03  0.41797574045E+02  0.39755693261E+03  0.45580219547E+03  0.90585374059E+02 0.  0.
         23    2    4    4    0    0  0.96360727095E+02 -0.77954818295E+03  0.62457737751E+02  0.79333809165E+03  0.92214962971E+02 0.  0.
          4    1    3    3  502    0  0.10188088718E+03  0.49836270302E+03 -0.39859337673E+03  0.64623662765E+03  0.00000000000E+00 0. -1.
         -3    1    3    3    0  502  0.11358657507E+01  0.23938790588E+03 -0.15174440144E+03  0.28343292512E+03  0.00000000000E+00 0.  1.
         13    1    5    5    0    0 -0.14092648706E+03  0.49435261624E+02  0.19980744397E+03  0.24945367208E+03  0.00000000000E+00 0. -1.
        -13    1    5    5    0    0 -0.58450992968E+02 -0.76376875788E+01  0.19774948864E+03  0.20634852339E+03  0.00000000000E+00 0.  1.
          2    1    6    6  503    0  0.65833358101E+02 -0.20730758936E+03  0.27142240964E+02  0.21919664434E+03  0.00000000000E+00 0. -1.
         -2    1    6    6    0  503  0.30527368994E+02 -0.57224059359E+03  0.35315496787E+02  0.57414144731E+03  0.00000000000E+00 0.  1.
<mgrwt>
<rscale>  0 0.21769369E+04</rscale>
<asrwt>0</asrwt>
<pdfrwt beam="1">  1        2 0.17454869E+00 0.21769369E+04</pdfrwt>
<pdfrwt beam="2">  1       -1 0.16065283E+00 0.21769369E+04</pdfrwt>
<totfact> 0.62592050E+00</totfact>
</mgrwt>
</event>
<event>
12    7  0.1572140E-007  0.2127435E+04  0.7818608E-02  0.8549253E-01
         -1   -1    0    0    0  501 -0.00000000000E+00  0.00000000000E+00  0.10359752319E+04  0.10359752319E+04  0.00000000000E+00 0.  1.
          2   -1    0    0  501    0  0.00000000000E+00 -0.00000000000E+00 -0.10922027975E+04  0.10922027975E+04  0.00000000000E+00 0. -1.
         24    2    1    2    0    0 -0.46663202383E+03 -0.59644701718E+03 -0.45847932395E+03  0.88956295473E+03  0.87318210996E+02 0.  0.
        254    2    1    2    0    0  0.46663202383E+03  0.59644701718E+03  0.40225175832E+03  0.12386150746E+04  0.89379322891E+03 0.  0.
         23    2    4    4    0    0 -0.24178616098E+03  0.22649234794E+03  0.63646228662E+01  0.34141360732E+03  0.82239963062E+02 0.  0.
         23    2    4    4    0    0  0.70841818480E+03  0.36995466924E+03  0.39588713545E+03  0.89720146730E+03  0.97575955324E+02 0.  0.
          2    1    3    3  502    0 -0.38498638596E+03 -0.53552510715E+03 -0.41143589494E+03  0.77735522987E+03  0.00000000000E+00 0. -1.
         -1    1    3    3    0  502 -0.81645637869E+02 -0.60921910029E+02 -0.47043429005E+02  0.11220772485E+03  0.00000000000E+00 0.  1.
         13    1    5    5    0    0 -0.54423186178E+02  0.37910600954E+02  0.33304042962E+02  0.74217626856E+02  0.00000000000E+00 0. -1.
        -13    1    5    5    0    0 -0.18736297480E+03  0.18858174699E+03 -0.26939420095E+02  0.26719598047E+03  0.00000000000E+00 0.  1.
          4    1    6    6  503    0  0.14114874569E+03  0.11796176837E+03  0.77838066291E+02  0.19974161252E+03  0.00000000000E+00 0. -1.
         -4    1    6    6    0  503  0.56726943911E+03  0.25199290087E+03  0.31804906916E+03  0.69745985478E+03  0.00000000000E+00 0.  1.
<mgrwt>
<rscale>  0 0.21274351E+04</rscale>
<asrwt>0</asrwt>
<pdfrwt beam="1">  1        2 0.16803120E+00 0.21274351E+04</pdfrwt>
<pdfrwt beam="2">  1       -1 0.15938081E+00 0.21274351E+04</pdfrwt>
<totfact> 0.68240600E+00</totfact>
</mgrwt>
</event>
<event>
12    7  0.1572140E-007  0.2412021E+04  0.7818608E-02  0.8435017E-01
         -1   -1    0    0    0  501 -0.00000000000E+00  0.00000000000E+00  0.21583422528E+04  0.21583422528E+04  0.00000000000E+00 0.  1.
          2   -1    0    0  501    0  0.00000000000E+00 -0.00000000000E+00 -0.67387918371E+03  0.67387918371E+03  0.00000000000E+00 0. -1.
         24    2    1    2    0    0  0.10543281918E+03 -0.16753609775E+03  0.18359224148E+04  0.18493698621E+04  0.10184964441E+03 0.  0.
        254    2    1    2    0    0 -0.10543281918E+03  0.16753609775E+03 -0.35145934574E+03  0.98285157444E+03  0.89626398023E+03 0.  0.
         23    2    4    4    0    0 -0.30278195434E+03 -0.25276360237E+03 -0.20630217624E+02  0.40529129580E+03  0.90934471007E+02 0.  0.
         23    2    4    4    0    0  0.19734913516E+03  0.42029970012E+03 -0.33082912811E+03  0.57756027864E+03  0.92354991120E+02 0.  0.
          4    1    3    3  502    0  0.64519412937E+02 -0.18558934497E+02  0.63934330908E+03  0.64285850353E+03  0.00000000000E+00 0. -1.
         -3    1    3    3    0  502  0.40913406244E+02 -0.14897716325E+03  0.11965791057E+04  0.12065113585E+04  0.00000000000E+00 0.  1.
         13    1    5    5    0    0 -0.10213390372E+02  0.52060901558E+00  0.13362372806E+02  0.16826686651E+02  0.00000000000E+00 0. -1.
        -13    1    5    5    0    0 -0.29256856397E+03 -0.25328421139E+03 -0.33992590430E+02  0.38846460915E+03  0.00000000000E+00 0.  1.
          3    1    6    6  503    0  0.61825791489E+02  0.93983358560E+02 -0.12694042383E+03  0.16961477347E+03  0.00000000000E+00 0. -1.
         -3    1    6    6    0  503  0.13552334367E+03  0.32631634156E+03 -0.20388870429E+03  0.40794550516E+03  0.00000000000E+00 0.  1.
<mgrwt>
<rscale>  0 0.24120215E+04</rscale>
<asrwt>0</asrwt>
<pdfrwt beam="1">  1        2 0.10367372E+00 0.24120215E+04</pdfrwt>
<pdfrwt beam="2">  1       -1 0.33205265E+00 0.24120215E+04</pdfrwt>
<totfact> 0.89953025E-01</totfact>
</mgrwt>
</event>
<event>
12    7  0.1572140E-007  0.1577081E+04  0.7818608E-02  0.8834753E-01
          2   -1    0    0  501    0  0.00000000000E+00  0.00000000000E+00  0.11863245357E+04  0.11863245357E+04  0.00000000000E+00 0. -1.
         -1   -1    0    0    0  501 -0.00000000000E+00 -0.00000000000E+00 -0.52413655049E+03  0.52413655049E+03  0.00000000000E+00 0.  1.
         24    2    1    2    0    0  0.40514950269E+03  0.11475032548E+03  0.56371706057E+03  0.70831587991E+03  0.81367712490E+02 0.  0.
        254    2    1    2    0    0 -0.40514950269E+03 -0.11475032548E+03  0.98470924634E+02  0.10021452063E+04  0.90403801620E+03 0.  0.
         23    2    4    4    0    0  0.45134863814E+02 -0.42787729003E+03  0.12948337917E+02  0.43966651281E+03  0.89570373310E+02 0.  0.
         23    2    4    4    0    0 -0.45028436650E+03  0.31312696455E+03  0.85522586718E+02  0.56247869346E+03  0.90904681471E+02 0.  0.
          4    1    3    3  502    0  0.17096856050E+03  0.20928161930E+02  0.27925299409E+03  0.32810131263E+03  0.00000000000E+00 0. -1.
         -3    1    3    3    0  502  0.23418094219E+03  0.93822163547E+02  0.28446406648E+03  0.38021456729E+03  0.00000000000E+00 0.  1.
         13    1    5    5    0    0  0.41713133554E+02 -0.76246519689E+02  0.13914384836E+02  0.88017767417E+02  0.00000000000E+00 0. -1.
        -13    1    5    5    0    0  0.34217302592E+01 -0.35163077034E+03 -0.96604691965E+00  0.35164874539E+03  0.00000000000E+00 0.  1.
          4    1    6    6  503    0 -0.19739320061E+03  0.83476173889E+02  0.35078277182E+02  0.21717005499E+03  0.00000000000E+00 0. -1.
         -4    1    6    6    0  503 -0.25289116589E+03  0.22965079067E+03  0.50444309536E+02  0.34530863848E+03  0.00000000000E+00 0.  1.
<mgrwt>
<rscale>  0 0.15770809E+04</rscale>
<asrwt>0</asrwt>
<pdfrwt beam="1">  1        2 0.18251147E+00 0.15770809E+04</pdfrwt>
<pdfrwt beam="2">  1       -1 0.80636393E-01 0.15770809E+04</pdfrwt>
<totfact> 0.32431751E+01</totfact>
</mgrwt>
</event>
<event>
12    7  0.1572140E-007  0.2004562E+04  0.7818608E-02  0.8604491E-01
          2   -1    0    0  501    0  0.00000000000E+00  0.00000000000E+00  0.11381822220E+04  0.11381822220E+04  0.00000000000E+00 0. -1.
         -1   -1    0    0    0  501 -0.00000000000E+00 -0.00000000000E+00 -0.88260632775E+03  0.88260632775E+03  0.00000000000E+00 0.  1.
         24    2    1    2    0    0 -0.22306279153E+03  0.49033332307E+03 -0.49037839994E+03  0.73278727971E+03  0.79513806960E+02 0.  0.
        254    2    1    2    0    0  0.22306279153E+03 -0.49033332307E+03  0.74595429418E+03  0.12880012700E+04  0.90128557403E+03 0.  0.
         23    2    4    4    0    0  0.49457279963E+03 -0.78828508490E+02  0.55077868002E+03  0.75012896702E+03  0.92304522747E+02 0.  0.
         23    2    4    4    0    0 -0.27151000810E+03 -0.41150481458E+03  0.19517561417E+03  0.53787230302E+03  0.90328273943E+02 0.  0.
          2    1    3    3  502    0 -0.73628936049E+02  0.23211628177E+03 -0.25667831234E+03  0.35381201860E+03  0.00000000000E+00 0. -1.
         -3    1    3    3    0  502 -0.14943385548E+03  0.25821704130E+03 -0.23370008760E+03  0.37897526110E+03  0.00000000000E+00 0.  1.
         13    1    5    5    0    0  0.39614734269E+03 -0.33331734123E+02  0.46567231316E+03  0.61228622790E+03  0.00000000000E+00 0.  1.
        -13    1    5    5    0    0  0.98425456937E+02 -0.45496774367E+02  0.85106366852E+02  0.13784273913E+03  0.00000000000E+00 0. -1.
          3    1    6    6  503    0 -0.17605052877E+02 -0.86009502145E+01  0.25838815674E+02  0.32427744708E+02  0.00000000000E+00 0. -1.
         -3    1    6    6    0  503 -0.25390495522E+03 -0.40290386436E+03  0.16933679849E+03  0.50544455831E+03  0.00000000000E+00 0.  1.
<mgrwt>
<rscale>  0 0.20045616E+04</rscale>
<asrwt>0</asrwt>
<pdfrwt beam="1">  1        2 0.17510496E+00 0.20045616E+04</pdfrwt>
<pdfrwt beam="2">  1       -1 0.13578559E+00 0.20045616E+04</pdfrwt>
<totfact> 0.99214518E+00</totfact>
</mgrwt>
</event>
<event>
12    7  0.1572140E-007  0.2112226E+04  0.7818608E-02  0.8555877E-01
         -1   -1    0    0    0  501 -0.00000000000E+00  0.00000000000E+00  0.32991209843E+03  0.32991209843E+03  0.00000000000E+00 0.  1.
          2   -1    0    0  501    0  0.00000000000E+00 -0.00000000000E+00 -0.33808222798E+04  0.33808222798E+04  0.00000000000E+00 0. -1.
         24    2    1    2    0    0  0.23754081601E+03  0.76929022349E+03 -0.70949309944E+03  0.10759681430E+04  0.78063431432E+02 0.  0.
        254    2    1    2    0    0 -0.23754081601E+03 -0.76929022349E+03 -0.23414170819E+04  0.26347662353E+04  0.90084742082E+03 0.  0.
         23    2    4    4    0    0 -0.55228815682E+03 -0.63279364208E+03 -0.14981117731E+04  0.17198355700E+04  0.89696719084E+02 0.  0.
         23    2    4    4    0    0  0.31474734081E+03 -0.13649658141E+03 -0.84330530882E+03  0.91493066526E+03  0.90758322336E+02 0.  0.
          4    1    3    3  502    0  0.66647804821E+02  0.12425971035E+03 -0.10819053320E+03  0.17772899870E+03  0.00000000000E+00 0. -1.
         -3    1    3    3    0  502  0.17089301118E+03  0.64503051314E+03 -0.60130256624E+03  0.89823914428E+03  0.00000000000E+00 0.  1.
         13    1    5    5    0    0 -0.42306010812E+03 -0.49160264530E+03 -0.12284405630E+04  0.13891433450E+04  0.00000000000E+00 0.  1.
        -13    1    5    5    0    0 -0.12922804870E+03 -0.14119099678E+03 -0.26967121009E+03  0.33069222503E+03  0.00000000000E+00 0. -1.
          2    1    6    6  503    0  0.18959216554E+03 -0.12417020616E+03 -0.59239812521E+03  0.63427042189E+03  0.00000000000E+00 0. -1.
         -2    1    6    6    0  503  0.12515517527E+03 -0.12326375250E+02 -0.25090718360E+03  0.28066024337E+03  0.00000000000E+00 0.  1.
<mgrwt>
<rscale>  0 0.21122255E+04</rscale>
<asrwt>0</asrwt>
<pdfrwt beam="1">  1        2 0.52012652E+00 0.21122255E+04</pdfrwt>
<pdfrwt beam="2">  1       -1 0.50755706E-01 0.21122255E+04</pdfrwt>
<totfact> 0.40298613E+00</totfact>
</mgrwt>
</event>
<event>
12    7  0.1572140E-007  0.2262781E+04  0.7818608E-02  0.8492742E-01
          2   -1    0    0  501    0  0.00000000000E+00  0.00000000000E+00  0.18384294431E+04  0.18384294431E+04  0.00000000000E+00 0. -1.
         -1   -1    0    0    0  501 -0.00000000000E+00 -0.00000000000E+00 -0.69627073458E+03  0.69627073458E+03  0.00000000000E+00 0.  1.
         24    2    1    2    0    0 -0.31486365062E+02  0.25985714772E+03 -0.54815024954E+03  0.61264378649E+03  0.79665454563E+02 0.  0.
        254    2    1    2    0    0  0.31486365062E+02 -0.25985714772E+03  0.16903089580E+04  0.19220563912E+04  0.87672074732E+03 0.  0.
         23    2    4    4    0    0 -0.91974017140E+02 -0.43749974563E+03  0.16106351632E+04  0.16740444160E+04  0.91726935592E+02 0.  0.
         23    2    4    4    0    0  0.12346038220E+03  0.17764259791E+03  0.79673794855E+02  0.24801197513E+03  0.91447622476E+02 0.  0.
          4    1    3    3  502    0 -0.33321735980E+02  0.65636210646E+02 -0.21198104452E+03  0.22439789097E+03  0.00000000000E+00 0. -1.
         -3    1    3    3    0  502  0.18353709189E+01  0.19422093708E+03 -0.33616920501E+03  0.38824589552E+03  0.00000000000E+00 0.  1.
         13    1    5    5    0    0 -0.95041467845E+02 -0.43771595906E+03  0.15523716731E+04  0.16156998338E+04  0.00000000000E+00 0.  1.
        -13    1    5    5    0    0  0.30674507049E+01  0.21621342681E+00  0.58263490054E+02  0.58344582228E+02  0.00000000000E+00 0. -1.
          3    1    6    6  503    0  0.21123453440E+02  0.84062641494E+02  0.65451118716E+02  0.10861204777E+03  0.00000000000E+00 0. -1.
         -3    1    6    6    0  503  0.10233692876E+03  0.93579956415E+02  0.14222676140E+02  0.13939992736E+03  0.00000000000E+00 0.  1.
<mgrwt>
<rscale>  0 0.22627811E+04</rscale>
<asrwt>0</asrwt>
<pdfrwt beam="1">  1        2 0.28283530E+00 0.22627811E+04</pdfrwt>
<pdfrwt beam="2">  1       -1 0.10711857E+00 0.22627811E+04</pdfrwt>
<totfact> 0.69095561E+00</totfact>
</mgrwt>
</event>
<event>
12    7  0.1572140E-007  0.1637795E+04  0.7818608E-02  0.8797660E-01
          2   -1    0    0  501    0  0.00000000000E+00  0.00000000000E+00  0.15902389701E+04  0.15902389701E+04  0.00000000000E+00 0. -1.
         -1   -1    0    0    0  501 -0.00000000000E+00 -0.00000000000E+00 -0.42169328274E+03  0.42169328274E+03  0.00000000000E+00 0.  1.
         24    2    1    2    0    0 -0.84444930188E+02  0.29043381467E+03 -0.18102782868E+03  0.36133549634E+03  0.79432482148E+02 0.  0.
        254    2    1    2    0    0  0.84444930188E+02 -0.29043381467E+03  0.13495735160E+04  0.16505967565E+04  0.90090966829E+03 0.  0.
         23    2    4    4    0    0 -0.10767119023E+03 -0.45353364975E+03  0.28690082256E+03  0.55458515128E+03  0.89256660064E+02 0.  0.
         23    2    4    4    0    0  0.19211612041E+03  0.16309983509E+03  0.10626726935E+04  0.10960116052E+04  0.91967523526E+02 0.  0.
          4    1    3    3  502    0  0.48039058336E+01  0.12166153018E+03 -0.73449163537E+02  0.14219488409E+03  0.00000000000E+00 0. -1.
         -3    1    3    3    0  502 -0.89248836021E+02  0.16877228448E+03 -0.10757866515E+03  0.21914061224E+03  0.00000000000E+00 0.  1.
         13    1    5    5    0    0 -0.31705946780E+02 -0.31461968905E+03  0.18678912547E+03  0.36726147796E+03  0.00000000000E+00 0. -1.
        -13    1    5    5    0    0 -0.75965243446E+02 -0.13891396070E+03  0.10011169709E+03  0.18732367331E+03  0.00000000000E+00 0.  1.
          4    1    6    6  503    0  0.11997675675E+03  0.13391228463E+03  0.86670281129E+03  0.88515574067E+03  0.00000000000E+00 0. -1.
         -4    1    6    6    0  503  0.72139363665E+02  0.29187550456E+02  0.19596988217E+03  0.21085586453E+03  0.00000000000E+00 0.  1.
<mgrwt>
<rscale>  0 0.16377950E+04</rscale>
<asrwt>0</asrwt>
<pdfrwt beam="1">  1        2 0.24465215E+00 0.16377950E+04</pdfrwt>
<pdfrwt beam="2">  1       -1 0.64875891E-01 0.16377950E+04</pdfrwt>
<totfact> 0.29635800E+01</totfact>
</mgrwt>
</event>
<event>
12    7  0.1572140E-007  0.1730281E+04  0.7818608E-02  0.8744280E-01
          2   -1    0    0  501    0  0.00000000000E+00  0.00000000000E+00  0.87920935270E+03  0.87920935270E+03  0.00000000000E+00 0. -1.
         -1   -1    0    0    0  501 -0.00000000000E+00 -0.00000000000E+00 -0.85129690554E+03  0.85129690554E+03  0.00000000000E+00 0.  1.
         24    2    1    2    0    0 -0.17476938599E+03 -0.98960341249E+02  0.60796552469E+03  0.64528084536E+03  0.80173578938E+02 0.  0.
        254    2    1    2    0    0  0.17476938599E+03  0.98960341249E+02 -0.58005307753E+03  0.10852254129E+04  0.89493862168E+03 0.  0.
         23    2    4    4    0    0  0.58765703731E+02  0.45012862771E+03 -0.10336636085E+03  0.47450634703E+03  0.91665039143E+02 0.  0.
         23    2    4    4    0    0  0.11600368226E+03 -0.35116828646E+03 -0.47668671668E+03  0.61071906584E+03  0.94718170426E+02 0.  0.
          2    1    3    3  502    0 -0.11518021403E+03 -0.38625109284E+02  0.25774869509E+03  0.28494345157E+03  0.00000000000E+00 0. -1.
         -1    1    3    3    0  502 -0.59589171965E+02 -0.60335231965E+02  0.35021682960E+03  0.36033739380E+03  0.00000000000E+00 0.  1.
         13    1    5    5    0    0 -0.16465241000E+02  0.21996610209E+03 -0.58925194587E+02  0.22831637870E+03  0.00000000000E+00 0.  1.
        -13    1    5    5    0    0  0.75230944731E+02  0.23016252562E+03 -0.44441166264E+02  0.24618996833E+03  0.00000000000E+00 0. -1.
          1    1    6    6  503    0 -0.21739267554E+01  0.90958068426E+00  0.31604328880E+01  0.39422874830E+01  0.00000000000E+00 0. -1.
         -1    1    6    6    0  503  0.11817760902E+03 -0.35207786714E+03 -0.47984714957E+03  0.60677677836E+03  0.00000000000E+00 0.  1.
<mgrwt>
<rscale>  0 0.17302811E+04</rscale>
<asrwt>0</asrwt>
<pdfrwt beam="1">  1        2 0.13526298E+00 0.17302811E+04</pdfrwt>
<pdfrwt beam="2">  1       -1 0.13096875E+00 0.17302811E+04</pdfrwt>
<totfact> 0.16337678E+01</totfact>
</mgrwt>
</event>
<event>
12    7  0.1572140E-007  0.4002567E+04  0.7818608E-02  0.8004029E-01
         -1   -1    0    0    0  501 -0.00000000000E+00  0.00000000000E+00  0.11688820600E+04  0.11688820600E+04  0.00000000000E+00 0.  1.
          2   -1    0    0  501    0  0.00000000000E+00 -0.00000000000E+00 -0.34264662285E+04  0.34264662285E+04  0.00000000000E+00 0. -1.
         24    2    1    2    0    0  0.14538461047E+04  0.51244530922E+03 -0.23511685549E+04  0.28125981994E+04  0.80289269025E+02 0.  0.
        254    2    1    2    0    0 -0.14538461047E+04 -0.51244530922E+03  0.93584386370E+02  0.17827500890E+04  0.89060156716E+03 0.  0.
         23    2    4    4    0    0 -0.20122738909E+03  0.73979389928E+02 -0.26263949117E+03  0.35168096219E+03  0.93458999530E+02 0.  0.
         23    2    4    4    0    0 -0.12526187156E+04 -0.58642469915E+03  0.35622387754E+03  0.14310691268E+04  0.90087848003E+02 0.  0.
          2    1    3    3  502    0  0.54978512661E+03  0.19009130053E+03 -0.81738819684E+03  0.10032556266E+04  0.00000000000E+00 0. -1.
         -1    1    3    3    0  502  0.90406097809E+03  0.32235400869E+03 -0.15337803581E+04  0.18093425728E+04  0.00000000000E+00 0.  1.
         13    1    5    5    0    0 -0.11421306819E+03  0.76293124944E+02 -0.11001335109E+03  0.17597784882E+03  0.00000000000E+00 0. -1.
        -13    1    5    5    0    0 -0.87014320904E+02 -0.23137350167E+01 -0.15262614008E+03  0.17570311337E+03  0.00000000000E+00 0.  1.
          3    1    6    6  503    0 -0.55543350326E+03 -0.25530270142E+03  0.11154425147E+03  0.62139195837E+03  0.00000000000E+00 0. -1.
         -3    1    6    6    0  503 -0.69718521236E+03 -0.33112199773E+03  0.24467962607E+03  0.80967716846E+03  0.00000000000E+00 0.  1.
<mgrwt>
<rscale>  0 0.40025666E+04</rscale>
<asrwt>0</asrwt>
<pdfrwt beam="1">  1        2 0.52714865E+00 0.40025666E+04</pdfrwt>
<pdfrwt beam="2">  1       -1 0.17982801E+00 0.40025666E+04</pdfrwt>
<totfact> 0.17055861E-01</totfact>
</mgrwt>
</event>
<event>
12    7  0.1572140E-007  0.2265999E+04  0.7818608E-02  0.8491449E-01
          2   -1    0    0  501    0  0.00000000000E+00  0.00000000000E+00  0.39594926514E+04  0.39594926514E+04  0.00000000000E+00 0. -1.
         -1   -1    0    0    0  501 -0.00000000000E+00 -0.00000000000E+00 -0.32420499904E+03  0.32420499904E+03  0.00000000000E+00 0.  1.
         24    2    1    2    0    0 -0.64837790702E+03 -0.70068369725E+03  0.15106821520E+04  0.17888018892E+04  0.79373045470E+02 0.  0.
        254    2    1    2    0    0  0.64837790702E+03  0.70068369725E+03  0.21246055003E+04  0.24948957612E+04  0.89398253541E+03 0.  0.
         23    2    4    4    0    0  0.21104954835E+03  0.80903815036E+03  0.12430299543E+04  0.15005261100E+04  0.85851609979E+02 0.  0.
         23    2    4    4    0    0  0.43732835868E+03 -0.10835445310E+03  0.88157554599E+03  0.99436965122E+03  0.92729602442E+02 0.  0.
          4    1    3    3  502    0 -0.41437740186E+03 -0.48124225439E+03  0.94691260836E+03  0.11401518436E+04  0.00000000000E+00 0. -1.
         -3    1    3    3    0  502 -0.23400050516E+03 -0.21944144286E+03  0.56376954366E+03  0.64865004557E+03  0.00000000000E+00 0.  1.
         13    1    5    5    0    0  0.87292563795E+02  0.44253626480E+03  0.72780111340E+03  0.85624342218E+03  0.00000000000E+00 0.  1.
        -13    1    5    5    0    0  0.12375698455E+03  0.36650188556E+03  0.51522884093E+03  0.64428268785E+03  0.00000000000E+00 0. -1.
          2    1    6    6  503    0  0.23600960730E+03 -0.54445959205E+02  0.57211086880E+03  0.62126946119E+03  0.00000000000E+00 0. -1.
         -2    1    6    6    0  503  0.20131875137E+03 -0.53908493898E+02  0.30946467719E+03  0.37310019003E+03  0.00000000000E+00 0.  1.
<mgrwt>
<rscale>  0 0.22659985E+04</rscale>
<asrwt>0</asrwt>
<pdfrwt beam="1">  1        2 0.60915268E+00 0.22659985E+04</pdfrwt>
<pdfrwt beam="2">  1       -1 0.49877695E-01 0.22659985E+04</pdfrwt>
<totfact> 0.15475078E+00</totfact>
</mgrwt>
</event>
<event>
12    7  0.1572140E-007  0.2422366E+04  0.7818608E-02  0.8431177E-01
          2   -1    0    0  501    0  0.00000000000E+00  0.00000000000E+00  0.14447889651E+04  0.14447889651E+04  0.00000000000E+00 0. -1.
         -1   -1    0    0    0  501 -0.00000000000E+00 -0.00000000000E+00 -0.10153488778E+04  0.10153488778E+04  0.00000000000E+00 0.  1.
         24    2    1    2    0    0  0.15001526323E+03 -0.28229754824E+03 -0.82173710424E+03  0.88534148668E+03  0.79882379841E+02 0.  0.
        254    2    1    2    0    0 -0.15001526323E+03  0.28229754824E+03  0.12511771915E+04  0.15747963562E+04  0.90130056806E+03 0.  0.
         23    2    4    4    0    0  0.11209949433E+03  0.75304302129E+01 -0.95024339126E+02  0.17310153691E+03  0.91167499951E+02 0.  0.
         23    2    4    4    0    0 -0.26211475756E+03  0.27476711803E+03  0.13462015307E+04  0.14016948193E+04  0.91042243104E+02 0.  0.
          4    1    3    3  502    0  0.14724493055E+02 -0.71752498575E+02 -0.12324745775E+03  0.14337073477E+03  0.00000000000E+00 0. -1.
         -3    1    3    3    0  502  0.13529077018E+03 -0.21054504967E+03 -0.69848964649E+03  0.74197075191E+03  0.00000000000E+00 0.  1.
         13    1    5    5    0    0  0.30346018390E+02 -0.33292297786E+02 -0.60476058122E+02  0.75409624916E+02  0.00000000000E+00 0. -1.
        -13    1    5    5    0    0  0.81753475937E+02  0.40822727999E+02 -0.34548281005E+02  0.97691911996E+02  0.00000000000E+00 0.  1.
          2    1    6    6  503    0 -0.17736771495E+03  0.20863341465E+03  0.10896535831E+04  0.11235355531E+04  0.00000000000E+00 0.  1.
         -2    1    6    6    0  503 -0.84747042610E+02  0.66133703377E+02  0.25654794758E+03  0.27815926618E+03  0.00000000000E+00 0. -1.
<mgrwt>
<rscale>  0 0.24223665E+04</rscale>
<asrwt>0</asrwt>
<pdfrwt beam="1">  1        2 0.22227523E+00 0.24223665E+04</pdfrwt>
<pdfrwt beam="2">  1       -1 0.15620752E+00 0.24223665E+04</pdfrwt>
<totfact> 0.43578993E+00</totfact>
</mgrwt>
</event>
<event>
12    7  0.1572140E-007  0.1725771E+04  0.7818608E-02  0.8746801E-01
         -1   -1    0    0    0  501 -0.00000000000E+00  0.00000000000E+00  0.74574078814E+03  0.74574078814E+03  0.00000000000E+00 0.  1.
          2   -1    0    0  501    0  0.00000000000E+00 -0.00000000000E+00 -0.99843164016E+03  0.99843164016E+03  0.00000000000E+00 0. -1.
         24    2    1    2    0    0  0.52613687316E+03 -0.88180765426E+02 -0.42436847767E+03  0.68638272202E+03  0.80229542941E+02 0.  0.
        254    2    1    2    0    0 -0.52613687316E+03  0.88180765426E+02  0.17167762565E+03  0.10577897063E+04  0.89713432598E+03 0.  0.
         23    2    4    4    0    0 -0.72155501734E+03  0.21688846087E+03  0.24208533774E+03  0.79735775969E+03  0.97426067766E+02 0.  0.
         23    2    4    4    0    0  0.19541814418E+03 -0.12870769544E+03 -0.70407712091E+02  0.26043194658E+03  0.90075695597E+02 0.  0.
          4    1    3    3  502    0  0.42178389543E+03 -0.84137434797E+02 -0.30212132924E+03  0.52560256845E+03  0.00000000000E+00 0. -1.
         -3    1    3    3    0  502  0.10435297773E+03 -0.40433306291E+01 -0.12224714843E+03  0.16078015357E+03  0.00000000000E+00 0.  1.
         13    1    5    5    0    0 -0.54216214287E+03  0.11911295569E+03  0.16666092152E+03  0.57957186624E+03  0.00000000000E+00 0.  1.
        -13    1    5    5    0    0 -0.17939287447E+03  0.97775505175E+02  0.75424416227E+02  0.21778589345E+03  0.00000000000E+00 0. -1.
          2    1    6    6  503    0  0.15174222071E+02 -0.50158393051E+02 -0.26584840615E+01  0.52470839010E+02  0.00000000000E+00 0. -1.
         -2    1    6    6    0  503  0.18024392211E+03 -0.78549302391E+02 -0.67749228030E+02  0.20796110757E+03  0.00000000000E+00 0.  1.
<mgrwt>
<rscale>  0 0.17257708E+04</rscale>
<asrwt>0</asrwt>
<pdfrwt beam="1">  1        2 0.15360487E+00 0.17257708E+04</pdfrwt>
<pdfrwt beam="2">  1       -1 0.11472935E+00 0.17257708E+04</pdfrwt>
<totfact> 0.18885366E+01</totfact>
</mgrwt>
</event>
<event>
12    7  0.1572140E-007  0.1361374E+04  0.7818608E-02  0.8982263E-01
         -1   -1    0    0    0  501 -0.00000000000E+00  0.00000000000E+00  0.55113397326E+03  0.55113397326E+03  0.00000000000E+00 0.  1.
          2   -1    0    0  501    0  0.00000000000E+00 -0.00000000000E+00 -0.84069332595E+03  0.84069332595E+03  0.00000000000E+00 0. -1.
         24    2    1    2    0    0 -0.27710694196E+03  0.13937004103E+03  0.13058777565E+03  0.34600117985E+03  0.80320506041E+02 0.  0.
        254    2    1    2    0    0  0.27710694196E+03 -0.13937004103E+03 -0.42014712834E+03  0.10458261194E+04  0.90609955130E+03 0.  0.
         23    2    4    4    0    0 -0.26822978480E+03 -0.26841659165E+03 -0.17144709432E+03  0.42605649736E+03  0.90196167696E+02 0.  0.
         23    2    4    4    0    0  0.54533672676E+03  0.12904655062E+03 -0.24870003403E+03  0.61976962200E+03  0.90650535827E+02 0.  0.
          4    1    3    3  502    0 -0.40381956276E+02  0.90639741726E+01 -0.82506541829E+01  0.42201081917E+02  0.00000000000E+00 0. -1.
         -3    1    3    3    0  502 -0.23672498568E+03  0.13030606686E+03  0.13883842984E+03  0.30380009794E+03  0.00000000000E+00 0.  1.
         13    1    5    5    0    0 -0.96454762666E+02 -0.58125121980E+02 -0.17634866399E+02  0.11398701487E+03  0.00000000000E+00 0. -1.
        -13    1    5    5    0    0 -0.17177502214E+03 -0.21029146967E+03 -0.15381222792E+03  0.31206948249E+03  0.00000000000E+00 0.  1.
          2    1    6    6  503    0  0.46043568679E+03  0.13376523783E+03 -0.18672330628E+03  0.51454810624E+03  0.00000000000E+00 0. -1.
         -2    1    6    6    0  503  0.84901039971E+02 -0.47186872155E+01 -0.61976727745E+02  0.10522151576E+03  0.00000000000E+00 0.  1.
<mgrwt>
<rscale>  0 0.13613738E+04</rscale>
<asrwt>0</asrwt>
<pdfrwt beam="1">  1        2 0.12933743E+00 0.13613738E+04</pdfrwt>
<pdfrwt beam="2">  1       -1 0.84789842E-01 0.13613738E+04</pdfrwt>
<totfact> 0.49429105E+01</totfact>
</mgrwt>
</event>
<event>
12    7  0.1572140E-007  0.2608295E+04  0.7818608E-02  0.8365389E-01
          2   -1    0    0  501    0  0.00000000000E+00  0.00000000000E+00  0.30108629988E+04  0.30108629988E+04  0.00000000000E+00 0. -1.
         -1   -1    0    0    0  501 -0.00000000000E+00 -0.00000000000E+00 -0.56488823179E+03  0.56488823179E+03  0.00000000000E+00 0.  1.
         24    2    1    2    0    0  0.28981889483E+02 -0.62242623488E+03  0.24015547776E+04  0.24823132022E+04  0.78480036742E+02 0.  0.
        254    2    1    2    0    0 -0.28981889483E+02  0.62242623488E+03  0.44419989361E+02  0.10934380283E+04  0.89742922763E+03 0.  0.
         23    2    4    4    0    0  0.21916721625E+03  0.49318581371E+03 -0.31396963023E+03  0.62933576391E+03  0.78867353892E+02 0.  0.
         23    2    4    4    0    0 -0.24814910573E+03  0.12924042117E+03  0.35838961959E+03  0.46410226444E+03  0.93095259213E+02 0.  0.
          4    1    3    3  502    0  0.33037166681E+02 -0.62140132010E+03  0.23951270225E+04  0.24746443197E+04  0.00000000000E+00 0. -1.
         -3    1    3    3    0  502 -0.40552771974E+01 -0.10249147827E+01  0.64277551476E+01  0.76688825585E+01  0.00000000000E+00 0.  1.
         13    1    5    5    0    0  0.19951039608E+03  0.41199886339E+03 -0.23577438452E+03  0.51491457735E+03  0.00000000000E+00 0.  1.
        -13    1    5    5    0    0  0.19656820171E+02  0.81186950320E+02 -0.78195245709E+02  0.11442118656E+03  0.00000000000E+00 0. -1.
          4    1    6    6  503    0 -0.23999646183E+03  0.11716788833E+03  0.36125371118E+03  0.44925589544E+03  0.00000000000E+00 0. -1.
         -4    1    6    6    0  503 -0.81526439004E+01  0.12072532840E+02 -0.28640915916E+01  0.14846368997E+02  0.00000000000E+00 0.  1.
<mgrwt>
<rscale>  0 0.26082953E+04</rscale>
<asrwt>0</asrwt>
<pdfrwt beam="1">  1        2 0.46320968E+00 0.26082953E+04</pdfrwt>
<pdfrwt beam="2">  1       -1 0.86905883E-01 0.26082953E+04</pdfrwt>
<totfact> 0.22470065E+00</totfact>
</mgrwt>
</event>
<event>
12    7  0.1572140E-007  0.1423252E+04  0.7818608E-02  0.8937157E-01
          2   -1    0    0  501    0  0.00000000000E+00  0.00000000000E+00  0.29820963839E+04  0.29820963839E+04  0.00000000000E+00 0. -1.
         -1   -1    0    0    0  501 -0.00000000000E+00 -0.00000000000E+00 -0.16981734338E+03  0.16981734338E+03  0.00000000000E+00 0.  1.
         24    2    1    2    0    0 -0.86480093643E+02 -0.40815671957E+03  0.83704194132E+03  0.93889309925E+03  0.82524699085E+02 0.  0.
        254    2    1    2    0    0  0.86480093643E+02  0.40815671957E+03  0.19752370992E+04  0.22130206280E+04  0.90654728929E+03 0.  0.
         23    2    4    4    0    0  0.30496625790E+03 -0.16346889486E+03  0.95132302356E+03  0.10166857770E+04  0.94382074119E+02 0.  0.
         23    2    4    4    0    0 -0.21848616426E+03  0.57162561443E+03  0.10239140756E+04  0.11963348510E+04  0.91241407830E+02 0.  0.
          2    1    3    3  502    0 -0.45810131972E+02 -0.35530300062E+03  0.69098304611E+03  0.77832921085E+03  0.00000000000E+00 0. -1.
         -3    1    3    3    0  502 -0.40669961671E+02 -0.52853718944E+02  0.14605889521E+03  0.16056388840E+03  0.00000000000E+00 0.  1.
         13    1    5    5    0    0  0.17991239935E+03 -0.45650280623E+02  0.45187041728E+03  0.48850720933E+03  0.00000000000E+00 0. -1.
        -13    1    5    5    0    0  0.12505385855E+03 -0.11781861424E+03  0.49945260629E+03  0.52817856765E+03  0.00000000000E+00 0.  1.
          3    1    6    6  503    0 -0.96086699505E+02  0.18277554297E+03  0.41535440220E+03  0.46385216648E+03  0.00000000000E+00 0. -1.
         -3    1    6    6    0  503 -0.12239946476E+03  0.38885007146E+03  0.60855967344E+03  0.73248268456E+03  0.00000000000E+00 0.  1.
<mgrwt>
<rscale>  0 0.14232522E+04</rscale>
<asrwt>0</asrwt>
<pdfrwt beam="1">  1        2 0.45878402E+00 0.14232522E+04</pdfrwt>
<pdfrwt beam="2">  1       -1 0.26125747E-01 0.14232522E+04</pdfrwt>
<totfact> 0.25888333E+01</totfact>
</mgrwt>
</event>
<event>
12    7  0.1572140E-007  0.2125599E+04  0.7818608E-02  0.8550050E-01
          2   -1    0    0  501    0  0.00000000000E+00  0.00000000000E+00  0.19720611674E+04  0.19720611674E+04  0.00000000000E+00 0. -1.
         -1   -1    0    0    0  501 -0.00000000000E+00 -0.00000000000E+00 -0.57277260133E+03  0.57277260133E+03  0.00000000000E+00 0.  1.
         24    2    1    2    0    0  0.28480349355E+03 -0.91219792238E+02  0.15531779257E+04  0.15836652477E+04  0.78739236477E+02 0.  0.
        254    2    1    2    0    0 -0.28480349355E+03  0.91219792238E+02 -0.15388935964E+03  0.96116852106E+03  0.90040485917E+03 0.  0.
         23    2    4    4    0    0  0.70308837605E+02 -0.34811852981E+03 -0.12832951651E+03  0.38835045880E+03  0.90651919997E+02 0.  0.
         23    2    4    4    0    0 -0.35511233116E+03  0.43933832205E+03 -0.25559843132E+02  0.57281806225E+03  0.91347128566E+02 0.  0.
          2    1    3    3  502    0  0.17398763130E+03 -0.91401063181E+02  0.90639207025E+03  0.92745481572E+03  0.00000000000E+00 0. -1.
         -1    1    3    3    0  502  0.11081586225E+03  0.18127094282E+00  0.64678585546E+03  0.65621043196E+03  0.00000000000E+00 0.  1.
         13    1    5    5    0    0 -0.58597167930E+01 -0.78344605335E+01 -0.21544245679E+02  0.23661563233E+02  0.00000000000E+00 0. -1.
        -13    1    5    5    0    0  0.76168554398E+02 -0.34028406928E+03 -0.10678527083E+03  0.36468889557E+03  0.00000000000E+00 0.  1.
          1    1    6    6  503    0 -0.16613628684E+03  0.24177646291E+03  0.26373749751E+02  0.29453811044E+03  0.00000000000E+00 0.  1.
         -1    1    6    6    0  503 -0.18897604432E+03  0.19756185914E+03 -0.51933592883E+02  0.27827995181E+03  0.00000000000E+00 0. -1.
<mgrwt>
<rscale>  0 0.21255988E+04</rscale>
<asrwt>0</asrwt>
<pdfrwt beam="1">  1        2 0.30339402E+00 0.21255988E+04</pdfrwt>
<pdfrwt beam="2">  1       -1 0.88118863E-01 0.21255988E+04</pdfrwt>
<totfact> 0.91734566E+00</totfact>
</mgrwt>
</event>
<event>
12    7  0.1572140E-007  0.2184537E+04  0.7818608E-02  0.8524892E-01
          2   -1    0    0  501    0  0.00000000000E+00  0.00000000000E+00  0.10532953579E+04  0.10532953579E+04  0.00000000000E+00 0. -1.
         -1   -1    0    0    0  501 -0.00000000000E+00 -0.00000000000E+00 -0.11326834844E+04  0.11326834844E+04  0.00000000000E+00 0.  1.
         24    2    1    2    0    0 -0.40913695771E+03  0.39450199645E+03  0.67214640162E+03  0.88398499575E+03  0.81386805613E+02 0.  0.
        254    2    1    2    0    0  0.40913695771E+03 -0.39450199645E+03 -0.75153452813E+03  0.13019938465E+04  0.89853155431E+03 0.  0.
         23    2    4    4    0    0  0.15605484926E+03 -0.60750297578E+03 -0.71655198055E+03  0.95665385445E+03  0.91251711408E+02 0.  0.
         23    2    4    4    0    0  0.25308210844E+03  0.21300097933E+03 -0.34982547583E+02  0.34533999209E+03  0.92822199355E+02 0.  0.
          4    1    3    3  502    0 -0.27691744426E+03  0.21923194918E+03  0.44419383556E+03  0.56749808989E+03  0.00000000000E+00 0. -1.
         -3    1    3    3    0  502 -0.13221951345E+03  0.17527004727E+03  0.22795256606E+03  0.31648690586E+03  0.00000000000E+00 0.  1.
         13    1    5    5    0    0  0.14195408088E+03 -0.58160698979E+03 -0.64907271128E+03  0.88301361041E+03  0.00000000000E+00 0.  1.
        -13    1    5    5    0    0  0.14100768384E+02 -0.25895985991E+02 -0.67479269276E+02  0.73640244034E+02  0.00000000000E+00 0. -1.
          3    1    6    6  503    0  0.11584398843E+03  0.12120119876E+03 -0.60557559654E+02  0.17826042261E+03  0.00000000000E+00 0. -1.
         -3    1    6    6    0  503  0.13723812001E+03  0.91799780566E+02  0.25575012071E+02  0.16707956948E+03  0.00000000000E+00 0.  1.
<mgrwt>
<rscale>  0 0.21845368E+04</rscale>
<asrwt>0</asrwt>
<pdfrwt beam="1">  1        2 0.16204544E+00 0.21845368E+04</pdfrwt>
<pdfrwt beam="2">  1       -1 0.17425900E+00 0.21845368E+04</pdfrwt>
<totfact> 0.55684065E+00</totfact>
</mgrwt>
</event>
<event>
12    7  0.1572140E-007  0.2243837E+04  0.7818608E-02  0.8500400E-01
          2   -1    0    0  501    0  0.00000000000E+00  0.00000000000E+00  0.15899117930E+04  0.15899117930E+04  0.00000000000E+00 0. -1.
         -1   -1    0    0    0  501 -0.00000000000E+00 -0.00000000000E+00 -0.79168006015E+03  0.79168006015E+03  0.00000000000E+00 0.  1.
         24    2    1    2    0    0 -0.56529713314E+03 -0.16279845009E+03  0.11096340331E+04  0.12583582520E+04  0.78189634040E+02 0.  0.
        254    2    1    2    0    0  0.56529713314E+03  0.16279845009E+03 -0.31140230022E+03  0.11232336012E+04  0.90477519096E+03 0.  0.
         23    2    4    4    0    0  0.46681294023E+03  0.31324686844E+03  0.17586886628E+03  0.59623941957E+03  0.92377841377E+02 0.  0.
         23    2    4    4    0    0  0.98484192911E+02 -0.15044841835E+03 -0.48727116650E+03  0.52699418162E+03  0.89195375017E+02 0.  0.
          4    1    3    3  502    0 -0.54430412178E+03 -0.14251922836E+03  0.10319558518E+04  0.11753772107E+04  0.00000000000E+00 0. -1.
         -3    1    3    3    0  502 -0.20993011354E+02 -0.20279221726E+02  0.77678181290E+02  0.82981041256E+02  0.00000000000E+00 0.  1.
         13    1    5    5    0    0  0.16046685395E+03  0.11702567243E+03  0.10830626975E+03  0.22621862720E+03  0.00000000000E+00 0. -1.
        -13    1    5    5    0    0  0.30634608628E+03  0.19622119601E+03  0.67562596530E+02  0.37002079238E+03  0.00000000000E+00 0.  1.
          4    1    6    6  503    0  0.88083538705E+02 -0.54816260837E+02 -0.27594702860E+03  0.29480552037E+03  0.00000000000E+00 0. -1.
         -4    1    6    6    0  503  0.10400654206E+02 -0.95632157514E+02 -0.21132413789E+03  0.23218866125E+03  0.00000000000E+00 0.  1.
<mgrwt>
<rscale>  0 0.22438373E+04</rscale>
<asrwt>0</asrwt>
<pdfrwt beam="1">  1        2 0.24460181E+00 0.22438373E+04</pdfrwt>
<pdfrwt beam="2">  1       -1 0.12179693E+00 0.22438373E+04</pdfrwt>
<totfact> 0.69950501E+00</totfact>
</mgrwt>
</event>
<event>
12    7  0.1572140E-007  0.1719707E+04  0.7818608E-02  0.8750204E-01
          2   -1    0    0  501    0  0.00000000000E+00  0.00000000000E+00  0.36280564656E+04  0.36280564656E+04  0.00000000000E+00 0. -1.
         -1   -1    0    0    0  501 -0.00000000000E+00 -0.00000000000E+00 -0.20378618927E+03  0.20378618927E+03  0.00000000000E+00 0.  1.
         24    2    1    2    0    0 -0.12750701173E+03  0.37916621771E+03  0.23019250132E+04  0.23378202734E+04  0.80745313704E+02 0.  0.
        254    2    1    2    0    0  0.12750701173E+03 -0.37916621771E+03  0.11223452631E+04  0.14940223815E+04  0.90134284704E+03 0.  0.
         23    2    4    4    0    0  0.10698950709E+03 -0.23900810502E+03 -0.73424129821E+02  0.28648487934E+03  0.90060281794E+02 0.  0.
         23    2    4    4    0    0  0.20517504641E+02 -0.14015811268E+03  0.11957693930E+04  0.12075375021E+04  0.90648294690E+02 0.  0.
          2    1    3    3  502    0 -0.13095314969E+03  0.30136780521E+03  0.17727570655E+04  0.18029528265E+04  0.00000000000E+00 0. -1.
         -1    1    3    3    0  502  0.34461379605E+01  0.77798412494E+02  0.52916794777E+03  0.53486744695E+03  0.00000000000E+00 0.  1.
         13    1    5    5    0    0  0.51615908519E+02 -0.27954266927E+02 -0.16952806908E+02  0.61098614663E+02  0.00000000000E+00 0.  1.
        -13    1    5    5    0    0  0.55373598572E+02 -0.21105383810E+03 -0.56471322913E+02  0.22538626468E+03  0.00000000000E+00 0. -1.
          2    1    6    6  503    0  0.50297641749E+02 -0.44710187519E+02  0.54317277432E+03  0.54732578634E+03  0.00000000000E+00 0. -1.
         -2    1    6    6    0  503 -0.29780137108E+02 -0.95447925165E+02  0.65259661864E+03  0.66021171578E+03  0.00000000000E+00 0.  1.
<mgrwt>
<rscale>  0 0.17197067E+04</rscale>
<asrwt>0</asrwt>
<pdfrwt beam="1">  1        2 0.55816249E+00 0.17197067E+04</pdfrwt>
<pdfrwt beam="2">  1       -1 0.31351724E-01 0.17197067E+04</pdfrwt>
<totfact> 0.68050542E+00</totfact>
</mgrwt>
</event>
<event>
12    7  0.1572140E-007  0.1435588E+04  0.7818608E-02  0.8928454E-01
         -1   -1    0    0    0  501 -0.00000000000E+00  0.00000000000E+00  0.83452879584E+03  0.83452879584E+03  0.00000000000E+00 0.  1.
          2   -1    0    0  501    0  0.00000000000E+00 -0.00000000000E+00 -0.61738792466E+03  0.61738792466E+03  0.00000000000E+00 0. -1.
         24    2    1    2    0    0  0.29473006549E+00  0.21912179513E+03  0.44006306994E+03  0.49765027332E+03  0.77368217259E+02 0.  0.
        254    2    1    2    0    0 -0.29473006549E+00 -0.21912179513E+03 -0.22292219877E+03  0.95426644718E+03  0.90161837689E+03 0.  0.
         23    2    4    4    0    0  0.42863561841E+03 -0.13125378605E+03 -0.26181639790E+01  0.45613923065E+03  0.84262050945E+02 0.  0.
         23    2    4    4    0    0 -0.42893034848E+03 -0.87868009079E+02 -0.22030403479E+03  0.49812721654E+03  0.88852829135E+02 0.  0.
          4    1    3    3  502    0 -0.23193674688E+02  0.17060270128E+02  0.48610848053E+02  0.56497910677E+02  0.00000000000E+00 0. -1.
         -3    1    3    3    0  502  0.23488404754E+02  0.20206152500E+03  0.39145222189E+03  0.44115236264E+03  0.00000000000E+00 0.  1.
         13    1    5    5    0    0  0.10381388475E+03 -0.57387513900E+02  0.27181786409E+02  0.12169428471E+03  0.00000000000E+00 0. -1.
        -13    1    5    5    0    0  0.32482173366E+03 -0.73866272153E+02 -0.29799950388E+02  0.33444494594E+03  0.00000000000E+00 0.  1.
          3    1    6    6  503    0 -0.23611931209E+02  0.11419515139E+02 -0.28886861635E+02  0.39017680564E+02  0.00000000000E+00 0. -1.
         -3    1    6    6    0  503 -0.40531841727E+03 -0.99287524219E+02 -0.19141717315E+03  0.45910953597E+03  0.00000000000E+00 0.  1.
<mgrwt>
<rscale>  0 0.14355877E+04</rscale>
<asrwt>0</asrwt>
<pdfrwt beam="1">  1        2 0.94982758E-01 0.14355877E+04</pdfrwt>
<pdfrwt beam="2">  1       -1 0.12838905E+00 0.14355877E+04</pdfrwt>
<totfact> 0.27817082E+01</totfact>
</mgrwt>
</event>
<event>
12    7  0.1572140E-007  0.1480056E+04  0.7818608E-02  0.8897825E-01
         -1   -1    0    0    0  501 -0.00000000000E+00  0.00000000000E+00  0.57771968592E+03  0.57771968592E+03  0.00000000000E+00 0.  1.
          2   -1    0    0  501    0  0.00000000000E+00 -0.00000000000E+00 -0.94793682456E+03  0.94793682456E+03  0.00000000000E+00 0. -1.
         24    2    1    2    0    0  0.52821437714E+02 -0.40205323599E+03 -0.35096180433E+03  0.54221572134E+03  0.79917404293E+02 0.  0.
        254    2    1    2    0    0 -0.52821437714E+02  0.40205323599E+03 -0.19255334309E+02  0.98344078914E+03  0.89573886206E+03 0.  0.
         23    2    4    4    0    0 -0.25221040265E+03  0.44026422456E+03  0.29916786821E+03  0.59548390750E+03  0.87504263277E+02 0.  0.
         23    2    4    4    0    0  0.19938896493E+03 -0.38210988572E+02 -0.31842320252E+03  0.38795688164E+03  0.88888509544E+02 0.  0.
          2    1    3    3  502    0  0.67840223822E+02 -0.37010587655E+03 -0.33366448276E+03  0.50290420846E+03  0.00000000000E+00 0. -1.
         -1    1    3    3    0  502 -0.15018786108E+02 -0.31947359439E+02 -0.17297321573E+02  0.39311512880E+02  0.00000000000E+00 0.  1.
         13    1    5    5    0    0 -0.24964700622E+03  0.40127912910E+03  0.29266009919E+03  0.55587633591E+03  0.00000000000E+00 0.  1.
        -13    1    5    5    0    0 -0.25633964232E+01  0.38985095468E+02  0.65077690134E+01  0.39607571592E+02  0.00000000000E+00 0. -1.
          4    1    6    6  503    0  0.34207941887E+02 -0.19572874312E+02 -0.13399548295E+03  0.13967129321E+03  0.00000000000E+00 0. -1.
         -4    1    6    6    0  503  0.16518102305E+03 -0.18638114260E+02 -0.18442771957E+03  0.24828558843E+03  0.00000000000E+00 0.  1.
<mgrwt>
<rscale>  0 0.14800564E+04</rscale>
<asrwt>0</asrwt>
<pdfrwt beam="1">  1        2 0.14583643E+00 0.14800564E+04</pdfrwt>
<pdfrwt beam="2">  1       -1 0.88879953E-01 0.14800564E+04</pdfrwt>
<totfact> 0.37353899E+01</totfact>
</mgrwt>
</event>
<event>
12    7  0.1572140E-007  0.2113478E+04  0.7818608E-02  0.8555329E-01
         -1   -1    0    0    0  501 -0.00000000000E+00  0.00000000000E+00  0.76140770626E+03  0.76140770626E+03  0.00000000000E+00 0.  1.
          2   -1    0    0  501    0  0.00000000000E+00 -0.00000000000E+00 -0.14666216325E+04  0.14666216325E+04  0.00000000000E+00 0. -1.
         24    2    1    2    0    0  0.27829996695E+03 -0.50838476244E+03  0.39209685543E+03  0.70425592556E+03  0.79564604980E+02 0.  0.
        254    2    1    2    0    0 -0.27829996695E+03  0.50838476244E+03 -0.10973107816E+04  0.15237734132E+04  0.88424460695E+03 0.  0.
         23    2    4    4    0    0 -0.15517939355E+03  0.74586708310E+03 -0.70370823585E+03  0.10411907127E+04  0.92056879533E+02 0.  0.
         23    2    4    4    0    0 -0.12312057340E+03 -0.23748232066E+03 -0.39360254579E+03  0.48258270053E+03  0.80041055551E+02 0.  0.
          2    1    3    3  502    0  0.12999009991E+03 -0.19728202311E+03  0.20090820553E+03  0.31013179419E+03  0.00000000000E+00 0. -1.
         -3    1    3    3    0  502  0.14830986704E+03 -0.31110273933E+03  0.19118864989E+03  0.39412413137E+03  0.00000000000E+00 0.  1.
         13    1    5    5    0    0 -0.21793029194E+02  0.20748032632E+03 -0.24197332369E+03  0.31949039314E+03  0.00000000000E+00 0. -1.
        -13    1    5    5    0    0 -0.13338636436E+03  0.53838675678E+03 -0.46173491216E+03  0.72170031951E+03  0.00000000000E+00 0.  1.
          3    1    6    6  503    0 -0.48105528120E+02 -0.33635868522E+02 -0.55909719194E+02  0.81064234945E+02  0.00000000000E+00 0. -1.
         -3    1    6    6    0  503 -0.75015045285E+02 -0.20384645214E+03 -0.33769282660E+03  0.40151846559E+03  0.00000000000E+00 0.  1.
<mgrwt>
<rscale>  0 0.21134777E+04</rscale>
<asrwt>0</asrwt>
<pdfrwt beam="1">  1        2 0.22563410E+00 0.21134777E+04</pdfrwt>
<pdfrwt beam="2">  1       -1 0.11713965E+00 0.21134777E+04</pdfrwt>
<totfact> 0.91306863E+00</totfact>
</mgrwt>
</event>
<event>
12    7  0.1572140E-007  0.1583914E+04  0.7818608E-02  0.8830492E-01
         -1   -1    0    0    0  501 -0.00000000000E+00  0.00000000000E+00  0.68122842426E+03  0.68122842426E+03  0.00000000000E+00 0.  1.
          2   -1    0    0  501    0  0.00000000000E+00 -0.00000000000E+00 -0.92068355657E+03  0.92068355657E+03  0.00000000000E+00 0. -1.
         24    2    1    2    0    0 -0.94851260674E+02 -0.17053225581E+03  0.42030986242E+03  0.47005326478E+03  0.78814207813E+02 0.  0.
        254    2    1    2    0    0  0.94851260674E+02  0.17053225581E+03 -0.65976499474E+03  0.11318587161E+04  0.89874150505E+03 0.  0.
         23    2    4    4    0    0  0.45907286614E+03  0.20183205771E+03 -0.52623533256E+03  0.73250287171E+03  0.90292612591E+02 0.  0.
         23    2    4    4    0    0 -0.36422160546E+03 -0.31299801896E+02 -0.13352966218E+03  0.39935584435E+03  0.89542527580E+02 0.  0.
          4    1    3    3  502    0  0.10724166380E+01 -0.11252068722E+02  0.97501838716E+00  0.11345033663E+02  0.00000000000E+00 0. -1.
         -3    1    3    3    0  502 -0.95923677312E+02 -0.15928018709E+03  0.41933484404E+03  0.45870823111E+03  0.00000000000E+00 0.  1.
         13    1    5    5    0    0  0.22520629976E+03  0.80319453279E+02 -0.19068645118E+03  0.30582742632E+03  0.00000000000E+00 0.  1.
        -13    1    5    5    0    0  0.23386656638E+03  0.12151260443E+03 -0.33554888137E+03  0.42667544538E+03  0.00000000000E+00 0. -1.
          3    1    6    6  503    0 -0.78737745611E+02 -0.33559454481E+02 -0.35450133778E+01  0.85664675852E+02  0.00000000000E+00 0. -1.
         -3    1    6    6    0  503 -0.28548385985E+03  0.22596525854E+01 -0.12998464881E+03  0.31369116849E+03  0.00000000000E+00 0.  1.
<mgrwt>
<rscale>  0 0.15839139E+04</rscale>
<asrwt>0</asrwt>
<pdfrwt beam="1">  1        2 0.14164362E+00 0.15839139E+04</pdfrwt>
<pdfrwt beam="2">  1       -1 0.10480437E+00 0.15839139E+04</pdfrwt>
<totfact> 0.26610557E+01</totfact>
</mgrwt>
</event>
<event>
12    7  0.1572140E-007  0.3443490E+04  0.7818608E-02  0.8127314E-01
         -1   -1    0    0    0  501 -0.00000000000E+00  0.00000000000E+00  0.89902401573E+03  0.89902401573E+03  0.00000000000E+00 0.  1.
          2   -1    0    0  501    0  0.00000000000E+00 -0.00000000000E+00 -0.32973602561E+04  0.32973602561E+04  0.00000000000E+00 0. -1.
         24    2    1    2    0    0  0.98730481495E+02  0.97686679476E+03 -0.26613901544E+04  0.28377598217E+04  0.76595098265E+02 0.  0.
        254    2    1    2    0    0 -0.98730481495E+02 -0.97686679476E+03  0.26305391402E+03  0.13586244501E+04  0.90146912989E+03 0.  0.
         23    2    4    4    0    0 -0.43014230089E+03 -0.24212584595E+03 -0.13048606619E+02  0.50152930815E+03  0.87829701727E+02 0.  0.
         23    2    4    4    0    0  0.33141181940E+03 -0.73474094882E+03  0.27610252063E+03  0.85709514199E+03  0.93281426965E+02 0.  0.
          2    1    3    3  502    0  0.74757684891E+02  0.83720623606E+03 -0.22000746164E+04  0.23551711850E+04  0.00000000000E+00 0. -1.
         -1    1    3    3    0  502  0.23972796604E+02  0.13966055870E+03 -0.46131553800E+03  0.48258863666E+03  0.00000000000E+00 0.  1.
         13    1    5    5    0    0 -0.17458092842E+02 -0.35077576621E+02  0.47901053559E+01  0.39473617729E+02  0.00000000000E+00 0. -1.
        -13    1    5    5    0    0 -0.41268420805E+03 -0.20704826933E+03 -0.17838711974E+02  0.46205569042E+03  0.00000000000E+00 0.  1.
          3    1    6    6  503    0  0.37456538646E+01 -0.22905470622E+02 -0.64381173577E+01  0.24086092718E+02  0.00000000000E+00 0. -1.
         -3    1    6    6    0  503  0.32766616553E+03 -0.71183547819E+03  0.28254063799E+03  0.83300904927E+03  0.00000000000E+00 0.  1.
<mgrwt>
<rscale>  0 0.34434901E+04</rscale>
<asrwt>0</asrwt>
<pdfrwt beam="1">  1        2 0.50728619E+00 0.34434901E+04</pdfrwt>
<pdfrwt beam="2">  1       -1 0.13831139E+00 0.34434901E+04</pdfrwt>
<totfact> 0.45297717E-01</totfact>
</mgrwt>
</event>
<event>
12    7  0.1572140E-007  0.1619425E+04  0.7818608E-02  0.8808702E-01
         -1   -1    0    0    0  501 -0.00000000000E+00  0.00000000000E+00  0.11995120673E+04  0.11995120673E+04  0.00000000000E+00 0.  1.
          2   -1    0    0  501    0  0.00000000000E+00 -0.00000000000E+00 -0.54658441798E+03  0.54658441798E+03  0.00000000000E+00 0. -1.
         24    2    1    2    0    0  0.69597648692E+02 -0.14619957405E+03 -0.34708123834E+03  0.39118323868E+03  0.79629090508E+02 0.  0.
        254    2    1    2    0    0 -0.69597648692E+02  0.14619957405E+03  0.10000088877E+04  0.13549132466E+04  0.89975217827E+03 0.  0.
         23    2    4    4    0    0  0.17540668882E+03  0.43810043777E+03  0.34415429103E+03  0.59093514446E+03  0.89792365277E+02 0.  0.
         23    2    4    4    0    0 -0.24500433751E+03 -0.29190086372E+03  0.65585459666E+03  0.76397810218E+03  0.91016751271E+02 0.  0.
          2    1    3    3  502    0  0.86450268038E+01 -0.10811466015E+03 -0.20206545492E+03  0.22933373999E+03  0.00000000000E+00 0. -1.
         -1    1    3    3    0  502  0.60952621888E+02 -0.38084913906E+02 -0.14501578342E+03  0.16184949869E+03  0.00000000000E+00 0.  1.
         13    1    5    5    0    0 -0.10092339013E+02  0.27605753755E+02  0.14776760410E+02  0.32898109298E+02  0.00000000000E+00 0. -1.
        -13    1    5    5    0    0  0.18549902783E+03  0.41049468402E+03  0.32937753062E+03  0.55803703516E+03  0.00000000000E+00 0.  1.
          3    1    6    6  503    0 -0.15754824816E+03 -0.17109714640E+03  0.31181422553E+03  0.38900359285E+03  0.00000000000E+00 0. -1.
         -3    1    6    6    0  503 -0.87456089353E+02 -0.12080371732E+03  0.34404037114E+03  0.37497450934E+03  0.00000000000E+00 0.  1.
<mgrwt>
<rscale>  0 0.16194253E+04</rscale>
<asrwt>0</asrwt>
<pdfrwt beam="1">  1        2 0.84089911E-01 0.16194253E+04</pdfrwt>
<pdfrwt beam="2">  1       -1 0.18454032E+00 0.16194253E+04</pdfrwt>
<totfact> 0.11718147E+01</totfact>
</mgrwt>
</event>
<event>
12    7  0.1572140E-007  0.1697908E+04  0.7818608E-02  0.8762558E-01
         -1   -1    0    0    0  501 -0.00000000000E+00  0.00000000000E+00  0.33899297673E+03  0.33899297673E+03  0.00000000000E+00 0.  1.
          2   -1    0    0  501    0  0.00000000000E+00 -0.00000000000E+00 -0.21260705473E+04  0.21260705473E+04  0.00000000000E+00 0. -1.
         24    2    1    2    0    0 -0.14821331370E+02 -0.36327268096E+03 -0.13035023598E+04  0.13562554094E+04  0.90131131620E+02 0.  0.
        254    2    1    2    0    0  0.14821331370E+02  0.36327268096E+03 -0.48357521075E+03  0.11088081146E+04  0.92920597179E+03 0.  0.
         23    2    4    4    0    0 -0.26497431806E+03  0.56719862411E+03 -0.24710013417E+03  0.67960789700E+03  0.94248336446E+02 0.  0.
         23    2    4    4    0    0  0.27979564943E+03 -0.20392594316E+03 -0.23647507658E+03  0.42920021763E+03  0.91765839146E+02 0.  0.
          2    1    3    3  502    0  0.29045930263E+02 -0.26868050189E+03 -0.92914300383E+03  0.96764642289E+03  0.00000000000E+00 0. -1.
         -1    1    3    3    0  502 -0.43867261633E+02 -0.94592179067E+02 -0.37435935600E+03  0.38860898653E+03  0.00000000000E+00 0.  1.
         13    1    5    5    0    0 -0.17708367556E+03  0.30253288872E+03 -0.17374383084E+03  0.39124378035E+03  0.00000000000E+00 0. -1.
        -13    1    5    5    0    0 -0.87890642504E+02  0.26466573539E+03 -0.73356303330E+02  0.28836411665E+03  0.00000000000E+00 0.  1.
          3    1    6    6  503    0  0.61569783250E+02 -0.31743941398E+01 -0.39601841318E+02  0.73274967236E+02  0.00000000000E+00 0. -1.
         -3    1    6    6    0  503  0.21822586618E+03 -0.20075154902E+03 -0.19687323526E+03  0.35592525039E+03  0.00000000000E+00 0.  1.
<mgrwt>
<rscale>  0 0.16979081E+04</rscale>
<asrwt>0</asrwt>
<pdfrwt beam="1">  1        2 0.32708777E+00 0.16979081E+04</pdfrwt>
<pdfrwt beam="2">  1       -1 0.52152766E-01 0.16979081E+04</pdfrwt>
<totfact> 0.22809715E+01</totfact>
</mgrwt>
</event>
<event>
12    7  0.1572140E-007  0.1528857E+04  0.7818608E-02  0.8865487E-01
         -1   -1    0    0    0  501 -0.00000000000E+00  0.00000000000E+00  0.22666170686E+03  0.22666170686E+03  0.00000000000E+00 0.  1.
          2   -1    0    0  501    0  0.00000000000E+00 -0.00000000000E+00 -0.25780768732E+04  0.25780768732E+04  0.00000000000E+00 0. -1.
         24    2    1    2    0    0  0.35380903789E+01  0.24654674672E+03  0.15919552212E+02  0.25996491541E+03  0.80811562895E+02 0.  0.
        254    2    1    2    0    0 -0.35380903789E+01 -0.24654674672E+03 -0.23673347185E+04  0.25447736646E+04  0.90044517783E+03 0.  0.
         23    2    4    4    0    0  0.31956659854E+03  0.16743041127E+03 -0.68901053966E+03  0.78384684204E+03  0.97594028942E+02 0.  0.
         23    2    4    4    0    0 -0.32310468892E+03 -0.41397715799E+03 -0.16783241788E+04  0.17609268226E+04  0.91200317197E+02 0.  0.
          4    1    3    3  502    0 -0.38565739929E+02  0.11562467895E+03  0.45862088233E+01  0.12197301337E+03  0.00000000000E+00 0. -1.
         -3    1    3    3    0  502  0.42103830308E+02  0.13092206777E+03  0.11333343389E+02  0.13799190204E+03  0.00000000000E+00 0.  1.
         13    1    5    5    0    0  0.59594880059E+02  0.24572182218E+02 -0.21692252618E+03  0.22629786617E+03  0.00000000000E+00 0.  1.
        -13    1    5    5    0    0  0.25997171848E+03  0.14285822905E+03 -0.47208801348E+03  0.55754897587E+03  0.00000000000E+00 0. -1.
          1    1    6    6  503    0 -0.13624809190E+03 -0.10745654134E+03 -0.58294923401E+03  0.60822714528E+03  0.00000000000E+00 0. -1.
         -1    1    6    6    0  503 -0.18685659702E+03 -0.30652061664E+03 -0.10953749448E+04  0.11526996773E+04  0.00000000000E+00 0.  1.
<mgrwt>
<rscale>  0 0.15288575E+04</rscale>
<asrwt>0</asrwt>
<pdfrwt beam="1">  1        2 0.39662722E+00 0.15288575E+04</pdfrwt>
<pdfrwt beam="2">  1       -1 0.34871031E-01 0.15288575E+04</pdfrwt>
<totfact> 0.26968451E+01</totfact>
</mgrwt>
</event>
<event>
12    7  0.1572140E-007  0.1739328E+04  0.7818608E-02  0.8739247E-01
         -1   -1    0    0    0  501 -0.00000000000E+00  0.00000000000E+00  0.31106491772E+03  0.31106491772E+03  0.00000000000E+00 0.  1.
          2   -1    0    0  501    0  0.00000000000E+00 -0.00000000000E+00 -0.24313736893E+04  0.24313736893E+04  0.00000000000E+00 0. -1.
         24    2    1    2    0    0 -0.51031081322E+02  0.61270263451E+03 -0.53635579103E+03  0.81947172607E+03  0.76470161951E+02 0.  0.
        254    2    1    2    0    0  0.51031081322E+02 -0.61270263451E+03 -0.15839529805E+04  0.19229668809E+04  0.90049202716E+03 0.  0.
         23    2    4    4    0    0 -0.11287157306E+03 -0.17456337462E+03 -0.13896105109E+04  0.14080857874E+04  0.92064373463E+02 0.  0.
         23    2    4    4    0    0  0.16390265439E+03 -0.43813925989E+03 -0.19434246965E+03  0.51488109355E+03  0.92214173606E+02 0.  0.
          4    1    3    3  502    0 -0.82819307861E+01  0.16697233335E+03 -0.10315210432E+03  0.19644008528E+03  0.00000000000E+00 0. -1.
         -3    1    3    3    0  502 -0.42749150536E+02  0.44573030116E+03 -0.43320368671E+03  0.62303164079E+03  0.00000000000E+00 0.  1.
         13    1    5    5    0    0 -0.81321463611E+02 -0.10720027541E+03 -0.11314376331E+04  0.11394104603E+04  0.00000000000E+00 0. -1.
        -13    1    5    5    0    0 -0.31550109453E+02 -0.67363099205E+02 -0.25817287783E+03  0.26867532709E+03  0.00000000000E+00 0.  1.
          1    1    6    6  503    0  0.60245777479E+02 -0.23088177752E+03 -0.56359847893E+02  0.24517826443E+03  0.00000000000E+00 0. -1.
         -1    1    6    6    0  503  0.10365687691E+03 -0.20725748238E+03 -0.13798262175E+03  0.26970282912E+03  0.00000000000E+00 0.  1.
<mgrwt>
<rscale>  0 0.17393275E+04</rscale>
<asrwt>0</asrwt>
<pdfrwt beam="1">  1        2 0.37405750E+00 0.17393275E+04</pdfrwt>
<pdfrwt beam="2">  1       -1 0.47856140E-01 0.17393275E+04</pdfrwt>
<totfact> 0.17991944E+01</totfact>
</mgrwt>
</event>
<event>
12    7  0.1572140E-007  0.3235008E+04  0.7818608E-02  0.8179632E-01
         -1   -1    0    0    0  501 -0.00000000000E+00  0.00000000000E+00  0.91312195379E+03  0.91312195379E+03  0.00000000000E+00 0.  1.
          2   -1    0    0  501    0  0.00000000000E+00 -0.00000000000E+00 -0.28652456055E+04  0.28652456055E+04  0.00000000000E+00 0. -1.
         24    2    1    2    0    0 -0.57455905693E+03 -0.59177226683E+03  0.55123400558E+03  0.99519953031E+03  0.79061055688E+02 0.  0.
        254    2    1    2    0    0  0.57455905693E+03  0.59177226683E+03 -0.25033576573E+04  0.27831680290E+04  0.89381888074E+03 0.  0.
         23    2    4    4    0    0  0.78800184093E+02 -0.63366997399E+02 -0.13891021901E+04  0.13956640515E+04  0.89712901646E+02 0.  0.
         23    2    4    4    0    0  0.49575887284E+03  0.65513926423E+03 -0.11142554671E+04  0.13875039774E+04  0.92831707103E+02 0.  0.
          4    1    3    3  502    0 -0.40873282682E+02 -0.68665285138E+02  0.36983966548E+02  0.88053168040E+02  0.00000000000E+00 0. -1.
         -3    1    3    3    0  502 -0.53368577425E+03 -0.52310698169E+03  0.51425003903E+03  0.90714636227E+03  0.00000000000E+00 0.  1.
         13    1    5    5    0    0 -0.11300375947E+02 -0.34827748572E+02 -0.55920530468E+03  0.56040275102E+03  0.00000000000E+00 0. -1.
        -13    1    5    5    0    0  0.90100560040E+02 -0.28539248827E+02 -0.82989688543E+03  0.83526130049E+03  0.00000000000E+00 0.  1.
          3    1    6    6  503    0  0.16584801225E+03  0.15887208059E+03 -0.34441695224E+03  0.41396731532E+03  0.00000000000E+00 0. -1.
         -3    1    6    6    0  503  0.32991086059E+03  0.49626718364E+03 -0.76983851489E+03  0.97353666213E+03  0.00000000000E+00 0.  1.
<mgrwt>
<rscale>  0 0.32350077E+04</rscale>
<asrwt>0</asrwt>
<pdfrwt beam="1">  1        2 0.44080702E+00 0.32350077E+04</pdfrwt>
<pdfrwt beam="2">  1       -1 0.14048030E+00 0.32350077E+04</pdfrwt>
<totfact> 0.83565753E-01</totfact>
</mgrwt>
</event>
<event>
12    7  0.1572140E-007  0.1348748E+04  0.7818608E-02  0.8991776E-01
         -1   -1    0    0    0  501 -0.00000000000E+00  0.00000000000E+00  0.24449391036E+03  0.24449391036E+03  0.00000000000E+00 0.  1.
          2   -1    0    0  501    0  0.00000000000E+00 -0.00000000000E+00 -0.18600895187E+04  0.18600895187E+04  0.00000000000E+00 0. -1.
         24    2    1    2    0    0  0.32290573222E+03 -0.77149651133E+02 -0.15695426216E+03  0.37576652200E+03  0.79659638915E+02 0.  0.
        254    2    1    2    0    0 -0.32290573222E+03  0.77149651133E+02 -0.14586413461E+04  0.17288169070E+04  0.86657552515E+03 0.  0.
         23    2    4    4    0    0 -0.20088861694E+03  0.45577617675E+03 -0.65942912075E+03  0.83136509575E+03  0.90735866210E+02 0.  0.
         23    2    4    4    0    0 -0.12201711528E+03 -0.37862652562E+03 -0.79921222540E+03  0.89745181129E+03  0.91833273065E+02 0.  0.
          2    1    3    3  502    0  0.56327204591E+02  0.14280545616E+02 -0.40507629595E+02  0.70834709116E+02  0.00000000000E+00 0. -1.
         -1    1    3    3    0  502  0.26657852763E+03 -0.91430196749E+02 -0.11644663256E+03  0.30493181288E+03  0.00000000000E+00 0.  1.
         13    1    5    5    0    0 -0.19918258350E+03  0.42504794666E+03 -0.57979093002E+03  0.74598725261E+03  0.00000000000E+00 0. -1.
        -13    1    5    5    0    0 -0.17060334479E+01  0.30728230089E+02 -0.79638190736E+02  0.85377843134E+02  0.00000000000E+00 0.  1.
          4    1    6    6  503    0 -0.79562974824E+02 -0.10949115592E+03 -0.28548958668E+03  0.31594759738E+03  0.00000000000E+00 0.  1.
         -4    1    6    6    0  503 -0.42454140452E+02 -0.26913536970E+03 -0.51372263871E+03  0.58150421391E+03  0.00000000000E+00 0. -1.
<mgrwt>
<rscale>  0 0.13487484E+04</rscale>
<asrwt>0</asrwt>
<pdfrwt beam="1">  1        2 0.28616763E+00 0.13487484E+04</pdfrwt>
<pdfrwt beam="2">  1       -1 0.37614446E-01 0.13487484E+04</pdfrwt>
<totfact> 0.60606233E+01</totfact>
</mgrwt>
</event>
<event>
12    7  0.1572140E-007  0.2076676E+04  0.7818608E-02  0.8571588E-01
          2   -1    0    0  501    0  0.00000000000E+00  0.00000000000E+00  0.18914687429E+04  0.18914687429E+04  0.00000000000E+00 0. -1.
         -1   -1    0    0    0  501 -0.00000000000E+00 -0.00000000000E+00 -0.57000449470E+03  0.57000449470E+03  0.00000000000E+00 0.  1.
         24    2    1    2    0    0  0.44063765312E+02 -0.54310282313E+03 -0.22118661987E+03  0.59363197352E+03  0.81074701831E+02 0.  0.
        254    2    1    2    0    0 -0.44063765312E+02  0.54310282313E+03  0.15426508681E+04  0.18678412641E+04  0.90119753392E+03 0.  0.
         23    2    4    4    0    0 -0.13654547706E+03  0.75191323425E+03  0.92795535677E+03  0.12056060690E+04  0.91469504184E+02 0.  0.
         23    2    4    4    0    0  0.92481711750E+02 -0.20881041112E+03  0.61469551130E+03  0.66223519513E+03  0.92467438887E+02 0.  0.
          2    1    3    3  502    0  0.74958718993E+00 -0.88015896026E+02 -0.68937077258E+02  0.11180196982E+03  0.00000000000E+00 0. -1.
         -1    1    3    3    0  502  0.43314178122E+02 -0.45508692710E+03 -0.15224954261E+03  0.48183000370E+03  0.00000000000E+00 0.  1.
         13    1    5    5    0    0 -0.34325332823E+02  0.12770266218E+03  0.11267533221E+03  0.17372947041E+03  0.00000000000E+00 0. -1.
        -13    1    5    5    0    0 -0.10222014424E+03  0.62421057207E+03  0.81528002456E+03  0.10318765985E+04  0.00000000000E+00 0.  1.
          4    1    6    6  503    0  0.66300878293E+02 -0.20809628799E+03  0.57030350911E+03  0.61069301948E+03  0.00000000000E+00 0.  1.
         -4    1    6    6    0  503  0.26180833457E+02 -0.71412313425E+00  0.44392002188E+02  0.51542175649E+02  0.00000000000E+00 0. -1.
<mgrwt>
<rscale>  0 0.20766759E+04</rscale>
<asrwt>0</asrwt>
<pdfrwt beam="1">  1        2 0.29099519E+00 0.20766759E+04</pdfrwt>
<pdfrwt beam="2">  1       -1 0.87693000E-01 0.20766759E+04</pdfrwt>
<totfact> 0.10321102E+01</totfact>
</mgrwt>
</event>
<event>
12    7  0.1572140E-007  0.3746853E+04  0.7818608E-02  0.8057657E-01
          2   -1    0    0  501    0  0.00000000000E+00  0.00000000000E+00  0.23481043619E+04  0.23481043619E+04  0.00000000000E+00 0. -1.
         -1   -1    0    0    0  501 -0.00000000000E+00 -0.00000000000E+00 -0.14947067752E+04  0.14947067752E+04  0.00000000000E+00 0.  1.
         24    2    1    2    0    0  0.14493431084E+04  0.34452339478E+03  0.13699175469E+04  0.20254108914E+04  0.79519671067E+02 0.  0.
        254    2    1    2    0    0 -0.14493431084E+04 -0.34452339478E+03 -0.51651996017E+03  0.18174002457E+04  0.90380250513E+03 0.  0.
         23    2    4    4    0    0 -0.12506473988E+04  0.69593854109E+01 -0.60575741931E+03  0.13926580980E+04  0.91581535543E+02 0.  0.
         23    2    4    4    0    0 -0.19869570964E+03 -0.35148278020E+03  0.89237459139E+02  0.42474214772E+03  0.97069244015E+02 0.  0.
          2    1    3    3  502    0  0.68148760144E+03  0.17498777038E+03  0.59592002375E+03  0.92204487169E+03  0.00000000000E+00 0. -1.
         -1    1    3    3    0  502  0.76785550701E+03  0.16953562440E+03  0.77399752318E+03  0.11033660197E+04  0.00000000000E+00 0.  1.
         13    1    5    5    0    0 -0.47747174036E+03 -0.25515558684E+01 -0.28071284726E+03  0.55388218594E+03  0.00000000000E+00 0. -1.
        -13    1    5    5    0    0 -0.77317565844E+03  0.95109412793E+01 -0.32504457204E+03  0.83877591205E+03  0.00000000000E+00 0.  1.
          1    1    6    6  503    0 -0.12878539950E+03 -0.13879166286E+03  0.19982265539E+02  0.19038932675E+03  0.00000000000E+00 0. -1.
         -1    1    6    6    0  503 -0.69910310142E+02 -0.21269111733E+03  0.69255193599E+02  0.23435282097E+03  0.00000000000E+00 0.  1.
<mgrwt>
<rscale>  0 0.37468533E+04</rscale>
<asrwt>0</asrwt>
<pdfrwt beam="1">  1        2 0.36124683E+00 0.37468533E+04</pdfrwt>
<pdfrwt beam="2">  1       -1 0.22995489E+00 0.37468533E+04</pdfrwt>
<totfact> 0.36809027E-01</totfact>
</mgrwt>
</event>
<event>
12    7  0.1572140E-007  0.1944935E+04  0.7818608E-02  0.8632807E-01
          2   -1    0    0  501    0  0.00000000000E+00  0.00000000000E+00  0.19747291676E+04  0.19747291676E+04  0.00000000000E+00 0. -1.
         -1   -1    0    0    0  501 -0.00000000000E+00 -0.00000000000E+00 -0.47889757714E+03  0.47889757714E+03  0.00000000000E+00 0.  1.
         24    2    1    2    0    0 -0.44415954464E+03 -0.17816623180E+03 -0.16207457438E+03  0.51233172219E+03  0.84821687380E+02 0.  0.
        254    2    1    2    0    0  0.44415954464E+03  0.17816623180E+03  0.16579061648E+04  0.19412950225E+04  0.88935516295E+03 0.  0.
         23    2    4    4    0    0 -0.12051514742E+03 -0.63168770708E+02 -0.72139440457E+01  0.16422318212E+03  0.91667978097E+02 0.  0.
         23    2    4    4    0    0  0.56467469206E+03  0.24133500251E+03  0.16651201089E+04  0.17770718404E+04  0.90880458332E+02 0.  0.
          4    1    3    3  502    0 -0.15042571209E+03 -0.18207131460E+02 -0.53266046464E+02  0.16061340604E+03  0.00000000000E+00 0. -1.
         -3    1    3    3    0  502 -0.29373383255E+03 -0.15995910034E+03 -0.10880852792E+03  0.35171831615E+03  0.00000000000E+00 0.  1.
         13    1    5    5    0    0 -0.11389186086E+03 -0.78022669883E+02 -0.24806333884E+02  0.14026491788E+03  0.00000000000E+00 0.  1.
        -13    1    5    5    0    0 -0.66232865565E+01  0.14853899176E+02  0.17592389838E+02  0.23958264248E+02  0.00000000000E+00 0. -1.
          4    1    6    6  503    0  0.36103302949E+02  0.42745873963E+02  0.16258926931E+03  0.17194745918E+03  0.00000000000E+00 0. -1.
         -4    1    6    6    0  503  0.52857138911E+03  0.19858912854E+03  0.15025308395E+04  0.16051243812E+04  0.00000000000E+00 0.  1.
<mgrwt>
<rscale>  0 0.19449350E+04</rscale>
<asrwt>0</asrwt>
<pdfrwt beam="1">  1        2 0.30380448E+00 0.19449350E+04</pdfrwt>
<pdfrwt beam="2">  1       -1 0.73676552E-01 0.19449350E+04</pdfrwt>
<totfact> 0.13607125E+01</totfact>
</mgrwt>
</event>
<event>
12    7  0.1572140E-007  0.1644614E+04  0.7818608E-02  0.8793599E-01
         -1   -1    0    0    0  501 -0.00000000000E+00  0.00000000000E+00  0.52672878450E+03  0.52672878450E+03  0.00000000000E+00 0.  1.
          2   -1    0    0  501    0  0.00000000000E+00 -0.00000000000E+00 -0.12837506800E+04  0.12837506800E+04  0.00000000000E+00 0. -1.
         24    2    1    2    0    0 -0.17780102553E+03 -0.31766370960E+03  0.21771918149E+03  0.43219845176E+03  0.82888012659E+02 0.  0.
        254    2    1    2    0    0  0.17780102553E+03  0.31766370960E+03 -0.97474107702E+03  0.13782810128E+04  0.90388879062E+03 0.  0.
         23    2    4    4    0    0 -0.23664131485E+03 -0.14279037290E+02 -0.75497441362E+03  0.79681386117E+03  0.93396795088E+02 0.  0.
         23    2    4    4    0    0  0.41444234038E+03  0.33194274689E+03 -0.21976666340E+03  0.58146715159E+03  0.88646609201E+02 0.  0.
          2    1    3    3  502    0 -0.11443783356E+03 -0.14389372772E+03  0.14214242884E+03  0.23239167950E+03  0.00000000000E+00 0. -1.
         -1    1    3    3    0  502 -0.63363191966E+02 -0.17376998188E+03  0.75576752657E+02  0.19980677226E+03  0.00000000000E+00 0.  1.
         13    1    5    5    0    0 -0.16534715894E+03  0.10873866304E+02 -0.38420608997E+03  0.41841635186E+03  0.00000000000E+00 0. -1.
        -13    1    5    5    0    0 -0.71294155905E+02 -0.25152903593E+02 -0.37076832365E+03  0.37839750930E+03  0.00000000000E+00 0.  1.
          2    1    6    6  503    0  0.21863928899E+03  0.23026851589E+03 -0.12231920802E+03  0.34027741146E+03  0.00000000000E+00 0.  1.
         -2    1    6    6    0  503  0.19580305138E+03  0.10167423100E+03 -0.97447455385E+02  0.24118974012E+03  0.00000000000E+00 0. -1.
<mgrwt>
<rscale>  0 0.16446136E+04</rscale>
<asrwt>0</asrwt>
<pdfrwt beam="1">  1        2 0.19750010E+00 0.16446136E+04</pdfrwt>
<pdfrwt beam="2">  1       -1 0.81035198E-01 0.16446136E+04</pdfrwt>
<totfact> 0.27940277E+01</totfact>
</mgrwt>
</event>
<event>
12    7  0.1572140E-007  0.1425669E+04  0.7818608E-02  0.8935445E-01
         -1   -1    0    0    0  501 -0.00000000000E+00  0.00000000000E+00  0.24370688123E+03  0.24370688123E+03  0.00000000000E+00 0.  1.
          2   -1    0    0  501    0  0.00000000000E+00 -0.00000000000E+00 -0.20850180951E+04  0.20850180951E+04  0.00000000000E+00 0. -1.
         24    2    1    2    0    0  0.36597150652E+03 -0.62102113940E+01 -0.91202573329E+03  0.98605989191E+03  0.80928746001E+02 0.  0.
        254    2    1    2    0    0 -0.36597150652E+03  0.62102113940E+01 -0.92928548056E+03  0.13426650844E+04  0.89733177488E+03 0.  0.
         23    2    4    4    0    0 -0.48083740153E+03  0.29339026879E+03 -0.82511151605E+03  0.10032491756E+04  0.91746596567E+02 0.  0.
         23    2    4    4    0    0  0.11486589501E+03 -0.28718005739E+03 -0.10417396451E+03  0.33941590876E+03  0.93190047955E+02 0.  0.
          2    1    3    3  502    0  0.35383363617E+03  0.85937306030E+01 -0.83974265927E+03  0.91128471297E+03  0.00000000000E+00 0. -1.
         -1    1    3    3    0  502  0.12137870353E+02 -0.14803941997E+02 -0.72283074023E+02  0.74775178941E+02  0.00000000000E+00 0.  1.
         13    1    5    5    0    0 -0.11985991893E+03  0.47070927767E+02 -0.13634085866E+03  0.18753906832E+03  0.00000000000E+00 0.  1.
        -13    1    5    5    0    0 -0.36097748260E+03  0.24631934102E+03 -0.68877065739E+03  0.81571010732E+03  0.00000000000E+00 0. -1.
          2    1    6    6  503    0  0.11309254298E+03 -0.16568642579E+03 -0.77237516211E+02  0.21495941217E+03  0.00000000000E+00 0. -1.
         -2    1    6    6    0  503  0.17733520315E+01 -0.12149363160E+03 -0.26936448297E+02  0.12445649659E+03  0.00000000000E+00 0.  1.
<mgrwt>
<rscale>  0 0.14256693E+04</rscale>
<asrwt>0</asrwt>
<pdfrwt beam="1">  1        2 0.32077202E+00 0.14256693E+04</pdfrwt>
<pdfrwt beam="2">  1       -1 0.37493366E-01 0.14256693E+04</pdfrwt>
<totfact> 0.45471655E+01</totfact>
</mgrwt>
</event>
<event>
12    7  0.1676637E-007  0.1962795E+04  0.7818608E-02  0.8624215E-01
         -1   -1    0    0    0  501 -0.00000000000E+00  0.00000000000E+00  0.59845830250E+03  0.59845830250E+03  0.00000000000E+00 0.  1.
          2   -1    0    0  501    0  0.00000000000E+00 -0.00000000000E+00 -0.16093710917E+04  0.16093710917E+04  0.00000000000E+00 0. -1.
         24    2    1    2    0    0 -0.35529201610E+03 -0.46177131899E+03 -0.97576813358E+03  0.11397770194E+04  0.86620064678E+02 0.  0.
        254    2    1    2    0    0  0.35529201610E+03  0.46177131899E+03 -0.35144655654E+02  0.10680523749E+04  0.89444706993E+03 0.  0.
         23    2    4    4    0    0 -0.39086279186E+01  0.42245806043E+03  0.33176215510E+03  0.54523043384E+03  0.93402399482E+02 0.  0.
         23    2    4    4    0    0  0.35920064402E+03  0.39313258558E+02 -0.36690681076E+03  0.52282194104E+03  0.90285875342E+02 0.  0.
          4    1    3    3  502    0 -0.30218085099E+03 -0.37799573933E+03 -0.74237410683E+03  0.88617907905E+03  0.00000000000E+00 0. -1.
         -3    1    3    3    0  502 -0.53111165116E+02 -0.83775579664E+02 -0.23339402675E+03  0.25359794032E+03  0.00000000000E+00 0.  1.
         13    1    5    5    0    0 -0.23795879690E+02  0.72285722105E+02  0.96504759280E+02  0.12290092788E+03  0.00000000000E+00 0. -1.
        -13    1    5    5    0    0  0.19887251771E+02  0.35017233833E+03  0.23525739582E+03  0.42232950596E+03  0.00000000000E+00 0.  1.
          4    1    6    6  503    0  0.14060235724E+01  0.70302250176E-01  0.50382568282E+01  0.52312404417E+01  0.00000000000E+00 0. -1.
         -4    1    6    6    0  503  0.35779462045E+03  0.39242956307E+02 -0.37194506758E+03  0.51759070059E+03  0.00000000000E+00 0.  1.
<mgrwt>
<rscale>  0 0.19627954E+04</rscale>
<asrwt>0</asrwt>
<pdfrwt beam="1">  1        2 0.24759555E+00 0.19627954E+04</pdfrwt>
<pdfrwt beam="2">  1       -1 0.92070508E-01 0.19627954E+04</pdfrwt>
<totfact> 0.13432599E+01</totfact>
</mgrwt>
</event>
<event>
12    7  0.1572140E-007  0.1216175E+04  0.7818608E-02  0.9098816E-01
          2   -1    0    0  501    0  0.00000000000E+00  0.00000000000E+00  0.52691174303E+03  0.52691174303E+03  0.00000000000E+00 0. -1.
         -1   -1    0    0    0  501 -0.00000000000E+00 -0.00000000000E+00 -0.70176869963E+03  0.70176869963E+03  0.00000000000E+00 0.  1.
         24    2    1    2    0    0 -0.23081549436E+03 -0.98497571519E+01  0.11407554724E+03  0.26938606444E+03  0.78630853254E+02 0.  0.
        254    2    1    2    0    0  0.23081549436E+03  0.98497571519E+01 -0.28893250384E+03  0.95929437822E+03  0.88509372507E+03 0.  0.
         23    2    4    4    0    0  0.17457146137E+03 -0.28853694845E+03 -0.47469248353E+03  0.59066529937E+03  0.99114964614E+02 0.  0.
         23    2    4    4    0    0  0.56244032988E+02  0.29838670560E+03  0.18575997969E+03  0.36862907885E+03  0.95825937996E+02 0.  0.
          2    1    3    3  502    0 -0.17810162435E+03 -0.61557438940E+01  0.12197792642E+03  0.21595531092E+03  0.00000000000E+00 0. -1.
         -1    1    3    3    0  502 -0.52713870007E+02 -0.36940132578E+01 -0.79023791802E+01  0.53430753521E+02  0.00000000000E+00 0.  1.
         13    1    5    5    0    0 -0.69977777659E+01  0.16006544999E+01 -0.22031727995E+02  0.23171707467E+02  0.00000000000E+00 0.  1.
        -13    1    5    5    0    0  0.18156923913E+03 -0.29013760295E+03 -0.45266075554E+03  0.56749359190E+03  0.00000000000E+00 0. -1.
          1    1    6    6  503    0  0.26040028890E+02  0.13904019305E+03  0.31761424532E+02  0.14497946915E+03  0.00000000000E+00 0. -1.
         -1    1    6    6    0  503  0.30204004098E+02  0.15934651255E+03  0.15399855516E+03  0.22364960970E+03  0.00000000000E+00 0.  1.
<mgrwt>
<rscale>  0 0.12161746E+04</rscale>
<asrwt>0</asrwt>
<pdfrwt beam="1">  1        2 0.81063345E-01 0.12161746E+04</pdfrwt>
<pdfrwt beam="2">  1       -1 0.10796442E+00 0.12161746E+04</pdfrwt>
<totfact> 0.52086079E+01</totfact>
</mgrwt>
</event>
<event>
12    7  0.1572140E-007  0.2294836E+04  0.7818608E-02  0.8479960E-01
          2   -1    0    0  501    0  0.00000000000E+00  0.00000000000E+00  0.16899427864E+04  0.16899427864E+04  0.00000000000E+00 0. -1.
         -1   -1    0    0    0  501 -0.00000000000E+00 -0.00000000000E+00 -0.77906045445E+03  0.77906045445E+03  0.00000000000E+00 0.  1.
         24    2    1    2    0    0  0.61070667523E+02 -0.57423114403E+03  0.12238150126E+04  0.13555374679E+04  0.79294442919E+02 0.  0.
        254    2    1    2    0    0 -0.61070667523E+02  0.57423114403E+03 -0.31293268064E+03  0.11134657729E+04  0.89911519377E+03 0.  0.
         23    2    4    4    0    0 -0.31606180830E+03 -0.56612140806E+01 -0.33958668063E+03  0.47277067884E+03  0.90916913131E+02 0.  0.
         23    2    4    4    0    0  0.25499114078E+03  0.57989235811E+03  0.26653999999E+02  0.64069509409E+03  0.92109386072E+02 0.  0.
          4    1    3    3  502    0  0.48770428488E+02 -0.55872285247E+03  0.11555912320E+04  0.12845002437E+04  0.00000000000E+00 0. -1.
         -1    1    3    3    0  502  0.12300239035E+02 -0.15508291557E+02  0.68223780597E+02  0.71037224230E+02  0.00000000000E+00 0.  1.
         13    1    5    5    0    0 -0.12404481486E+02 -0.10819108841E+02 -0.51883111540E+02  0.54431438895E+02  0.00000000000E+00 0.  1.
        -13    1    5    5    0    0 -0.30365732682E+03  0.51578947605E+01 -0.28770356909E+03  0.41833923994E+03  0.00000000000E+00 0. -1.
          1    1    6    6  503    0  0.17615831529E+03  0.30236307827E+03  0.37798743883E+02  0.35197148775E+03  0.00000000000E+00 0. -1.
         -1    1    6    6    0  503  0.78832825486E+02  0.27752927983E+03 -0.11144743885E+02  0.28872360634E+03  0.00000000000E+00 0.  1.
<mgrwt>
<rscale>  0 0.22948356E+04</rscale>
<asrwt>0</asrwt>
<pdfrwt beam="1">  1        2 0.25999120E+00 0.22948356E+04</pdfrwt>
<pdfrwt beam="2">  1       -1 0.11985545E+00 0.22948356E+04</pdfrwt>
<totfact> 0.63705974E+00</totfact>
</mgrwt>
</event>
<event>
12    7  0.1572140E-007  0.1377266E+04  0.7818608E-02  0.8970441E-01
          2   -1    0    0  501    0  0.00000000000E+00  0.00000000000E+00  0.14148113775E+04  0.14148113775E+04  0.00000000000E+00 0. -1.
         -1   -1    0    0    0  501 -0.00000000000E+00 -0.00000000000E+00 -0.33517913204E+03  0.33517913204E+03  0.00000000000E+00 0.  1.
         24    2    1    2    0    0  0.25447840070E+03  0.16220908082E+03  0.35238370153E+01  0.31192385200E+03  0.78822773948E+02 0.  0.
        254    2    1    2    0    0 -0.25447840070E+03 -0.16220908082E+03  0.10761084085E+04  0.14380666576E+04  0.90496152541E+03 0.  0.
         23    2    4    4    0    0  0.23664316586E+03 -0.16588523256E+03  0.82411547494E+03  0.87809480772E+03  0.91467354739E+02 0.  0.
         23    2    4    4    0    0 -0.49112156657E+03  0.36761517383E+01  0.25199293354E+03  0.55997184985E+03  0.94096369898E+02 0.  0.
          2    1    3    3  502    0  0.18002799098E+03  0.13251716063E+03  0.34118652758E+02  0.22613040013E+03  0.00000000000E+00 0. -1.
         -1    1    3    3    0  502  0.74450409728E+02  0.29691920187E+02 -0.30594815743E+02  0.85793451867E+02  0.00000000000E+00 0.  1.
         13    1    5    5    0    0  0.20813636174E+03 -0.16859584796E+03  0.78623617220E+03  0.83060979016E+03  0.00000000000E+00 0.  1.
        -13    1    5    5    0    0  0.28506804122E+02  0.27106154007E+01  0.37879302733E+02  0.47485017560E+02  0.00000000000E+00 0. -1.
          4    1    6    6  503    0 -0.48468119115E+03  0.12765123033E+02  0.23294403711E+03  0.53790494499E+03  0.00000000000E+00 0.  1.
         -4    1    6    6    0  503 -0.64403754156E+01 -0.90889712949E+01  0.19048896429E+02  0.22066904854E+02  0.00000000000E+00 0. -1.
<mgrwt>
<rscale>  0 0.13772658E+04</rscale>
<asrwt>0</asrwt>
<pdfrwt beam="1">  1        2 0.21766329E+00 0.13772658E+04</pdfrwt>
<pdfrwt beam="2">  1       -1 0.51566021E-01 0.13772658E+04</pdfrwt>
<totfact> 0.59650859E+01</totfact>
</mgrwt>
</event>
<event>
12    7  0.1572140E-007  0.2139361E+04  0.7818608E-02  0.8544100E-01
          2   -1    0    0  501    0  0.00000000000E+00  0.00000000000E+00  0.34461137785E+04  0.34461137785E+04  0.00000000000E+00 0. -1.
         -1   -1    0    0    0  501 -0.00000000000E+00 -0.00000000000E+00 -0.33203084284E+03  0.33203084284E+03  0.00000000000E+00 0.  1.
         24    2    1    2    0    0 -0.51595667802E+03 -0.41859217828E+03  0.22950123542E+04  0.23905829555E+04  0.79840189987E+02 0.  0.
        254    2    1    2    0    0  0.51595667802E+03  0.41859217828E+03  0.81907058153E+03  0.13875616659E+04  0.90167624669E+03 0.  0.
         23    2    4    4    0    0  0.37526284886E+03 -0.26423524872E+02 -0.56618391435E+02  0.39112710538E+03  0.90853518989E+02 0.  0.
         23    2    4    4    0    0  0.14069382916E+03  0.44501570315E+03  0.87568897297E+03  0.99643456053E+03  0.90647263718E+02 0.  0.
          4    1    3    3  502    0 -0.41475423326E+03 -0.29541454081E+03  0.17052637687E+04  0.17796672009E+04  0.00000000000E+00 0. -1.
         -3    1    3    3    0  502 -0.10120244477E+03 -0.12317763747E+03  0.58974858545E+03  0.61091575462E+03  0.00000000000E+00 0.  1.
         13    1    5    5    0    0  0.17568714914E+02 -0.18165797356E+02  0.10018673687E+02  0.27185101798E+02  0.00000000000E+00 0.  1.
        -13    1    5    5    0    0  0.35769413395E+03 -0.82577275161E+01 -0.66637065122E+02  0.36394200358E+03  0.00000000000E+00 0. -1.
          1    1    6    6  503    0  0.49843920469E+02  0.30150877572E+03  0.56306617971E+03  0.64065238701E+03  0.00000000000E+00 0. -1.
         -1    1    6    6    0  503  0.90849908693E+02  0.14350692742E+03  0.31262279326E+03  0.35578217352E+03  0.00000000000E+00 0.  1.
<mgrwt>
<rscale>  0 0.21393607E+04</rscale>
<asrwt>0</asrwt>
<pdfrwt beam="1">  1        2 0.53017133E+00 0.21393607E+04</pdfrwt>
<pdfrwt beam="2">  1       -1 0.51081671E-01 0.21393607E+04</pdfrwt>
<totfact> 0.35832426E+00</totfact>
</mgrwt>
</event>
<event>
12    7  0.1572140E-007  0.1141758E+04  0.7818608E-02  0.9165421E-01
          2   -1    0    0  501    0  0.00000000000E+00  0.00000000000E+00  0.51516146085E+03  0.51516146085E+03  0.00000000000E+00 0. -1.
         -1   -1    0    0    0  501 -0.00000000000E+00 -0.00000000000E+00 -0.63262323971E+03  0.63262323971E+03  0.00000000000E+00 0.  1.
         24    2    1    2    0    0  0.44357365614E+01  0.15148449300E+03  0.11890457326E+03  0.20883938639E+03  0.80674434530E+02 0.  0.
        254    2    1    2    0    0 -0.44357365614E+01 -0.15148449300E+03 -0.23636635212E+03  0.93894531417E+03  0.89598103954E+03 0.  0.
         23    2    4    4    0    0 -0.36746912924E+03  0.13246036508E+03  0.23448314300E+02  0.40163269606E+03  0.90441637769E+02 0.  0.
         23    2    4    4    0    0  0.36303339268E+03 -0.28394485808E+03 -0.25981466642E+03  0.53731261811E+03  0.93719059241E+02 0.  0.
          4    1    3    3  502    0  0.33391605628E+01  0.13078574861E+03  0.13075151043E+03  0.18496491427E+03  0.00000000000E+00 0. -1.
         -3    1    3    3    0  502  0.10965759985E+01  0.20698744394E+02 -0.11846937173E+02  0.23874472115E+02  0.00000000000E+00 0.  1.
         13    1    5    5    0    0 -0.11733080867E+03 -0.12024743845E+01  0.67186052512E+01  0.11752916346E+03  0.00000000000E+00 0. -1.
        -13    1    5    5    0    0 -0.25013832057E+03  0.13366283946E+03  0.16729709049E+02  0.28410353260E+03  0.00000000000E+00 0.  1.
          1    1    6    6  503    0  0.48111704984E+02 -0.54089544458E+02 -0.72070527181E+01  0.72748584763E+02  0.00000000000E+00 0. -1.
         -1    1    6    6    0  503  0.31492168769E+03 -0.22985531362E+03 -0.25260761371E+03  0.46456403335E+03  0.00000000000E+00 0.  1.
<mgrwt>
<rscale>  0 0.11417585E+04</rscale>
<asrwt>0</asrwt>
<pdfrwt beam="1">  1        2 0.79255609E-01 0.11417585E+04</pdfrwt>
<pdfrwt beam="2">  1       -1 0.97326653E-01 0.11417585E+04</pdfrwt>
<totfact> 0.68316469E+01</totfact>
</mgrwt>
</event>
<event>
12    7  0.1572140E-007  0.1750362E+04  0.7818608E-02  0.8733151E-01
         -1   -1    0    0    0  501 -0.00000000000E+00  0.00000000000E+00  0.14411868112E+04  0.14411868112E+04  0.00000000000E+00 0.  1.
          2   -1    0    0  501    0  0.00000000000E+00 -0.00000000000E+00 -0.53146582698E+03  0.53146582698E+03  0.00000000000E+00 0. -1.
         24    2    1    2    0    0  0.38538159263E+03 -0.13804093108E+03  0.89246687370E+03  0.98548410282E+03  0.84306142486E+02 0.  0.
        254    2    1    2    0    0 -0.38538159263E+03  0.13804093108E+03  0.17254110494E+02  0.98716853534E+03  0.89812568287E+03 0.  0.
         23    2    4    4    0    0  0.69721807984E+02 -0.23465356933E+03  0.23745177951E+03  0.35247101178E+03  0.89045148352E+02 0.  0.
         23    2    4    4    0    0 -0.45510340062E+03  0.37269450041E+03 -0.22019766902E+03  0.63469752356E+03  0.91288756586E+02 0.  0.
          4    1    3    3  502    0 -0.19935155132E+01 -0.83677636878E+01  0.11030943306E+02  0.13988398173E+02  0.00000000000E+00 0. -1.
         -3    1    3    3    0  502  0.38737510815E+03 -0.12967316739E+03  0.88143593039E+03  0.97149570465E+03  0.00000000000E+00 0.  1.
         13    1    5    5    0    0  0.85631888563E+02 -0.13739216337E+03  0.15049908163E+03  0.22104162609E+03  0.00000000000E+00 0. -1.
        -13    1    5    5    0    0 -0.15910080579E+02 -0.97261405963E+02  0.86952697878E+02  0.13142938569E+03  0.00000000000E+00 0.  1.
          3    1    6    6  503    0 -0.25591911751E+03  0.15058323071E+03 -0.11022164389E+03  0.31673129757E+03  0.00000000000E+00 0. -1.
         -3    1    6    6    0  503 -0.19918428310E+03  0.22211126971E+03 -0.10997602513E+03  0.31796622599E+03  0.00000000000E+00 0.  1.
<mgrwt>
<rscale>  0 0.17503617E+04</rscale>
<asrwt>0</asrwt>
<pdfrwt beam="1">  1        2 0.81763974E-01 0.17503617E+04</pdfrwt>
<pdfrwt beam="2">  1       -1 0.22172105E+00 0.17503617E+04</pdfrwt>
<totfact> 0.66532122E+00</totfact>
</mgrwt>
</event>
<event>
12    7  0.1572140E-007  0.1624130E+04  0.7818608E-02  0.8805859E-01
          2   -1    0    0  501    0  0.00000000000E+00  0.00000000000E+00  0.93456291559E+03  0.93456291559E+03  0.00000000000E+00 0. -1.
         -1   -1    0    0    0  501 -0.00000000000E+00 -0.00000000000E+00 -0.70562382100E+03  0.70562382100E+03  0.00000000000E+00 0.  1.
         24    2    1    2    0    0 -0.36781249479E+03  0.41354196783E+03 -0.80378365782E+02  0.56483688767E+03  0.79227757167E+02 0.  0.
        254    2    1    2    0    0  0.36781249479E+03 -0.41354196783E+03  0.30931746037E+03  0.10753498489E+04  0.86856031213E+03 0.  0.
         23    2    4    4    0    0  0.43089443991E+03 -0.50807059063E+03 -0.63104340990E+02  0.67532109174E+03  0.90943255310E+02 0.  0.
         23    2    4    4    0    0 -0.63081945121E+02  0.94528622804E+02  0.37242180136E+03  0.40002875718E+03  0.91706139997E+02 0.  0.
          2    1    3    3  502    0 -0.17686097250E+03  0.20177754702E+03 -0.78946544180E+02  0.27969007653E+03  0.00000000000E+00 0. -1.
         -1    1    3    3    0  502 -0.19095152229E+03  0.21176442081E+03 -0.14318216014E+01  0.28514681114E+03  0.00000000000E+00 0.  1.
         13    1    5    5    0    0  0.40476843155E+03 -0.49591209921E+03 -0.74255034761E+02  0.64442230215E+03  0.00000000000E+00 0.  1.
        -13    1    5    5    0    0  0.26126008362E+02 -0.12158491424E+02  0.11150693771E+02  0.30898789592E+02  0.00000000000E+00 0. -1.
          1    1    6    6  503    0 -0.16362957791E+02  0.77484515082E+02  0.31138245192E+03  0.32129523468E+03  0.00000000000E+00 0. -1.
         -1    1    6    6    0  503 -0.46718987330E+02  0.17044107722E+02  0.61039349446E+02  0.78733522505E+02  0.00000000000E+00 0.  1.
<mgrwt>
<rscale>  0 0.16241304E+04</rscale>
<asrwt>0</asrwt>
<pdfrwt beam="1">  1        2 0.14377891E+00 0.16241304E+04</pdfrwt>
<pdfrwt beam="2">  1       -1 0.10855751E+00 0.16241304E+04</pdfrwt>
<totfact> 0.23910854E+01</totfact>
</mgrwt>
</event>
<event>
12    7  0.1572140E-007  0.1723201E+04  0.7818608E-02  0.8748241E-01
          2   -1    0    0  501    0  0.00000000000E+00  0.00000000000E+00  0.19771549124E+04  0.19771549124E+04  0.00000000000E+00 0. -1.
         -1   -1    0    0    0  501 -0.00000000000E+00 -0.00000000000E+00 -0.37546657926E+03  0.37546657926E+03  0.00000000000E+00 0.  1.
         24    2    1    2    0    0  0.46452028384E+03  0.10236091361E+03  0.11317961670E+04  0.12303169180E+04  0.80376019187E+02 0.  0.
        254    2    1    2    0    0 -0.46452028384E+03 -0.10236091361E+03  0.46989216610E+03  0.11223045736E+04  0.90139450708E+03 0.  0.
         23    2    4    4    0    0 -0.30602313013E+03 -0.43638848361E+03  0.50656080687E+03  0.74087012516E+03  0.90551788968E+02 0.  0.
         23    2    4    4    0    0 -0.15849715371E+03  0.33402757000E+03 -0.36668640773E+02  0.38143444843E+03  0.86324295384E+02 0.  0.
          4    1    3    3  502    0  0.44701496059E+03  0.10748816504E+03  0.11125315024E+04  0.12037867022E+04  0.00000000000E+00 0. -1.
         -3    1    3    3    0  502  0.17505323246E+02 -0.51272514311E+01  0.19264664577E+02  0.26530215801E+02  0.00000000000E+00 0.  1.
         13    1    5    5    0    0 -0.53927009126E+02 -0.89668591447E+02  0.54902938803E+02  0.11816476334E+03  0.00000000000E+00 0. -1.
        -13    1    5    5    0    0 -0.25209612100E+03 -0.34671989216E+03  0.45165786807E+03  0.62270536182E+03  0.00000000000E+00 0.  1.
          4    1    6    6  503    0 -0.10887601874E+03  0.15592232223E+03 -0.48202020434E+02  0.19618662747E+03  0.00000000000E+00 0.  1.
         -4    1    6    6    0  503 -0.49621134969E+02  0.17810524778E+03  0.11533379662E+02  0.18524782095E+03  0.00000000000E+00 0. -1.
<mgrwt>
<rscale>  0 0.17232012E+04</rscale>
<asrwt>0</asrwt>
<pdfrwt beam="1">  1        2 0.30417767E+00 0.17232012E+04</pdfrwt>
<pdfrwt beam="2">  1       -1 0.57764090E-01 0.17232012E+04</pdfrwt>
<totfact> 0.22594953E+01</totfact>
</mgrwt>
</event>
<event>
12    7  0.1572140E-007  0.1396043E+04  0.7818608E-02  0.8956688E-01
         -1   -1    0    0    0  501 -0.00000000000E+00  0.00000000000E+00  0.44236072210E+03  0.44236072210E+03  0.00000000000E+00 0.  1.
          2   -1    0    0  501    0  0.00000000000E+00 -0.00000000000E+00 -0.11014400440E+04  0.11014400440E+04  0.00000000000E+00 0. -1.
         24    2    1    2    0    0  0.22325728335E+03 -0.19450106916E+03  0.10863174561E+03  0.32772922786E+03  0.89056780565E+02 0.  0.
        254    2    1    2    0    0 -0.22325728335E+03  0.19450106916E+03 -0.76771106755E+03  0.12160715383E+04  0.89541902062E+03 0.  0.
         23    2    4    4    0    0 -0.82951470644E+02  0.54254238902E+03 -0.43527674183E+03  0.70646237864E+03  0.91597271182E+02 0.  0.
         23    2    4    4    0    0 -0.14030581271E+03 -0.34804131986E+03 -0.33243432572E+03  0.50960915964E+03  0.91490071926E+02 0.  0.
          4    1    3    3  502    0 -0.39018742304E+01 -0.80912138307E+01 -0.75572767310E+01  0.11739028723E+02  0.00000000000E+00 0. -1.
         -3    1    3    3    0  502  0.22715915758E+03 -0.18640985533E+03  0.11618902235E+03  0.31599019914E+03  0.00000000000E+00 0.  1.
         13    1    5    5    0    0 -0.51657843911E+02  0.39082560040E+03 -0.36150721779E+03  0.53488377362E+03  0.00000000000E+00 0. -1.
        -13    1    5    5    0    0 -0.31293626734E+02  0.15171678862E+03 -0.73769524036E+02  0.17157860502E+03  0.00000000000E+00 0.  1.
          4    1    6    6  503    0 -0.23958101096E+02 -0.10319266463E+03 -0.46800972369E+02  0.11581471261E+03  0.00000000000E+00 0. -1.
         -4    1    6    6    0  503 -0.11634771161E+03 -0.24484865523E+03 -0.28563335335E+03  0.39379444703E+03  0.00000000000E+00 0.  1.
<mgrwt>
<rscale>  0 0.13960427E+04</rscale>
<asrwt>0</asrwt>
<pdfrwt beam="1">  1        2 0.16945232E+00 0.13960427E+04</pdfrwt>
<pdfrwt beam="2">  1       -1 0.68055495E-01 0.13960427E+04</pdfrwt>
<totfact> 0.52776785E+01</totfact>
</mgrwt>
</event>
<event>
12    7  0.1572140E-007  0.2090420E+04  0.7818608E-02  0.8565475E-01
          2   -1    0    0  501    0  0.00000000000E+00  0.00000000000E+00  0.33166536522E+04  0.33166536522E+04  0.00000000000E+00 0. -1.
         -1   -1    0    0    0  501 -0.00000000000E+00 -0.00000000000E+00 -0.32938754837E+03  0.32938754837E+03  0.00000000000E+00 0.  1.
         24    2    1    2    0    0 -0.85582575997E+02 -0.17535597225E+03 -0.22268581391E+03  0.30739774942E+03  0.82645691417E+02 0.  0.
        254    2    1    2    0    0  0.85582575997E+02  0.17535597225E+03  0.32099519177E+04  0.33386434511E+04  0.89703661313E+03 0.  0.
         23    2    4    4    0    0  0.28906256468E+03  0.45703019497E+03  0.21734444958E+04  0.22415123634E+04  0.89905138021E+02 0.  0.
         23    2    4    4    0    0 -0.20347998868E+03 -0.28167422271E+03  0.10365074220E+04  0.10971310877E+04  0.92760521027E+02 0.  0.
          4    1    3    3  502    0 -0.57365490461E+02 -0.37163348119E+02 -0.95760830554E+02  0.11765224438E+03  0.00000000000E+00 0. -1.
         -3    1    3    3    0  502 -0.28217085536E+02 -0.13819262414E+03 -0.12692498336E+03  0.18974550504E+03  0.00000000000E+00 0.  1.
         13    1    5    5    0    0  0.26244057965E+03  0.40519070124E+03  0.20314649160E+04  0.20880383778E+04  0.00000000000E+00 0. -1.
        -13    1    5    5    0    0  0.26621985030E+02  0.51839493724E+02  0.14197957977E+03  0.15347398564E+03  0.00000000000E+00 0.  1.
          3    1    6    6  503    0 -0.19169063256E+03 -0.28515232403E+03  0.95985236677E+03  0.10194967938E+04  0.00000000000E+00 0. -1.
         -3    1    6    6    0  503 -0.11789356121E+02  0.34781013128E+01  0.76655055192E+02  0.77634293924E+02  0.00000000000E+00 0.  1.
<mgrwt>
<rscale>  0 0.20904205E+04</rscale>
<asrwt>0</asrwt>
<pdfrwt beam="1">  1        2 0.51025438E+00 0.20904205E+04</pdfrwt>
<pdfrwt beam="2">  1       -1 0.50675010E-01 0.20904205E+04</pdfrwt>
<totfact> 0.44735113E+00</totfact>
</mgrwt>
</event>
<event>
12    7  0.2774341E-007  0.1862041E+04  0.7818608E-02  0.8673985E-01
         -1   -1    0    0    0  501 -0.00000000000E+00  0.00000000000E+00  0.35398633925E+03  0.35398633925E+03  0.00000000000E+00 0.  1.
          2   -1    0    0  501    0  0.00000000000E+00 -0.00000000000E+00 -0.24486801268E+04  0.24486801268E+04  0.00000000000E+00 0. -1.
         24    2    1    2    0    0 -0.19668705260E+03 -0.50565763898E+03 -0.11257993855E+03  0.55969415749E+03  0.78789992020E+02 0.  0.
        254    2    1    2    0    0  0.19668705260E+03  0.50565763898E+03 -0.19821138490E+04  0.22429723086E+04  0.89876249483E+03 0.  0.
         23    2    4    4    0    0  0.47781450922E+03  0.11418725328E+03 -0.13714407366E+04  0.14596004637E+04  0.90765553004E+02 0.  0.
         23    2    4    4    0    0 -0.28112745662E+03  0.39147038569E+03 -0.61067311238E+03  0.78337184485E+03  0.92022211313E+02 0.  0.
          2    1    3    3  502    0  0.64034238190E+01 -0.35637787687E+02 -0.60769986186E+01  0.36714924214E+02  0.00000000000E+00 0. -1.
         -1    1    3    3    0  502 -0.20309047641E+03 -0.47001985129E+03 -0.10650293993E+03  0.52297923327E+03  0.00000000000E+00 0.  1.
         13    1    5    5    0    0  0.47186634325E+03  0.12290959347E+03 -0.13223638071E+04  0.14094008133E+04  0.00000000000E+00 0. -1.
        -13    1    5    5    0    0  0.59481659674E+01 -0.87223401882E+01 -0.49076929512E+02  0.50199650468E+02  0.00000000000E+00 0.  1.
          3    1    6    6  503    0 -0.26115467937E+03  0.37468874423E+03 -0.53556932743E+03  0.70386641211E+03  0.00000000000E+00 0. -1.
         -3    1    6    6    0  503 -0.19972777253E+02  0.16781641463E+02 -0.75103784952E+02  0.79505432742E+02  0.00000000000E+00 0.  1.
<mgrwt>
<rscale>  0 0.18620412E+04</rscale>
<asrwt>0</asrwt>
<pdfrwt beam="1">  1        2 0.37672002E+00 0.18620412E+04</pdfrwt>
<pdfrwt beam="2">  1       -1 0.54459437E-01 0.18620412E+04</pdfrwt>
<totfact> 0.13587945E+01</totfact>
</mgrwt>
</event>
<event>
12    7  0.1572140E-007  0.1819345E+04  0.7818608E-02  0.8696079E-01
         -1   -1    0    0    0  501 -0.00000000000E+00  0.00000000000E+00  0.12609988552E+04  0.12609988552E+04  0.00000000000E+00 0.  1.
          2   -1    0    0  501    0  0.00000000000E+00 -0.00000000000E+00 -0.65622936366E+03  0.65622936366E+03  0.00000000000E+00 0. -1.
         24    2    1    2    0    0  0.44069829760E+01 -0.35889735272E+03  0.84245285330E+03  0.91935566694E+03  0.81616793662E+02 0.  0.
        254    2    1    2    0    0 -0.44069829760E+01  0.35889735272E+03 -0.23768336174E+03  0.99787255194E+03  0.90023858959E+03 0.  0.
         23    2    4    4    0    0 -0.29003260389E+03  0.53873049981E+03 -0.12935328014E+03  0.63203966455E+03  0.91610063503E+02 0.  0.
         23    2    4    4    0    0  0.28562562091E+03 -0.17983314709E+03 -0.10833008160E+03  0.36583288739E+03  0.90423109905E+02 0.  0.
          2    1    3    3  502    0 -0.10340815896E+02 -0.16140309021E+02  0.95201030043E+02  0.97111678854E+02  0.00000000000E+00 0. -1.
         -1    1    3    3    0  502  0.14747798872E+02 -0.34275704370E+03  0.74725182326E+03  0.82224398808E+03  0.00000000000E+00 0.  1.
         13    1    5    5    0    0 -0.21701270662E+03  0.46615660810E+03 -0.12407919533E+03  0.52895382107E+03  0.00000000000E+00 0. -1.
        -13    1    5    5    0    0 -0.73019897272E+02  0.72573891712E+02 -0.52740848102E+01  0.10308584348E+03  0.00000000000E+00 0.  1.
          1    1    6    6  503    0  0.28096925666E+03 -0.16292966835E+03 -0.11829738834E+03  0.34566468160E+03  0.00000000000E+00 0. -1.
         -1    1    6    6    0  503  0.46563642569E+01 -0.16903478739E+02  0.99673067360E+01  0.20168205798E+02  0.00000000000E+00 0.  1.
<mgrwt>
<rscale>  0 0.18193455E+04</rscale>
<asrwt>0</asrwt>
<pdfrwt beam="1">  1        2 0.10095836E+00 0.18193455E+04</pdfrwt>
<pdfrwt beam="2">  1       -1 0.19399982E+00 0.18193455E+04</pdfrwt>
<totfact> 0.79223234E+00</totfact>
</mgrwt>
</event>
<event>
12    7  0.1572140E-007  0.1311936E+04  0.7818608E-02  0.9020153E-01
          2   -1    0    0  501    0  0.00000000000E+00  0.00000000000E+00  0.28633823222E+04  0.28633823222E+04  0.00000000000E+00 0. -1.
         -3   -1    0    0    0  501 -0.00000000000E+00 -0.00000000000E+00 -0.15027480015E+03  0.15027480015E+03  0.00000000000E+00 0.  1.
         24    2    1    2    0    0 -0.30139478368E+03  0.15271624401E+03  0.73195567806E+03  0.81055787586E+03  0.84165840189E+02 0.  0.
        254    2    1    2    0    0  0.30139478368E+03 -0.15271624401E+03  0.19811518440E+04  0.22030992465E+04  0.90250905485E+03 0.  0.
         23    2    4    4    0    0  0.25193932709E+03  0.32809434633E+03  0.12678046431E+04  0.13367195000E+04  0.91493628031E+02 0.  0.
         23    2    4    4    0    0  0.49455456587E+02 -0.48081059033E+03  0.71334720083E+03  0.86637974644E+03  0.90138616241E+02 0.  0.
          4    1    3    3  502    0 -0.55005202003E+02  0.95375246593E+01  0.19286271404E+03  0.20077988717E+03  0.00000000000E+00 0. -1.
         -3    1    3    3    0  502 -0.24638958167E+03  0.14317871935E+03  0.53909296402E+03  0.60977798868E+03  0.00000000000E+00 0.  1.
         13    1    5    5    0    0  0.13181075513E+02  0.13571155884E+02  0.15056930345E+03  0.15175319491E+03  0.00000000000E+00 0.  1.
        -13    1    5    5    0    0  0.23875825158E+03  0.31452319044E+03  0.11172353397E+04  0.11849663051E+04  0.00000000000E+00 0. -1.
          2    1    6    6  503    0  0.13542841302E+02 -0.42079515531E+03  0.62746524186E+03  0.75562199613E+03  0.00000000000E+00 0. -1.
         -2    1    6    6    0  503  0.35912615284E+02 -0.60015435020E+02  0.85881958972E+02  0.11075775031E+03  0.00000000000E+00 0.  1.
<mgrwt>
<rscale>  0 0.13119363E+04</rscale>
<asrwt>0</asrwt>
<pdfrwt beam="1">  1        2 0.44052032E+00 0.13119363E+04</pdfrwt>
<pdfrwt beam="2">  1       -3 0.23119202E-01 0.13119363E+04</pdfrwt>
<totfact> 0.24030045E+01</totfact>
</mgrwt>
</event>
<event>
12    7  0.1572140E-007  0.2961390E+04  0.7818608E-02  0.8254843E-01
          2   -1    0    0  501    0  0.00000000000E+00  0.00000000000E+00  0.10603510301E+04  0.10603510301E+04  0.00000000000E+00 0. -1.
         -1   -1    0    0    0  501 -0.00000000000E+00 -0.00000000000E+00 -0.20676718441E+04  0.20676718441E+04  0.00000000000E+00 0.  1.
         24    2    1    2    0    0 -0.11813823864E+04 -0.46834123138E+03 -0.72251897001E+00  0.12733313782E+04  0.79777345505E+02 0.  0.
        254    2    1    2    0    0  0.11813823864E+04  0.46834123138E+03 -0.10065982950E+04  0.18546914960E+04  0.90090652445E+03 0.  0.
         23    2    4    4    0    0  0.11754044493E+04  0.32162887403E+03 -0.11123181239E+04  0.16528779886E+04  0.98657408961E+02 0.  0.
         23    2    4    4    0    0  0.59779371104E+01  0.14671235734E+03  0.10571982891E+03  0.20181350738E+03  0.89396633084E+02 0.  0.
          2    1    3    3  502    0 -0.99033192802E+03 -0.36800618706E+03 -0.19916004359E+02  0.10566846874E+04  0.00000000000E+00 0. -1.
         -1    1    3    3    0  502 -0.19105045840E+03 -0.10033504431E+03  0.19193485389E+02  0.21664669084E+03  0.00000000000E+00 0.  1.
         13    1    5    5    0    0  0.18898426924E+03  0.35581453873E+02 -0.22135970155E+03  0.29322552984E+03  0.00000000000E+00 0. -1.
        -13    1    5    5    0    0  0.98642018006E+03  0.28604742016E+03 -0.89095842236E+03  0.13596524587E+04  0.00000000000E+00 0.  1.
          3    1    6    6  503    0  0.30949804183E+02  0.13900390105E+02  0.74884580317E+01  0.34744614371E+02  0.00000000000E+00 0. -1.
         -3    1    6    6    0  503 -0.24971867073E+02  0.13281196724E+03  0.98231370877E+02  0.16706889301E+03  0.00000000000E+00 0.  1.
<mgrwt>
<rscale>  0 0.29613902E+04</rscale>
<asrwt>0</asrwt>
<pdfrwt beam="1">  1        2 0.16313093E+00 0.29613902E+04</pdfrwt>
<pdfrwt beam="2">  1       -1 0.31810336E+00 0.29613902E+04</pdfrwt>
<totfact> 0.56819957E-01</totfact>
</mgrwt>
</event>
<event>
12    7  0.1572140E-007  0.1768147E+04  0.7818608E-02  0.8723424E-01
          2   -1    0    0  501    0  0.00000000000E+00  0.00000000000E+00  0.46469050261E+03  0.46469050261E+03  0.00000000000E+00 0. -1.
         -1   -1    0    0    0  501 -0.00000000000E+00 -0.00000000000E+00 -0.16819491331E+04  0.16819491331E+04  0.00000000000E+00 0.  1.
         24    2    1    2    0    0 -0.10320793647E+03  0.61696815928E+03 -0.69113853748E+03  0.93568943718E+03  0.80874329419E+02 0.  0.
        254    2    1    2    0    0  0.10320793647E+03 -0.61696815928E+03 -0.52612009300E+03  0.12109501985E+04  0.89347436632E+03 0.  0.
         23    2    4    4    0    0 -0.34588378180E+03 -0.46867575300E+03 -0.40111756693E+03  0.71326889164E+03  0.92545433805E+02 0.  0.
         23    2    4    4    0    0  0.44909171827E+03 -0.14829240628E+03 -0.12500252607E+03  0.49768130686E+03  0.91580797651E+02 0.  0.
          2    1    3    3  502    0 -0.91649123672E+01  0.11068925137E+03 -0.16993596752E+03  0.20301314993E+03  0.00000000000E+00 0. -1.
         -1    1    3    3    0  502 -0.94043024099E+02  0.50627890791E+03 -0.52120256996E+03  0.73267628726E+03  0.00000000000E+00 0.  1.
         13    1    5    5    0    0 -0.43573778076E+02 -0.20161901537E+02 -0.22411491169E+02  0.52985388041E+02  0.00000000000E+00 0. -1.
        -13    1    5    5    0    0 -0.30231000372E+03 -0.44851385147E+03 -0.37870607576E+03  0.66028350360E+03  0.00000000000E+00 0.  1.
          4    1    6    6  503    0  0.10967884877E+03  0.73429093101E+00 -0.44421411445E+02  0.11833533220E+03  0.00000000000E+00 0.  1.
         -4    1    6    6    0  503  0.33941286949E+03 -0.14902669721E+03 -0.80581114624E+02  0.37934597466E+03  0.00000000000E+00 0. -1.
<mgrwt>
<rscale>  0 0.17681468E+04</rscale>
<asrwt>0</asrwt>
<pdfrwt beam="1">  1        2 0.71490846E-01 0.17681468E+04</pdfrwt>
<pdfrwt beam="2">  1       -1 0.25876141E+00 0.17681468E+04</pdfrwt>
<totfact> 0.44337463E+00</totfact>
</mgrwt>
</event>
<event>
12    7  0.1572140E-007  0.1817654E+04  0.7818608E-02  0.8696967E-01
          2   -1    0    0  501    0  0.00000000000E+00  0.00000000000E+00  0.91921299555E+03  0.91921299555E+03  0.00000000000E+00 0. -1.
         -1   -1    0    0    0  501 -0.00000000000E+00 -0.00000000000E+00 -0.89855835003E+03  0.89855835003E+03  0.00000000000E+00 0.  1.
         24    2    1    2    0    0 -0.10829473152E+03 -0.36529774584E+03  0.58247528901E+03  0.70065587742E+03  0.80442552614E+02 0.  0.
        254    2    1    2    0    0  0.10829473152E+03  0.36529774584E+03 -0.56182064348E+03  0.11171154682E+04  0.88720591846E+03 0.  0.
         23    2    4    4    0    0  0.29822261442E+03  0.30621399635E+03  0.75577620998E+02  0.44324530408E+03  0.89725601014E+02 0.  0.
         23    2    4    4    0    0 -0.18992788290E+03  0.59083749490E+02 -0.63739826448E+03  0.67387016407E+03  0.90889825075E+02 0.  0.
          4    1    3    3  502    0 -0.71813612120E+02 -0.32935702799E+03  0.52234557551E+03  0.62167366602E+03  0.00000000000E+00 0. -1.
         -1    1    3    3    0  502 -0.36481119400E+02 -0.35940717858E+02  0.60129713500E+02  0.78982211405E+02  0.00000000000E+00 0.  1.
         13    1    5    5    0    0  0.93133666136E+02  0.41971234706E+02  0.13536047441E+02  0.10304702272E+03  0.00000000000E+00 0.  1.
        -13    1    5    5    0    0  0.20508894829E+03  0.26424276165E+03  0.62041573557E+02  0.34019828136E+03  0.00000000000E+00 0. -1.
          2    1    6    6  503    0  0.10089860497E+02  0.53538813209E+01 -0.39425142974E+02  0.41046452082E+02  0.00000000000E+00 0. -1.
         -2    1    6    6    0  503 -0.20001774340E+03  0.53729868169E+02 -0.59797312151E+03  0.63282371199E+03  0.00000000000E+00 0.  1.
<mgrwt>
<rscale>  0 0.18176540E+04</rscale>
<asrwt>0</asrwt>
<pdfrwt beam="1">  1        2 0.14141738E+00 0.18176540E+04</pdfrwt>
<pdfrwt beam="2">  1       -1 0.13823975E+00 0.18176540E+04</pdfrwt>
<totfact> 0.13265668E+01</totfact>
</mgrwt>
</event>
<event>
12    7  0.1572140E-007  0.1422228E+04  0.7818608E-02  0.8937884E-01
          2   -1    0    0  501    0  0.00000000000E+00  0.00000000000E+00  0.18057109036E+04  0.18057109036E+04  0.00000000000E+00 0. -1.
         -1   -1    0    0    0  501 -0.00000000000E+00 -0.00000000000E+00 -0.28004657754E+03  0.28004657754E+03  0.00000000000E+00 0.  1.
         24    2    1    2    0    0 -0.38695898692E+03  0.42653806417E+02  0.70381421468E+03  0.80828628588E+03  0.80097855143E+02 0.  0.
        254    2    1    2    0    0  0.38695898692E+03 -0.42653806417E+02  0.82185011139E+03  0.12774711953E+04  0.89718361799E+03 0.  0.
         23    2    4    4    0    0  0.58099489207E+03 -0.62529845257E+01  0.87187861665E+03  0.10520183797E+04  0.94742728950E+02 0.  0.
         23    2    4    4    0    0 -0.19403590515E+03 -0.36400821892E+02 -0.50028505256E+02  0.22545281554E+03  0.96701439367E+02 0.  0.
          2    1    3    3  502    0 -0.17519980767E+03  0.49255206030E+01  0.24164059023E+03  0.29851199006E+03  0.00000000000E+00 0. -1.
         -1    1    3    3    0  502 -0.21175917925E+03  0.37728285814E+02  0.46217362445E+03  0.50977429583E+03  0.00000000000E+00 0.  1.
         13    1    5    5    0    0  0.24591342887E+03  0.22568152354E+02  0.44086554644E+03  0.50531689665E+03  0.00000000000E+00 0. -1.
        -13    1    5    5    0    0  0.33508146320E+03 -0.28821136880E+02  0.43101307021E+03  0.54670148308E+03  0.00000000000E+00 0.  1.
          3    1    6    6  503    0 -0.42801804673E+02  0.31921274401E+02 -0.57943645641E+01  0.53707884928E+02  0.00000000000E+00 0. -1.
         -3    1    6    6    0  503 -0.15123410048E+03 -0.68322096293E+02 -0.44234140692E+02  0.17174493061E+03  0.00000000000E+00 0.  1.
<mgrwt>
<rscale>  0 0.14222281E+04</rscale>
<asrwt>0</asrwt>
<pdfrwt beam="1">  1        2 0.27780167E+00 0.14222281E+04</pdfrwt>
<pdfrwt beam="2">  1       -1 0.43084090E-01 0.14222281E+04</pdfrwt>
<totfact> 0.50366706E+01</totfact>
</mgrwt>
</event>
<event>
12    7  0.1572140E-007  0.2096025E+04  0.7818608E-02  0.8562996E-01
          2   -1    0    0  501    0  0.00000000000E+00  0.00000000000E+00  0.17965990774E+04  0.17965990774E+04  0.00000000000E+00 0. -1.
         -1   -1    0    0    0  501 -0.00000000000E+00 -0.00000000000E+00 -0.61133874969E+03  0.61133874969E+03  0.00000000000E+00 0.  1.
         24    2    1    2    0    0  0.37905566776E+03  0.60824712390E+03  0.10285980801E+04  0.12561910863E+04  0.79713685944E+02 0.  0.
        254    2    1    2    0    0 -0.37905566776E+03 -0.60824712390E+03  0.15666224756E+03  0.11517467408E+04  0.88787934552E+03 0.  0.
         23    2    4    4    0    0  0.12704259692E+03  0.12690880462E+03  0.15706262162E+03  0.25543042646E+03  0.91270858037E+02 0.  0.
         23    2    4    4    0    0 -0.50609826468E+03 -0.73515592852E+03 -0.40037405778E+00  0.89631631437E+03  0.82420157470E+02 0.  0.
          2    1    3    3  502    0  0.29826077620E+03  0.51097060123E+03  0.80091046712E+03  0.99574495845E+03  0.00000000000E+00 0. -1.
         -1    1    3    3    0  502  0.80794891557E+02  0.97276522673E+02  0.22768761303E+03  0.26044612781E+03  0.00000000000E+00 0.  1.
         13    1    5    5    0    0  0.11562676763E+03  0.54297926724E+02  0.94302347179E+02  0.15877892468E+03  0.00000000000E+00 0. -1.
        -13    1    5    5    0    0  0.11415829288E+02  0.72610877897E+02  0.62760274443E+02  0.96651501775E+02  0.00000000000E+00 0.  1.
          1    1    6    6  503    0 -0.12364908996E+03 -0.19588095762E+03  0.34867241356E+02  0.23425236718E+03  0.00000000000E+00 0. -1.
         -1    1    6    6    0  503 -0.38244917471E+03 -0.53927497090E+03 -0.35267615414E+02  0.66206394719E+03  0.00000000000E+00 0.  1.
<mgrwt>
<rscale>  0 0.20960254E+04</rscale>
<asrwt>0</asrwt>
<pdfrwt beam="1">  1        2 0.27639986E+00 0.20960254E+04</pdfrwt>
<pdfrwt beam="2">  1       -1 0.94052116E-01 0.20960254E+04</pdfrwt>
<totfact> 0.99621765E+00</totfact>
</mgrwt>
</event>
<event>
12    7  0.1572140E-007  0.1242959E+04  0.7818608E-02  0.9076064E-01
         -1   -1    0    0    0  501 -0.00000000000E+00  0.00000000000E+00  0.21269426627E+03  0.21269426627E+03  0.00000000000E+00 0.  1.
          2   -1    0    0  501    0  0.00000000000E+00 -0.00000000000E+00 -0.18159256368E+04  0.18159256368E+04  0.00000000000E+00 0. -1.
         24    2    1    2    0    0 -0.28784212593E+02  0.12184426142E+03  0.21641253579E+02  0.15016117519E+03  0.80034241058E+02 0.  0.
        254    2    1    2    0    0  0.28784212593E+02 -0.12184426142E+03 -0.16248726241E+04  0.18784587279E+04  0.93419569302E+03 0.  0.
         23    2    4    4    0    0 -0.18208786185E+03 -0.47751157659E+03 -0.87173770991E+03  0.10145611137E+04  0.90743172116E+02 0.  0.
         23    2    4    4    0    0  0.21087207445E+03  0.35566731517E+03 -0.75313491418E+03  0.86389761420E+03  0.90225373402E+02 0.  0.
          4    1    3    3  502    0 -0.19607936267E+01 -0.28629154343E+01  0.22332019413E+02  0.22600001936E+02  0.00000000000E+00 0. -1.
         -3    1    3    3    0  502 -0.26823418967E+02  0.12470717686E+03 -0.69076583397E+00  0.12756117325E+03  0.00000000000E+00 0.  1.
         13    1    5    5    0    0 -0.16733213863E+03 -0.32554805761E+03 -0.59839022954E+03  0.70146450320E+03  0.00000000000E+00 0. -1.
        -13    1    5    5    0    0 -0.14755723223E+02 -0.15196351898E+03 -0.27334748036E+03  0.31309661047E+03  0.00000000000E+00 0.  1.
          4    1    6    6  503    0  0.19794579310E+03  0.26404256628E+03 -0.60773685373E+03  0.69155267131E+03  0.00000000000E+00 0. -1.
         -4    1    6    6    0  503  0.12926281351E+02  0.91624748883E+02 -0.14539806045E+03  0.17234494289E+03  0.00000000000E+00 0.  1.
<mgrwt>
<rscale>  0 0.12429593E+04</rscale>
<asrwt>0</asrwt>
<pdfrwt beam="1">  1        2 0.27937318E+00 0.12429593E+04</pdfrwt>
<pdfrwt beam="2">  1       -1 0.32722194E-01 0.12429593E+04</pdfrwt>
<totfact> 0.82959463E+01</totfact>
</mgrwt>
</event>
<event>
12    7  0.1572140E-007  0.1599846E+04  0.7818608E-02  0.8820643E-01
         -1   -1    0    0    0  501 -0.00000000000E+00  0.00000000000E+00  0.12495148218E+04  0.12495148218E+04  0.00000000000E+00 0.  1.
          2   -1    0    0  501    0  0.00000000000E+00 -0.00000000000E+00 -0.51210026776E+03  0.51210026776E+03  0.00000000000E+00 0. -1.
         24    2    1    2    0    0  0.25312348542E+02 -0.19417917226E+03 -0.30349327943E+03  0.36992769336E+03  0.79950370373E+02 0.  0.
        254    2    1    2    0    0 -0.25312348542E+02  0.19417917226E+03  0.10409078335E+04  0.13916873962E+04  0.90275047773E+03 0.  0.
         23    2    4    4    0    0  0.37584386042E+03 -0.11516495292E+03  0.53549737408E+03  0.67051095899E+03  0.91136900755E+02 0.  0.
         23    2    4    4    0    0 -0.40115620896E+03  0.30934412518E+03  0.50541045942E+03  0.72117643724E+03  0.89641672037E+02 0.  0.
          2    1    3    3  502    0  0.19695428537E+02 -0.19441299786E+03 -0.30654566662E+03  0.36353069935E+03  0.00000000000E+00 0. -1.
         -1    1    3    3    0  502  0.56169200055E+01  0.23382560272E+00  0.30523871916E+01  0.63969940072E+01  0.00000000000E+00 0.  1.
         13    1    5    5    0    0  0.15963628238E+02  0.13314819127E+02  0.36513237012E+02  0.42015929265E+02  0.00000000000E+00 0.  1.
        -13    1    5    5    0    0  0.35988023218E+03 -0.12847977205E+03  0.49898413707E+03  0.62849502972E+03  0.00000000000E+00 0. -1.
          3    1    6    6  503    0 -0.34342968909E+03  0.24946397360E+03  0.37441387974E+03  0.56600528161E+03  0.00000000000E+00 0. -1.
         -3    1    6    6    0  503 -0.57726519871E+02  0.59880151573E+02  0.13099657969E+03  0.15517115563E+03  0.00000000000E+00 0.  1.
<mgrwt>
<rscale>  0 0.15998461E+04</rscale>
<asrwt>0</asrwt>
<pdfrwt beam="1">  1        2 0.78784657E-01 0.15998461E+04</pdfrwt>
<pdfrwt beam="2">  1       -1 0.19223305E+00 0.15998461E+04</pdfrwt>
<totfact> 0.11185835E+01</totfact>
</mgrwt>
</event>
<event>
12    7  0.1572140E-007  0.3621387E+04  0.7818608E-02  0.8085610E-01
          2   -1    0    0  501    0  0.00000000000E+00  0.00000000000E+00  0.20490308663E+04  0.20490308663E+04  0.00000000000E+00 0. -1.
         -1   -1    0    0    0  501 -0.00000000000E+00 -0.00000000000E+00 -0.16000786114E+04  0.16000786114E+04  0.00000000000E+00 0.  1.
         24    2    1    2    0    0  0.13590823969E+04  0.77829926032E+03  0.86328707027E+03  0.17901443342E+04  0.80606893640E+02 0.  0.
        254    2    1    2    0    0 -0.13590823969E+04 -0.77829926032E+03 -0.41433481534E+03  0.18589651435E+04  0.91171451952E+03 0.  0.
         23    2    4    4    0    0  0.70257836468E+02 -0.54293533241E+02  0.11283659304E+03  0.16987800898E+03  0.90788159299E+02 0.  0.
         23    2    4    4    0    0 -0.14293402334E+04 -0.72400572707E+03 -0.52717140838E+03  0.16890871345E+04  0.88926139944E+02 0.  0.
          2    1    3    3  502    0  0.12622845917E+04  0.71524304192E+03  0.77583627042E+03  0.16452528432E+04  0.00000000000E+00 0. -1.
         -1    1    3    3    0  502  0.96797805187E+02  0.63056218396E+02  0.87450799856E+02  0.14489149100E+03  0.00000000000E+00 0.  1.
         13    1    5    5    0    0  0.55158139791E+02  0.24432768863E+01  0.17511136253E+02  0.57922619761E+02  0.00000000000E+00 0.  1.
        -13    1    5    5    0    0  0.15099696676E+02 -0.56736810127E+02  0.95325456788E+02  0.11195538922E+03  0.00000000000E+00 0. -1.
          3    1    6    6  503    0 -0.66030642119E+03 -0.37350801214E+03 -0.27836594148E+03  0.80808440300E+03  0.00000000000E+00 0. -1.
         -3    1    6    6    0  503 -0.76903381221E+03 -0.35049771494E+03 -0.24880546690E+03  0.88100273147E+03  0.00000000000E+00 0.  1.
<mgrwt>
<rscale>  0 0.36213867E+04</rscale>
<asrwt>0</asrwt>
<pdfrwt beam="1">  1        2 0.31523552E+00 0.36213867E+04</pdfrwt>
<pdfrwt beam="2">  1       -1 0.24616594E+00 0.36213867E+04</pdfrwt>
<totfact> 0.42886211E-01</totfact>
</mgrwt>
</event>
<event>
12    7  0.1572140E-007  0.2352142E+04  0.7818608E-02  0.8457641E-01
          2   -1    0    0  501    0  0.00000000000E+00  0.00000000000E+00  0.20990871144E+04  0.20990871144E+04  0.00000000000E+00 0. -1.
         -1   -1    0    0    0  501 -0.00000000000E+00 -0.00000000000E+00 -0.65892597006E+03  0.65892597006E+03  0.00000000000E+00 0.  1.
         24    2    1    2    0    0 -0.78972888763E+03 -0.44299756447E+03  0.11074428747E+04  0.14327822494E+04  0.80726051042E+02 0.  0.
        254    2    1    2    0    0  0.78972888763E+03  0.44299756447E+03  0.33271826964E+03  0.13252308351E+04  0.90863455866E+03 0.  0.
         23    2    4    4    0    0  0.51125695985E+03  0.46037892548E+03 -0.19483436719E+03  0.72099042132E+03  0.92381399527E+02 0.  0.
         23    2    4    4    0    0  0.27847192778E+03 -0.17381361008E+02  0.52755263683E+03  0.60424041375E+03  0.94583120659E+02 0.  0.
          4    1    3    3  502    0 -0.38169385806E+03 -0.23787656249E+03  0.49492163913E+03  0.66874725356E+03  0.00000000000E+00 0. -1.
         -3    1    3    3    0  502 -0.40803502957E+03 -0.20512100198E+03  0.61252123555E+03  0.76403499580E+03  0.00000000000E+00 0.  1.
         13    1    5    5    0    0  0.64289080596E+02  0.45643643345E+02 -0.52899966614E+02  0.94946482449E+02  0.00000000000E+00 0.  1.
        -13    1    5    5    0    0  0.44696787925E+03  0.41473528214E+03 -0.14193440057E+03  0.62604393887E+03  0.00000000000E+00 0. -1.
          1    1    6    6  503    0  0.26412086546E+03  0.21632865234E+01  0.43812540226E+03  0.51158418612E+03  0.00000000000E+00 0. -1.
         -1    1    6    6    0  503  0.14351062321E+02 -0.19544647531E+02  0.89427234571E+02  0.92656227636E+02  0.00000000000E+00 0.  1.
<mgrwt>
<rscale>  0 0.23521420E+04</rscale>
<asrwt>0</asrwt>
<pdfrwt beam="1">  1        2 0.32293648E+00 0.23521420E+04</pdfrwt>
<pdfrwt beam="2">  1       -1 0.10137323E+00 0.23521420E+04</pdfrwt>
<totfact> 0.55814727E+00</totfact>
</mgrwt>
</event>
<event>
12    7  0.1572140E-007  0.1563796E+04  0.7818608E-02  0.8843103E-01
         -1   -1    0    0    0  501 -0.00000000000E+00  0.00000000000E+00  0.95915273461E+03  0.95915273461E+03  0.00000000000E+00 0.  1.
          2   -1    0    0  501    0  0.00000000000E+00 -0.00000000000E+00 -0.63740083991E+03  0.63740083991E+03  0.00000000000E+00 0. -1.
         24    2    1    2    0    0 -0.17202413260E+03 -0.31502043980E+03  0.49680109928E+03  0.61805600804E+03  0.79697660790E+02 0.  0.
        254    2    1    2    0    0  0.17202413260E+03  0.31502043980E+03 -0.17504920458E+03  0.97849756649E+03  0.89330010853E+03 0.  0.
         23    2    4    4    0    0  0.94076967077E+02 -0.19775068402E+03  0.21808759514E+03  0.32105370689E+03  0.86933737936E+02 0.  0.
         23    2    4    4    0    0  0.77947165519E+02  0.51277112382E+03 -0.39313679973E+03  0.65744385959E+03  0.93090811471E+02 0.  0.
          2    1    3    3  502    0 -0.20066180624E+02 -0.18113786405E+02  0.78719539199E+02  0.83231765056E+02  0.00000000000E+00 0. -1.
         -1    1    3    3    0  502 -0.15195795197E+03 -0.29690665340E+03  0.41808156008E+03  0.53482424298E+03  0.00000000000E+00 0.  1.
         13    1    5    5    0    0  0.83989444809E+02 -0.93196763139E+02  0.85148308394E+02  0.15162485918E+03  0.00000000000E+00 0.  1.
        -13    1    5    5    0    0  0.10087522268E+02 -0.10455392088E+03  0.13293928675E+03  0.16942884771E+03  0.00000000000E+00 0. -1.
          1    1    6    6  503    0  0.35740982895E+02  0.10382657908E+03 -0.12612597267E+03  0.16722780081E+03  0.00000000000E+00 0. -1.
         -1    1    6    6    0  503  0.42206182625E+02  0.40894454474E+03 -0.26701082706E+03  0.49021605878E+03  0.00000000000E+00 0.  1.
<mgrwt>
<rscale>  0 0.15637964E+04</rscale>
<asrwt>0</asrwt>
<pdfrwt beam="1">  1        2 0.98061667E-01 0.15637964E+04</pdfrwt>
<pdfrwt beam="2">  1       -1 0.14756196E+00 0.15637964E+04</pdfrwt>
<totfact> 0.18452097E+01</totfact>
</mgrwt>
</event>
<event>
12    7  0.1572140E-007  0.1400555E+04  0.7818608E-02  0.8953417E-01
          2   -1    0    0  501    0  0.00000000000E+00  0.00000000000E+00  0.28669246263E+04  0.28669246263E+04  0.00000000000E+00 0. -1.
         -1   -1    0    0    0  501 -0.00000000000E+00 -0.00000000000E+00 -0.17105049470E+03  0.17105049470E+03  0.00000000000E+00 0.  1.
         24    2    1    2    0    0 -0.32783624292E+03 -0.13540931181E+03  0.12191900002E+04  0.12722860484E+04  0.80468928210E+02 0.  0.
        254    2    1    2    0    0  0.32783624292E+03  0.13540931181E+03  0.14766841313E+04  0.17656890726E+04  0.90069395098E+03 0.  0.
         23    2    4    4    0    0  0.35158377168E+03 -0.27085267613E+03  0.37962355202E+03  0.59211476295E+03  0.97537329132E+02 0.  0.
         23    2    4    4    0    0 -0.23747528762E+02  0.40626198795E+03  0.10970605793E+04  0.11735743096E+04  0.90122125609E+02 0.  0.
          4    1    3    3  502    0 -0.27631512540E+03 -0.10426605957E+03  0.10971621854E+04  0.11362157897E+04  0.00000000000E+00 0. -1.
         -3    1    3    3    0  502 -0.51521117524E+02 -0.31143252245E+02  0.12202781486E+03  0.13607025873E+03  0.00000000000E+00 0.  1.
         13    1    5    5    0    0  0.22607617301E+03 -0.16421342494E+03  0.17602741053E+03  0.33024556650E+03  0.00000000000E+00 0. -1.
        -13    1    5    5    0    0  0.12550759867E+03 -0.10663925119E+03  0.20359614149E+03  0.26186919645E+03  0.00000000000E+00 0.  1.
          4    1    6    6  503    0 -0.12057833409E+01  0.37662128856E+03  0.10324774660E+04  0.10990244613E+04  0.00000000000E+00 0. -1.
         -4    1    6    6    0  503 -0.22541745421E+02  0.29640699387E+02  0.64583113351E+02  0.74549848268E+02  0.00000000000E+00 0.  1.
<mgrwt>
<rscale>  0 0.14005554E+04</rscale>
<asrwt>0</asrwt>
<pdfrwt beam="1">  1        2 0.44106529E+00 0.14005554E+04</pdfrwt>
<pdfrwt beam="2">  1       -1 0.26315463E-01 0.14005554E+04</pdfrwt>
<totfact> 0.30144851E+01</totfact>
</mgrwt>
</event>
<event>
12    7  0.1572140E-007  0.1738354E+04  0.7818608E-02  0.8739787E-01
         -1   -1    0    0    0  501 -0.00000000000E+00  0.00000000000E+00  0.46668113060E+03  0.46668113060E+03  0.00000000000E+00 0.  1.
          2   -1    0    0  501    0  0.00000000000E+00 -0.00000000000E+00 -0.16188105148E+04  0.16188105148E+04  0.00000000000E+00 0. -1.
         24    2    1    2    0    0 -0.37326704226E+03  0.33328514432E+03 -0.73934610639E+03  0.89652081068E+03  0.81912310926E+02 0.  0.
        254    2    1    2    0    0  0.37326704226E+03 -0.33328514432E+03 -0.41278327777E+03  0.11889708347E+04  0.99642076405E+03 0.  0.
         23    2    4    4    0    0  0.68632956430E+03 -0.11457985311E+03 -0.15160693932E+03  0.71816372800E+03  0.92723581612E+02 0.  0.
         23    2    4    4    0    0 -0.31306252205E+03 -0.21870529121E+03 -0.26117633845E+03  0.47080710667E+03  0.87212985354E+02 0.  0.
          2    1    3    3  502    0 -0.32842160749E+03  0.25800893042E+03 -0.63805250198E+03  0.76258793311E+03  0.00000000000E+00 0. -1.
         -1    1    3    3    0  502 -0.44845434770E+02  0.75276213901E+02 -0.10129360441E+03  0.13393287756E+03  0.00000000000E+00 0.  1.
         13    1    5    5    0    0  0.67918859051E+03 -0.12306111282E+03 -0.15296629061E+03  0.70699353960E+03  0.00000000000E+00 0.  1.
        -13    1    5    5    0    0  0.71409737944E+01  0.84812597096E+01  0.13593512959E+01  0.11170188402E+02  0.00000000000E+00 0. -1.
          2    1    6    6  503    0 -0.23632914334E+02 -0.30803835629E+02 -0.59719534004E+02  0.71230707360E+02  0.00000000000E+00 0. -1.
         -2    1    6    6    0  503 -0.28942960771E+03 -0.18790145558E+03 -0.20145680444E+03  0.39957639931E+03  0.00000000000E+00 0.  1.
<mgrwt>
<rscale>  0 0.17383536E+04</rscale>
<asrwt>0</asrwt>
<pdfrwt beam="1">  1        2 0.24904777E+00 0.17383536E+04</pdfrwt>
<pdfrwt beam="2">  1       -1 0.71797097E-01 0.17383536E+04</pdfrwt>
<totfact> 0.23034673E+01</totfact>
</mgrwt>
</event>
<event>
12    7  0.1572140E-007  0.1394804E+04  0.7818608E-02  0.8957588E-01
         -1   -1    0    0    0  501 -0.00000000000E+00  0.00000000000E+00  0.10242349029E+04  0.10242349029E+04  0.00000000000E+00 0.  1.
          2   -1    0    0  501    0  0.00000000000E+00 -0.00000000000E+00 -0.47486145074E+03  0.47486145074E+03  0.00000000000E+00 0. -1.
         24    2    1    2    0    0  0.36161962704E+02  0.35309261596E+03 -0.67684822275E+02  0.37023361031E+03  0.80682142045E+02 0.  0.
        254    2    1    2    0    0 -0.36161962704E+02 -0.35309261596E+03  0.61705827446E+03  0.11288627434E+04  0.87612105115E+03 0.  0.
         23    2    4    4    0    0 -0.29763357332E+03 -0.28722184959E+03 -0.26872377379E+02  0.42458039746E+03  0.92001382578E+02 0.  0.
         23    2    4    4    0    0  0.26147161061E+03 -0.65870766371E+02  0.64393065183E+03  0.70428234589E+03  0.93062222959E+02 0.  0.
          2    1    3    3  502    0  0.41525757807E+02  0.29401449404E+03 -0.26698456867E+02  0.29813037226E+03  0.00000000000E+00 0. -1.
         -1    1    3    3    0  502 -0.53637951032E+01  0.59078121922E+02 -0.40986365408E+02  0.72103238048E+02  0.00000000000E+00 0.  1.
         13    1    5    5    0    0 -0.33950000076E+02 -0.97342237307E+01  0.17159721211E+02  0.39265934967E+02  0.00000000000E+00 0.  1.
        -13    1    5    5    0    0 -0.26368357324E+03 -0.27748762586E+03 -0.44032098591E+02  0.38531446249E+03  0.00000000000E+00 0. -1.
          2    1    6    6  503    0  0.24846909787E+03 -0.33965472647E+02  0.56855252953E+03  0.62140367295E+03  0.00000000000E+00 0. -1.
         -2    1    6    6    0  503  0.13002512745E+02 -0.31905293725E+02  0.75378122310E+02  0.82878672940E+02  0.00000000000E+00 0.  1.
<mgrwt>
<rscale>  0 0.13948042E+04</rscale>
<asrwt>0</asrwt>
<pdfrwt beam="1">  1        2 0.73055608E-01 0.13948042E+04</pdfrwt>
<pdfrwt beam="2">  1       -1 0.15757460E+00 0.13948042E+04</pdfrwt>
<totfact> 0.22198615E+01</totfact>
</mgrwt>
</event>
<event>
12    7  0.1572140E-007  0.1305039E+04  0.7818608E-02  0.9025578E-01
         -1   -1    0    0    0  501 -0.00000000000E+00  0.00000000000E+00  0.37103579149E+03  0.37103579149E+03  0.00000000000E+00 0.  1.
          2   -1    0    0  501    0  0.00000000000E+00 -0.00000000000E+00 -0.11475495016E+04  0.11475495016E+04  0.00000000000E+00 0. -1.
         24    2    1    2    0    0  0.21768283567E+03 -0.10250359978E+03  0.48564703378E+02  0.25934735847E+03  0.83724052808E+02 0.  0.
        254    2    1    2    0    0 -0.21768283567E+03  0.10250359978E+03 -0.82507841345E+03  0.12592379346E+04  0.92034394802E+03 0.  0.
         23    2    4    4    0    0 -0.51240476849E+03  0.25177637804E+03 -0.35623341564E+03  0.67812859082E+03  0.83702735668E+02 0.  0.
         23    2    4    4    0    0  0.29472193282E+03 -0.14927277826E+03 -0.46884499781E+03  0.58110934378E+03  0.93429424900E+02 0.  0.
          2    1    3    3  502    0  0.22909583647E+02 -0.58417071495E+01  0.34010461304E+02  0.41420840689E+02  0.00000000000E+00 0. -1.
         -1    1    3    3    0  502  0.19477325202E+03 -0.96661892632E+02  0.14554242074E+02  0.21792651778E+03  0.00000000000E+00 0.  1.
         13    1    5    5    0    0 -0.30021448626E+03  0.14117194064E+03 -0.25444803915E+03  0.41809336184E+03  0.00000000000E+00 0. -1.
        -13    1    5    5    0    0 -0.21219028223E+03  0.11060443740E+03 -0.10178537649E+03  0.26003522898E+03  0.00000000000E+00 0.  1.
          3    1    6    6  503    0  0.12996250736E+03 -0.94198568304E+02 -0.15925787619E+03  0.22611212864E+03  0.00000000000E+00 0. -1.
         -3    1    6    6    0  503  0.16475942546E+03 -0.55074209954E+02 -0.30958712162E+03  0.35499721514E+03  0.00000000000E+00 0.  1.
<mgrwt>
<rscale>  0 0.13050394E+04</rscale>
<asrwt>0</asrwt>
<pdfrwt beam="1">  1        2 0.17654607E+00 0.13050394E+04</pdfrwt>
<pdfrwt beam="2">  1       -1 0.57082431E-01 0.13050394E+04</pdfrwt>
<totfact> 0.70723649E+01</totfact>
</mgrwt>
</event>
<event>
12    7  0.1572140E-007  0.1896174E+04  0.7818608E-02  0.8656763E-01
          2   -1    0    0  501    0  0.00000000000E+00  0.00000000000E+00  0.31786682019E+04  0.31786682019E+04  0.00000000000E+00 0. -1.
         -1   -1    0    0    0  501 -0.00000000000E+00 -0.00000000000E+00 -0.28278167783E+03  0.28278167783E+03  0.00000000000E+00 0.  1.
         24    2    1    2    0    0  0.51753378406E+03 -0.16097029193E+03  0.19849327264E+04  0.20591504129E+04  0.79936486981E+02 0.  0.
        254    2    1    2    0    0 -0.51753378406E+03  0.16097029193E+03  0.91095379758E+03  0.14022994668E+04  0.91807097802E+03 0.  0.
         23    2    4    4    0    0  0.72105773847E+01  0.44009168639E+03  0.27491201947E+03  0.52693330730E+03  0.91375089842E+02 0.  0.
         23    2    4    4    0    0 -0.52474436144E+03 -0.27912139446E+03  0.63604177812E+03  0.87536615948E+03  0.91931343674E+02 0.  0.
          4    1    3    3  502    0  0.49736815491E+03 -0.16799112112E+03  0.19325004792E+04  0.20025369410E+04  0.00000000000E+00 0. -1.
         -3    1    3    3    0  502  0.20165629150E+02  0.70208291867E+01  0.52432247294E+02  0.56613471875E+02  0.00000000000E+00 0.  1.
         13    1    5    5    0    0 -0.11262058471E+02  0.85619876044E+02  0.16600137106E+02  0.87938397113E+02  0.00000000000E+00 0.  1.
        -13    1    5    5    0    0  0.18472635856E+02  0.35447181034E+03  0.25831188236E+03  0.43899491019E+03  0.00000000000E+00 0. -1.
          3    1    6    6  503    0 -0.46899385449E+03 -0.21697874254E+03  0.56574939114E+03  0.76622932849E+03  0.00000000000E+00 0. -1.
         -3    1    6    6    0  503 -0.55750506958E+02 -0.62142651913E+02  0.70292386979E+02  0.10913683100E+03  0.00000000000E+00 0.  1.
<mgrwt>
<rscale>  0 0.18961742E+04</rscale>
<asrwt>0</asrwt>
<pdfrwt beam="1">  1        2 0.48902585E+00 0.18961742E+04</pdfrwt>
<pdfrwt beam="2">  1       -1 0.43504876E-01 0.18961742E+04</pdfrwt>
<totfact> 0.74797983E+00</totfact>
</mgrwt>
</event>
<event>
12    7  0.1572140E-007  0.2502287E+04  0.7818608E-02  0.8402171E-01
         -1   -1    0    0    0  501 -0.00000000000E+00  0.00000000000E+00  0.13621511244E+04  0.13621511244E+04  0.00000000000E+00 0.  1.
          2   -1    0    0  501    0  0.00000000000E+00 -0.00000000000E+00 -0.11491819283E+04  0.11491819283E+04  0.00000000000E+00 0. -1.
         24    2    1    2    0    0 -0.66900938385E+03 -0.53957934060E+03 -0.58214762621E+03  0.10412636924E+04  0.81331408095E+02 0.  0.
        254    2    1    2    0    0  0.66900938385E+03  0.53957934060E+03  0.79511682227E+03  0.14700693603E+04  0.88891717416E+03 0.  0.
         23    2    4    4    0    0 -0.14477786757E+03  0.61624687495E+02  0.40496248993E+03  0.44395401484E+03  0.91336279732E+02 0.  0.
         23    2    4    4    0    0  0.81378725142E+03  0.47795465310E+03  0.39015433234E+03  0.10261153454E+04  0.10000979007E+03 0.  0.
          2    1    3    3  502    0 -0.52816367679E+03 -0.46247234964E+03 -0.45676886761E+03  0.83754124799E+03  0.00000000000E+00 0. -1.
         -1    1    3    3    0  502 -0.14084570706E+03 -0.77106990953E+02 -0.12537875860E+03  0.20372244442E+03  0.00000000000E+00 0.  1.
         13    1    5    5    0    0 -0.23369650522E+02  0.20311222708E+02  0.19852350996E+03  0.20092354351E+03  0.00000000000E+00 0. -1.
        -13    1    5    5    0    0 -0.12140821705E+03  0.41313464788E+02  0.20643897998E+03  0.24303047133E+03  0.00000000000E+00 0.  1.
          4    1    6    6  503    0  0.57218818464E+03  0.38254020306E+03  0.26200180936E+03  0.73646539206E+03  0.00000000000E+00 0. -1.
         -4    1    6    6    0  503  0.24159906678E+03  0.95414450043E+02  0.12815252297E+03  0.28964995338E+03  0.00000000000E+00 0.  1.
<mgrwt>
<rscale>  0 0.25022865E+04</rscale>
<asrwt>0</asrwt>
<pdfrwt beam="1">  1        2 0.17679722E+00 0.25022865E+04</pdfrwt>
<pdfrwt beam="2">  1       -1 0.20956171E+00 0.25022865E+04</pdfrwt>
<totfact> 0.26740674E+00</totfact>
</mgrwt>
</event>
<event>
12    7  0.1572140E-007  0.2702865E+04  0.7818608E-02  0.8334076E-01
          2   -1    0    0  501    0  0.00000000000E+00  0.00000000000E+00  0.11509943688E+04  0.11509943688E+04  0.00000000000E+00 0. -1.
         -1   -1    0    0    0  501 -0.00000000000E+00 -0.00000000000E+00 -0.15867760020E+04  0.15867760020E+04  0.00000000000E+00 0.  1.
         24    2    1    2    0    0  0.93520046661E+03 -0.22406235151E+03 -0.92100995203E+03  0.13339576062E+04  0.79873107910E+02 0.  0.
        254    2    1    2    0    0 -0.93520046661E+03  0.22406235151E+03  0.48522831887E+03  0.14038127645E+04  0.90024435923E+03 0.  0.
         23    2    4    4    0    0 -0.16552882972E+03 -0.79400303868E+02  0.53062517300E+03  0.57032068570E+03  0.99992042623E+02 0.  0.
         23    2    4    4    0    0 -0.76967163689E+03  0.30346265538E+03 -0.45396854133E+02  0.83349207884E+03  0.90355737373E+02 0.  0.
          2    1    3    3  502    0  0.16165103622E+03 -0.11097912294E+02 -0.13729010163E+03  0.21237418199E+03  0.00000000000E+00 0. -1.
         -1    1    3    3    0  502  0.77354943039E+03 -0.21296443922E+03 -0.78371985041E+03  0.11215834242E+04  0.00000000000E+00 0.  1.
         13    1    5    5    0    0 -0.94094492923E+02 -0.26092772375E+01  0.16512505943E+03  0.19007068995E+03  0.00000000000E+00 0.  1.
        -13    1    5    5    0    0 -0.71434336795E+02 -0.76791026631E+02  0.36550011357E+03  0.38024999575E+03  0.00000000000E+00 0. -1.
          3    1    6    6  503    0 -0.82510165850E+02  0.53074302374E+02  0.16639729465E+02  0.99507234098E+02  0.00000000000E+00 0. -1.
         -3    1    6    6    0  503 -0.68716147104E+03  0.25038835300E+03 -0.62036583598E+02  0.73398484474E+03  0.00000000000E+00 0.  1.
<mgrwt>
<rscale>  0 0.27028653E+04</rscale>
<asrwt>0</asrwt>
<pdfrwt beam="1">  1        2 0.17707606E+00 0.27028653E+04</pdfrwt>
<pdfrwt beam="2">  1       -1 0.24411939E+00 0.27028653E+04</pdfrwt>
<totfact> 0.15436983E+00</totfact>
</mgrwt>
</event>
<event>
12    7  0.1572140E-007  0.1962890E+04  0.7818608E-02  0.8624170E-01
         -1   -1    0    0    0  501 -0.00000000000E+00  0.00000000000E+00  0.35248033869E+03  0.35248033869E+03  0.00000000000E+00 0.  1.
          2   -1    0    0  501    0  0.00000000000E+00 -0.00000000000E+00 -0.27327326085E+04  0.27327326085E+04  0.00000000000E+00 0. -1.
         24    2    1    2    0    0 -0.72934727485E+03  0.14488213049E+03 -0.61879899982E+03  0.97085078010E+03  0.81858145355E+02 0.  0.
        254    2    1    2    0    0  0.72934727485E+03 -0.14488213049E+03 -0.17614532699E+04  0.21143621671E+04  0.90270231650E+03 0.  0.
         23    2    4    4    0    0  0.68518693832E+03 -0.14258379586E+03 -0.18486664123E+04  0.19787711787E+04  0.90313865516E+02 0.  0.
         23    2    4    4    0    0  0.44160336531E+02 -0.22983346314E+01  0.87213142369E+02  0.13559098837E+03  0.93932775220E+02 0.  0.
          4    1    3    3  502    0 -0.68958020526E+03  0.14539532237E+03 -0.60483148827E+03  0.92869897623E+03  0.00000000000E+00 0. -1.
         -3    1    3    3    0  502 -0.39767069598E+02 -0.51319187449E+00 -0.13967511552E+02  0.42151803867E+02  0.00000000000E+00 0.  1.
         13    1    5    5    0    0  0.30921250252E+03 -0.19092341887E+02 -0.79286252094E+03  0.85123901834E+03  0.00000000000E+00 0.  1.
        -13    1    5    5    0    0  0.37597443580E+03 -0.12349145397E+03 -0.10558038914E+04  0.11275321603E+04  0.00000000000E+00 0. -1.
          2    1    6    6  503    0  0.49223557800E+02  0.38000810615E+02  0.43305960928E+02  0.75778799818E+02  0.00000000000E+00 0. -1.
         -2    1    6    6    0  503 -0.50632212695E+01 -0.40299145247E+02  0.43907181441E+02  0.59812188552E+02  0.00000000000E+00 0.  1.
<mgrwt>
<rscale>  0 0.19628902E+04</rscale>
<asrwt>0</asrwt>
<pdfrwt beam="1">  1        2 0.42042039E+00 0.19628902E+04</pdfrwt>
<pdfrwt beam="2">  1       -1 0.54227746E-01 0.19628902E+04</pdfrwt>
<totfact> 0.92600139E+00</totfact>
</mgrwt>
</event>
<event>
12    7  0.1572140E-007  0.1377588E+04  0.7818608E-02  0.8970203E-01
          2   -1    0    0  501    0  0.00000000000E+00  0.00000000000E+00  0.82779448390E+03  0.82779448390E+03  0.00000000000E+00 0. -1.
         -1   -1    0    0    0  501 -0.00000000000E+00 -0.00000000000E+00 -0.57313410460E+03  0.57313410460E+03  0.00000000000E+00 0.  1.
         24    2    1    2    0    0  0.93204004332E+02 -0.71284598178E+02 -0.30126304105E+03  0.33314279052E+03  0.80350598101E+02 0.  0.
        254    2    1    2    0    0 -0.93204004332E+02  0.71284598178E+02  0.55592342035E+03  0.10677857980E+04  0.90407255278E+03 0.  0.
         23    2    4    4    0    0 -0.25092390690E+03 -0.29913774995E+03  0.51519723640E+03  0.65273630772E+03  0.90500245991E+02 0.  0.
         23    2    4    4    0    0  0.15771990257E+03  0.37042234813E+03  0.40726183951E+02  0.41504949025E+03  0.92299369649E+02 0.  0.
          4    1    3    3  502    0  0.27809187316E+02 -0.30396724990E+01 -0.15133591842E+02  0.31805913131E+02  0.00000000000E+00 0. -1.
         -3    1    3    3    0  502  0.65394817016E+02 -0.68244925679E+02 -0.28612944921E+03  0.30133687739E+03  0.00000000000E+00 0.  1.
         13    1    5    5    0    0 -0.64201510385E+01 -0.18249360770E+02  0.68454130436E+02  0.71135261872E+02  0.00000000000E+00 0. -1.
        -13    1    5    5    0    0 -0.24450375586E+03 -0.28088838918E+03  0.44674310596E+03  0.58160104585E+03  0.00000000000E+00 0.  1.
          2    1    6    6  503    0  0.16345976569E+03  0.36761718029E+03  0.48222858475E+02  0.40519986466E+03  0.00000000000E+00 0.  1.
         -2    1    6    6    0  503 -0.57398631221E+01  0.28051678391E+01 -0.74966745240E+01  0.98496255861E+01  0.00000000000E+00 0. -1.
<mgrwt>
<rscale>  0 0.13775881E+04</rscale>
<asrwt>0</asrwt>
<pdfrwt beam="1">  1        2 0.12735300E+00 0.13775881E+04</pdfrwt>
<pdfrwt beam="2">  1       -1 0.88174477E-01 0.13775881E+04</pdfrwt>
<totfact> 0.46292666E+01</totfact>
</mgrwt>
</event>
<event>
12    7  0.1572140E-007  0.1359705E+04  0.7818608E-02  0.8983514E-01
          2   -1    0    0  501    0  0.00000000000E+00  0.00000000000E+00  0.51584194599E+03  0.51584194599E+03  0.00000000000E+00 0. -1.
         -1   -1    0    0    0  501 -0.00000000000E+00 -0.00000000000E+00 -0.89600923249E+03  0.89600923249E+03  0.00000000000E+00 0.  1.
         24    2    1    2    0    0 -0.10069879069E+03  0.26606452184E+03  0.12804804701E+03  0.32275699937E+03  0.82735736337E+02 0.  0.
        254    2    1    2    0    0  0.10069879069E+03 -0.26606452184E+03 -0.50821533351E+03  0.10890941791E+04  0.92027861517E+03 0.  0.
         23    2    4    4    0    0  0.31568660749E+03  0.21477684095E+03 -0.36392966809E+03  0.53515770727E+03  0.90342917710E+02 0.  0.
         23    2    4    4    0    0 -0.21498781679E+03 -0.48084136279E+03 -0.14428566542E+03  0.55393647184E+03  0.92731246374E+02 0.  0.
          4    1    3    3  502    0 -0.65896338726E+02  0.23677093217E+03  0.12835000237E+03  0.27726616254E+03  0.00000000000E+00 0. -1.
         -3    1    3    3    0  502 -0.34802451967E+02  0.29293589666E+02 -0.30195535515E+00  0.45490836830E+02  0.00000000000E+00 0.  1.
         13    1    5    5    0    0  0.43221675796E+02  0.55354688380E+02 -0.32295109726E+02  0.77299604763E+02  0.00000000000E+00 0. -1.
        -13    1    5    5    0    0  0.27246493169E+03  0.15942215257E+03 -0.33163455837E+03  0.45785810251E+03  0.00000000000E+00 0.  1.
          3    1    6    6  503    0 -0.88676006514E+02 -0.21105760036E+03 -0.11029721183E+03  0.25411457994E+03  0.00000000000E+00 0. -1.
         -3    1    6    6    0  503 -0.12631181028E+03 -0.26978376243E+03 -0.33988453587E+02  0.29982189191E+03  0.00000000000E+00 0.  1.
<mgrwt>
<rscale>  0 0.13597046E+04</rscale>
<asrwt>0</asrwt>
<pdfrwt beam="1">  1        2 0.79360300E-01 0.13597046E+04</pdfrwt>
<pdfrwt beam="2">  1       -1 0.13784757E+00 0.13597046E+04</pdfrwt>
<totfact> 0.28928209E+01</totfact>
</mgrwt>
</event>
<event>
12    7  0.1572140E-007  0.2751948E+04  0.7818608E-02  0.8318344E-01
         -1   -1    0    0    0  501 -0.00000000000E+00  0.00000000000E+00  0.96923244042E+03  0.96923244042E+03  0.00000000000E+00 0.  1.
          2   -1    0    0  501    0  0.00000000000E+00 -0.00000000000E+00 -0.19534058420E+04  0.19534058420E+04  0.00000000000E+00 0. -1.
         24    2    1    2    0    0  0.75545058890E+03 -0.79006923696E+03  0.14902895730E+03  0.11058609451E+04  0.76182729335E+02 0.  0.
        254    2    1    2    0    0 -0.75545058890E+03  0.79006923696E+03 -0.11332023589E+04  0.18167773373E+04  0.90643108721E+03 0.  0.
         23    2    4    4    0    0 -0.91434655968E+03  0.62826049862E+03 -0.11089667996E+04  0.15713655784E+04  0.92959846433E+02 0.  0.
         23    2    4    4    0    0  0.15889597078E+03  0.16180873834E+03 -0.24235559256E+02  0.24541175893E+03  0.90606687133E+02 0.  0.
          4    1    3    3  502    0  0.37419646206E+03 -0.39015910871E+03  0.11213638165E+03  0.55210659335E+03  0.00000000000E+00 0. -1.
         -3    1    3    3    0  502  0.38125412684E+03 -0.39991012824E+03  0.36892575645E+02  0.55375435171E+03  0.00000000000E+00 0.  1.
         13    1    5    5    0    0 -0.37096162247E+03  0.28418125100E+03 -0.52221098035E+03  0.70076801922E+03  0.00000000000E+00 0.  1.
        -13    1    5    5    0    0 -0.54338493721E+03  0.34407924762E+03 -0.58675581926E+03  0.87059755919E+03  0.00000000000E+00 0. -1.
          1    1    6    6  503    0  0.67615954892E+02  0.96179818174E+02 -0.53607686026E+02  0.12921400381E+03  0.00000000000E+00 0. -1.
         -1    1    6    6    0  503  0.91280015889E+02  0.65628920170E+02  0.29372126770E+02  0.11619775512E+03  0.00000000000E+00 0.  1.
<mgrwt>
<rscale>  0 0.27519479E+04</rscale>
<asrwt>0</asrwt>
<pdfrwt beam="1">  1        2 0.30052397E+00 0.27519479E+04</pdfrwt>
<pdfrwt beam="2">  1       -1 0.14911268E+00 0.27519479E+04</pdfrwt>
<totfact> 0.24990338E+00</totfact>
</mgrwt>
</event>
<event>
12    7  0.1572140E-007  0.2565846E+04  0.7818608E-02  0.8379896E-01
          2   -1    0    0  501    0  0.00000000000E+00  0.00000000000E+00  0.30454358926E+04  0.30454358926E+04  0.00000000000E+00 0. -1.
         -1   -1    0    0    0  501 -0.00000000000E+00 -0.00000000000E+00 -0.54044520774E+03  0.54044520774E+03  0.00000000000E+00 0.  1.
         24    2    1    2    0    0 -0.11053443770E+03 -0.69495643106E+03 -0.12669342809E+03  0.71942919701E+03  0.79654515316E+02 0.  0.
        254    2    1    2    0    0  0.11053443770E+03  0.69495643106E+03  0.26316841129E+04  0.28664519033E+04  0.89196577327E+03 0.  0.
         23    2    4    4    0    0 -0.13566396877E+03  0.50627006783E+02  0.16754105865E+04  0.16839601795E+04  0.88053658372E+02 0.  0.
         23    2    4    4    0    0  0.24619840646E+03  0.64432942427E+03  0.95627352644E+03  0.11824917237E+04  0.89741612594E+02 0.  0.
          4    1    3    3  502    0 -0.69226061650E+02 -0.40851722806E+03 -0.11404818149E+03  0.42975057991E+03  0.00000000000E+00 0. -1.
         -3    1    3    3    0  502 -0.41308376050E+02 -0.28643920299E+03 -0.12645246606E+02  0.28967861710E+03  0.00000000000E+00 0.  1.
         13    1    5    5    0    0 -0.74667372445E+02 -0.47379056541E+01  0.48870015007E+03  0.49439407454E+03  0.00000000000E+00 0.  1.
        -13    1    5    5    0    0 -0.60996596320E+02  0.55364912437E+02  0.11867104364E+04  0.11895661050E+04  0.00000000000E+00 0. -1.
          1    1    6    6  503    0  0.23467449062E+03  0.53574371978E+03  0.77616427295E+03  0.97186646635E+03  0.00000000000E+00 0. -1.
         -1    1    6    6    0  503  0.11523915846E+02  0.10858570450E+03  0.18010925350E+03  0.21062525739E+03  0.00000000000E+00 0.  1.
<mgrwt>
<rscale>  0 0.25658459E+04</rscale>
<asrwt>0</asrwt>
<pdfrwt beam="1">  1        2 0.46852859E+00 0.25658459E+04</pdfrwt>
<pdfrwt beam="2">  1       -1 0.83145419E-01 0.25658459E+04</pdfrwt>
<totfact> 0.23612462E+00</totfact>
</mgrwt>
</event>
<event>
12    7  0.1572140E-007  0.1806161E+04  0.7818608E-02  0.8703030E-01
          2   -1    0    0  501    0  0.00000000000E+00  0.00000000000E+00  0.31168231151E+04  0.31168231151E+04  0.00000000000E+00 0. -1.
         -1   -1    0    0    0  501 -0.00000000000E+00 -0.00000000000E+00 -0.26166211958E+03  0.26166211958E+03  0.00000000000E+00 0.  1.
         24    2    1    2    0    0  0.29279136740E+03 -0.57869004878E+03  0.14215626574E+04  0.15644993861E+04  0.78797098214E+02 0.  0.
        254    2    1    2    0    0 -0.29279136740E+03  0.57869004878E+03  0.14335983381E+04  0.18139858486E+04  0.90262478725E+03 0.  0.
         23    2    4    4    0    0 -0.38349216201E+03  0.63829263735E+03  0.14839069241E+04  0.16631965246E+04  0.98788616776E+02 0.  0.
         23    2    4    4    0    0  0.90700794612E+02 -0.59602588571E+02 -0.50308585935E+02  0.15078932407E+03  0.91800673886E+02 0.  0.
          4    1    3    3  502    0  0.11339251896E+03 -0.19272621368E+03  0.40932673940E+03  0.46642216541E+03  0.00000000000E+00 0. -1.
         -3    1    3    3    0  502  0.17939884844E+03 -0.38596383509E+03  0.10122359180E+04  0.10980772207E+04  0.00000000000E+00 0.  1.
         13    1    5    5    0    0 -0.31611682281E+03  0.54860415437E+03  0.11781297675E+04  0.13374924721E+04  0.00000000000E+00 0. -1.
        -13    1    5    5    0    0 -0.67375339206E+02  0.89688482976E+02  0.30577715658E+03  0.32570405247E+03  0.00000000000E+00 0.  1.
          1    1    6    6  503    0  0.12588975110E+02 -0.54428184675E+02 -0.46036711310E+02  0.72389836093E+02  0.00000000000E+00 0. -1.
         -1    1    6    6    0  503  0.78111819502E+02 -0.51744038954E+01 -0.42718746250E+01  0.78399487973E+02  0.00000000000E+00 0.  1.
<mgrwt>
<rscale>  0 0.18061612E+04</rscale>
<asrwt>0</asrwt>
<pdfrwt beam="1">  1        2 0.47951122E+00 0.18061612E+04</pdfrwt>
<pdfrwt beam="2">  1       -1 0.40255713E-01 0.18061612E+04</pdfrwt>
<totfact> 0.95379207E+00</totfact>
</mgrwt>
</event>
<event>
12    7  0.1572140E-007  0.1452069E+04  0.7818608E-02  0.8916967E-01
         -3   -1    0    0    0  501 -0.00000000000E+00  0.00000000000E+00  0.11166056432E+04  0.11166056432E+04  0.00000000000E+00 0.  1.
          4   -1    0    0  501    0  0.00000000000E+00 -0.00000000000E+00 -0.47207927045E+03  0.47207927045E+03  0.00000000000E+00 0. -1.
         24    2    1    2    0    0 -0.24274507521E+03  0.35703337426E+03  0.29187896684E+03  0.52724760499E+03  0.79991898378E+02 0.  0.
        254    2    1    2    0    0  0.24274507521E+03 -0.35703337426E+03  0.35264740592E+03  0.10614373087E+04  0.90326682962E+03 0.  0.
         23    2    4    4    0    0 -0.28030728985E+03 -0.36563366101E+03  0.17432111909E+03  0.50110457316E+03  0.91966243145E+02 0.  0.
         23    2    4    4    0    0  0.52305236505E+03  0.86002867493E+01  0.17832628683E+03  0.56033273552E+03  0.92275502694E+02 0.  0.
          4    1    3    3  502    0 -0.91840014689E+01  0.60173710637E+02  0.49366392618E+02  0.78372584842E+02  0.00000000000E+00 0. -1.
         -3    1    3    3    0  502 -0.23356107374E+03  0.29685966363E+03  0.24251257423E+03  0.44887502015E+03  0.00000000000E+00 0.  1.
         13    1    5    5    0    0 -0.14536718633E+03 -0.18914238414E+03  0.13915710648E+03  0.27617233863E+03  0.00000000000E+00 0. -1.
        -13    1    5    5    0    0 -0.13494010352E+03 -0.17649127688E+03  0.35164012605E+02  0.22493223454E+03  0.00000000000E+00 0.  1.
          2    1    6    6  503    0  0.18412236919E+03  0.37635988977E+02  0.34810810103E+02  0.19112641629E+03  0.00000000000E+00 0. -1.
         -2    1    6    6    0  503  0.33892999586E+03 -0.29035702227E+02  0.14351547673E+03  0.36920631923E+03  0.00000000000E+00 0.  1.
<mgrwt>
<rscale>  0 0.14520694E+04</rscale>
<asrwt>0</asrwt>
<pdfrwt beam="1">  1        4 0.72627581E-01 0.14520694E+04</pdfrwt>
<pdfrwt beam="2">  1       -3 0.17178548E+00 0.14520694E+04</pdfrwt>
<totfact> 0.86087051E-01</totfact>
</mgrwt>
</event>
<event>
12    7  0.1572140E-007  0.2673473E+04  0.7818608E-02  0.8343664E-01
          2   -1    0    0  501    0  0.00000000000E+00  0.00000000000E+00  0.16381750016E+04  0.16381750016E+04  0.00000000000E+00 0. -1.
         -1   -1    0    0    0  501 -0.00000000000E+00 -0.00000000000E+00 -0.10907653855E+04  0.10907653855E+04  0.00000000000E+00 0.  1.
         24    2    1    2    0    0 -0.81029406933E+03  0.36045474319E+03 -0.55844418147E+03  0.10512897738E+04  0.82741670187E+02 0.  0.
        254    2    1    2    0    0  0.81029406933E+03 -0.36045474319E+03  0.11058537976E+04  0.16776506134E+04  0.89727078312E+03 0.  0.
         23    2    4    4    0    0  0.68108472061E+03  0.97158528643E+02  0.93191646534E+03  0.11620740686E+04  0.92906760893E+02 0.  0.
         23    2    4    4    0    0  0.12920934872E+03 -0.45761327183E+03  0.17393733226E+03  0.51557654477E+03  0.97262611585E+02 0.  0.
          2    1    3    3  502    0 -0.76249965424E+02  0.13386993457E+02 -0.33072142636E+02  0.84184532068E+02  0.00000000000E+00 0. -1.
         -1    1    3    3    0  502 -0.73404410390E+03  0.34706774973E+03 -0.52537203883E+03  0.96710524172E+03  0.00000000000E+00 0.  1.
         13    1    5    5    0    0  0.45460583567E+03  0.10838985409E+03  0.63749274838E+03  0.79045039727E+03  0.00000000000E+00 0. -1.
        -13    1    5    5    0    0  0.22647888494E+03 -0.11231325447E+02  0.29442371696E+03  0.37162367134E+03  0.00000000000E+00 0.  1.
          2    1    6    6  503    0  0.12695983336E+03 -0.46269252291E+03  0.17201164870E+03  0.50969714276E+03  0.00000000000E+00 0. -1.
         -2    1    6    6    0  503  0.22495153630E+01  0.50792510800E+01  0.19256835596E+01  0.58794020167E+01  0.00000000000E+00 0.  1.
<mgrwt>
<rscale>  0 0.26734731E+04</rscale>
<asrwt>0</asrwt>
<pdfrwt beam="1">  1        2 0.25202692E+00 0.26734731E+04</pdfrwt>
<pdfrwt beam="2">  1       -1 0.16781006E+00 0.26734731E+04</pdfrwt>
<totfact> 0.27143899E+00</totfact>
</mgrwt>
</event>
<event>
12    7  0.1572140E-007  0.1701907E+04  0.7818608E-02  0.8760278E-01
         -1   -1    0    0    0  501 -0.00000000000E+00  0.00000000000E+00  0.48593875344E+03  0.48593875344E+03  0.00000000000E+00 0.  1.
          2   -1    0    0  501    0  0.00000000000E+00 -0.00000000000E+00 -0.14901500304E+04  0.14901500304E+04  0.00000000000E+00 0. -1.
         24    2    1    2    0    0 -0.43094206667E+03  0.30070230413E+03 -0.71650023272E+03  0.89205957852E+03  0.79150285003E+02 0.  0.
        254    2    1    2    0    0  0.43094206667E+03 -0.30070230413E+03 -0.28771104422E+03  0.10840292053E+04  0.90344271122E+03 0.  0.
         23    2    4    4    0    0  0.38587189971E+03 -0.32325524351E+03 -0.58009138781E+03  0.77369227252E+03  0.93287935453E+02 0.  0.
         23    2    4    4    0    0  0.45070166955E+02  0.22552939387E+02  0.29238034360E+03  0.31033693278E+03  0.91009842879E+02 0.  0.
          2    1    3    3  502    0 -0.11246989606E+03  0.61934248537E+02 -0.12569238321E+03  0.17967722131E+03  0.00000000000E+00 0. -1.
         -3    1    3    3    0  502 -0.31847217061E+03  0.23876805559E+03 -0.59080784951E+03  0.71238235721E+03  0.00000000000E+00 0.  1.
         13    1    5    5    0    0  0.38178630111E+03 -0.30526254004E+03 -0.53349808684E+03  0.72357874950E+03  0.00000000000E+00 0. -1.
        -13    1    5    5    0    0  0.40855986055E+01 -0.17992703470E+02 -0.46593300978E+02  0.50113523026E+02  0.00000000000E+00 0.  1.
          2    1    6    6  503    0  0.56801332164E+02  0.48257285271E+02  0.23187680117E+03  0.24356109673E+03  0.00000000000E+00 0. -1.
         -2    1    6    6    0  503 -0.11731165209E+02 -0.25704345884E+02  0.60503542424E+02  0.66775836051E+02  0.00000000000E+00 0.  1.
<mgrwt>
<rscale>  0 0.17019068E+04</rscale>
<asrwt>0</asrwt>
<pdfrwt beam="1">  1        2 0.22925385E+00 0.17019068E+04</pdfrwt>
<pdfrwt beam="2">  1       -1 0.74759810E-01 0.17019068E+04</pdfrwt>
<totfact> 0.25090624E+01</totfact>
</mgrwt>
</event>
<event>
12    7  0.1572140E-007  0.3830852E+04  0.7818608E-02  0.8039566E-01
          2   -1    0    0  501    0  0.00000000000E+00  0.00000000000E+00  0.44395249587E+04  0.44395249587E+04  0.00000000000E+00 0. -1.
         -1   -1    0    0    0  501 -0.00000000000E+00 -0.00000000000E+00 -0.82640770793E+03  0.82640770793E+03  0.00000000000E+00 0.  1.
         24    2    1    2    0    0 -0.10400759091E+04  0.14244004495E+04  0.11447483094E+04  0.21043819203E+04  0.85440258019E+02 0.  0.
        254    2    1    2    0    0  0.10400759091E+04 -0.14244004495E+04  0.24683689414E+04  0.31615507463E+04  0.88987828001E+03 0.  0.
         23    2    4    4    0    0  0.49799245541E+03 -0.27185860123E+03  0.13375980874E+04  0.14559005900E+04  0.92597513895E+02 0.  0.
         23    2    4    4    0    0  0.54208345371E+03 -0.11525418482E+04  0.11307708539E+04  0.17056501563E+04  0.91610855732E+02 0.  0.
          4    1    3    3  502    0 -0.83449525040E+03  0.11767843766E+04  0.90413541276E+03  0.17025465152E+04  0.00000000000E+00 0. -1.
         -3    1    3    3    0  502 -0.20558065872E+03  0.24761607290E+03  0.24061289660E+03  0.40183540512E+03  0.00000000000E+00 0.  1.
         13    1    5    5    0    0  0.47016312460E+03 -0.23972072969E+03  0.12781260720E+04  0.13827963147E+04  0.00000000000E+00 0. -1.
        -13    1    5    5    0    0  0.27829330805E+02 -0.32137871548E+02  0.59472015399E+02  0.73104275226E+02  0.00000000000E+00 0.  1.
          2    1    6    6  503    0  0.36778541374E+03 -0.67666727094E+03  0.68244978508E+03  0.10290201238E+04  0.00000000000E+00 0. -1.
         -2    1    6    6    0  503  0.17429803997E+03 -0.47587457729E+03  0.44832106886E+03  0.67663003246E+03  0.00000000000E+00 0.  1.
<mgrwt>
<rscale>  0 0.38308525E+04</rscale>
<asrwt>0</asrwt>
<pdfrwt beam="1">  1        2 0.68300383E+00 0.38308525E+04</pdfrwt>
<pdfrwt beam="2">  1       -1 0.12713965E+00 0.38308525E+04</pdfrwt>
<totfact> 0.68104414E-02</totfact>
</mgrwt>
</event>
<event>
12    7  0.1917165E-007  0.1287674E+04  0.7818608E-02  0.9039397E-01
          2   -1    0    0  501    0  0.00000000000E+00  0.00000000000E+00  0.14879575686E+04  0.14879575686E+04  0.00000000000E+00 0. -1.
         -1   -1    0    0    0  501 -0.00000000000E+00 -0.00000000000E+00 -0.27858734540E+03  0.27858734540E+03  0.00000000000E+00 0.  1.
         24    2    1    2    0    0 -0.17997736781E+03 -0.16610602517E+03  0.74328936464E+01  0.25766466120E+03  0.79704235768E+02 0.  0.
        254    2    1    2    0    0  0.17997736781E+03  0.16610602517E+03  0.12019373296E+04  0.15088802528E+04  0.87868265523E+03 0.  0.
         23    2    4    4    0    0 -0.26880144184E+03  0.81432283300E+02  0.91503061066E+03  0.96189291189E+03  0.95244546243E+02 0.  0.
         23    2    4    4    0    0  0.44877880965E+03  0.84673741874E+02  0.28690671889E+03  0.54698734092E+03  0.91146164062E+02 0.  0.
          4    1    3    3  502    0 -0.59955800571E+01 -0.12139446418E+02  0.20951692752E+02  0.24945672345E+02  0.00000000000E+00 0. -1.
         -3    1    3    3    0  502 -0.17398178776E+03 -0.15396657876E+03 -0.13518799106E+02  0.23271898886E+03  0.00000000000E+00 0.  1.
         13    1    5    5    0    0 -0.20596728763E+03  0.91744646946E+02  0.79049374392E+03  0.82202187501E+03  0.00000000000E+00 0. -1.
        -13    1    5    5    0    0 -0.62834154206E+02 -0.10312363646E+02  0.12453686674E+03  0.13987103688E+03  0.00000000000E+00 0.  1.
          4    1    6    6  503    0  0.33888659997E+03  0.54947726713E+02  0.16744890761E+03  0.38197187981E+03  0.00000000000E+00 0. -1.
         -4    1    6    6    0  503  0.10989220968E+03  0.29726015161E+02  0.11945781129E+03  0.16501546111E+03  0.00000000000E+00 0.  1.
<mgrwt>
<rscale>  0 0.12876741E+04</rscale>
<asrwt>0</asrwt>
<pdfrwt beam="1">  1        2 0.22891654E+00 0.12876741E+04</pdfrwt>
<pdfrwt beam="2">  1       -1 0.42859593E-01 0.12876741E+04</pdfrwt>
<totfact> 0.77272944E+01</totfact>
</mgrwt>
</event>
<event>
12    7  0.1572140E-007  0.1289129E+04  0.7818608E-02  0.9038231E-01
          2   -1    0    0  501    0  0.00000000000E+00  0.00000000000E+00  0.27384644587E+03  0.27384644587E+03  0.00000000000E+00 0. -1.
         -1   -1    0    0    0  501 -0.00000000000E+00 -0.00000000000E+00 -0.15171393646E+04  0.15171393646E+04  0.00000000000E+00 0.  1.
         24    2    1    2    0    0  0.30403465721E+03  0.10426979132E+03 -0.33467941195E+03  0.47126021324E+03  0.82259453154E+02 0.  0.
        254    2    1    2    0    0 -0.30403465721E+03 -0.10426979132E+03 -0.90861350675E+03  0.13197255972E+04  0.90154749463E+03 0.  0.
         23    2    4    4    0    0 -0.46588090781E+03  0.15897520545E+03 -0.85730255943E+03  0.99327527342E+03  0.96488103831E+02 0.  0.
         23    2    4    4    0    0  0.16184625060E+03 -0.26324499677E+03 -0.51310947328E+02  0.32645032378E+03  0.91895937998E+02 0.  0.
          4    1    3    3  502    0  0.26256922362E+03  0.10436519955E+03 -0.25128341855E+03  0.37812438232E+03  0.00000000000E+00 0. -1.
         -3    1    3    3    0  502  0.41465433589E+02 -0.95408226297E-01 -0.83395993398E+02  0.93135830915E+02  0.00000000000E+00 0.  1.
         13    1    5    5    0    0 -0.10651935397E+03  0.77579098175E+02 -0.25947099193E+03  0.29101560937E+03  0.00000000000E+00 0.  1.
        -13    1    5    5    0    0 -0.35936155384E+03  0.81396107274E+02 -0.59783156750E+03  0.70225966405E+03  0.00000000000E+00 0. -1.
          4    1    6    6  503    0  0.87128917760E+02 -0.11521627067E+03 -0.68263960822E+02  0.15976922634E+03  0.00000000000E+00 0. -1.
         -4    1    6    6    0  503  0.74717332842E+02 -0.14802872610E+03  0.16953013494E+02  0.16668109744E+03  0.00000000000E+00 0.  1.
<mgrwt>
<rscale>  0 0.12891287E+04</rscale>
<asrwt>0</asrwt>
<pdfrwt beam="1">  1        2 0.42130223E-01 0.12891287E+04</pdfrwt>
<pdfrwt beam="2">  1       -1 0.23340606E+00 0.12891287E+04</pdfrwt>
<totfact> 0.12256012E+01</totfact>
</mgrwt>
</event>
<event>
12    7  0.2368838E-007  0.1641030E+04  0.7818608E-02  0.8795731E-01
          2   -1    0    0  501    0  0.00000000000E+00  0.00000000000E+00  0.19969745306E+04  0.19969745306E+04  0.00000000000E+00 0. -1.
         -1   -1    0    0    0  501 -0.00000000000E+00 -0.00000000000E+00 -0.33713232457E+03  0.33713232457E+03  0.00000000000E+00 0.  1.
         24    2    1    2    0    0  0.10652891910E+03 -0.30250358496E+03 -0.73877489589E+02  0.33922558152E+03  0.82214853702E+02 0.  0.
        254    2    1    2    0    0 -0.10652891910E+03  0.30250358496E+03  0.17337196957E+04  0.19948812737E+04  0.93322584808E+03 0.  0.
         23    2    4    4    0    0  0.59195374638E+01  0.60336939363E+03  0.82205614098E+03  0.10240030294E+04  0.93360801171E+02 0.  0.
         23    2    4    4    0    0 -0.11244845657E+03 -0.30086580867E+03  0.91166355468E+03  0.97087824431E+03  0.91155022484E+02 0.  0.
          2    1    3    3  502    0  0.24160813834E+02 -0.82876976268E+02 -0.58250306278E+02  0.10414142452E+03  0.00000000000E+00 0. -1.
         -1    1    3    3    0  502  0.82368105271E+02 -0.21962660869E+03 -0.15627183311E+02  0.23508415699E+03  0.00000000000E+00 0.  1.
         13    1    5    5    0    0  0.37627903468E+02  0.26527641816E+03  0.41396491274E+03  0.49310687090E+03  0.00000000000E+00 0.  1.
        -13    1    5    5    0    0 -0.31708366005E+02  0.33809297547E+03  0.40809122824E+03  0.53089615849E+03  0.00000000000E+00 0. -1.
          4    1    6    6  503    0 -0.29465939858E+02 -0.32099082980E+02  0.61362855353E+02  0.75259502768E+02  0.00000000000E+00 0. -1.
         -4    1    6    6    0  503 -0.82982516710E+02 -0.26876672569E+03  0.85030069933E+03  0.89561874154E+03  0.00000000000E+00 0.  1.
<mgrwt>
<rscale>  0 0.16410298E+04</rscale>
<asrwt>0</asrwt>
<pdfrwt beam="1">  1        2 0.30722684E+00 0.16410298E+04</pdfrwt>
<pdfrwt beam="2">  1       -1 0.51866513E-01 0.16410298E+04</pdfrwt>
<totfact> 0.27331595E+01</totfact>
</mgrwt>
</event>
<event>
12    7  0.1572140E-007  0.1890339E+04  0.7818608E-02  0.8659680E-01
         -1   -1    0    0    0  501 -0.00000000000E+00  0.00000000000E+00  0.10142097321E+04  0.10142097321E+04  0.00000000000E+00 0.  1.
          2   -1    0    0  501    0  0.00000000000E+00 -0.00000000000E+00 -0.88082897296E+03  0.88082897296E+03  0.00000000000E+00 0. -1.
         24    2    1    2    0    0 -0.29072984748E+03 -0.16775653633E+03  0.70236749309E+03  0.78252479040E+03  0.79742413642E+02 0.  0.
        254    2    1    2    0    0  0.29072984748E+03  0.16775653633E+03 -0.56898673393E+03  0.11125139147E+04  0.89513976969E+03 0.  0.
         23    2    4    4    0    0  0.27670414749E+03 -0.12622584463E+02  0.17588395456E+03  0.34071848847E+03  0.91811807736E+02 0.  0.
         23    2    4    4    0    0  0.14025699992E+02  0.18037912080E+03 -0.74487068848E+03  0.77179542621E+03  0.90013831596E+02 0.  0.
          2    1    3    3  502    0 -0.21322958075E+03 -0.80171937854E+02  0.44994522895E+03  0.50432638518E+03  0.00000000000E+00 0. -1.
         -3    1    3    3    0  502 -0.77500266725E+02 -0.87584598480E+02  0.25242226414E+03  0.27819840522E+03  0.00000000000E+00 0.  1.
         13    1    5    5    0    0  0.26594097919E+02  0.27672173615E+02  0.20217842225E+02  0.43379216002E+02  0.00000000000E+00 0.  1.
        -13    1    5    5    0    0  0.25011004957E+03 -0.40294758078E+02  0.15566611233E+03  0.29733927247E+03  0.00000000000E+00 0. -1.
          4    1    6    6  503    0  0.33635263221E+02  0.17668372874E+03 -0.62858530448E+03  0.65381033637E+03  0.00000000000E+00 0. -1.
         -4    1    6    6    0  503 -0.19609563230E+02  0.36953920587E+01 -0.11628538400E+03  0.11798508984E+03  0.00000000000E+00 0.  1.
<mgrwt>
<rscale>  0 0.18903389E+04</rscale>
<asrwt>0</asrwt>
<pdfrwt beam="1">  1        2 0.13551215E+00 0.18903389E+04</pdfrwt>
<pdfrwt beam="2">  1       -1 0.15603227E+00 0.18903389E+04</pdfrwt>
<totfact> 0.10127584E+01</totfact>
</mgrwt>
</event>
<event>
12    7  0.1572140E-007  0.3081844E+04  0.7818608E-02  0.8220738E-01
         -1   -1    0    0    0  501 -0.00000000000E+00  0.00000000000E+00  0.13594305068E+04  0.13594305068E+04  0.00000000000E+00 0.  1.
          2   -1    0    0  501    0  0.00000000000E+00 -0.00000000000E+00 -0.17466437071E+04  0.17466437071E+04  0.00000000000E+00 0. -1.
         24    2    1    2    0    0  0.13382528826E+04  0.45067350719E+03 -0.24827756633E+03  0.14360254994E+04  0.80623179871E+02 0.  0.
        254    2    1    2    0    0 -0.13382528826E+04 -0.45067350719E+03 -0.13893563391E+03  0.16700487145E+04  0.88075661259E+03 0.  0.
         23    2    4    4    0    0 -0.91842328771E+03 -0.30169744907E+03  0.32184251681E+03  0.10228368319E+04  0.89943831978E+02 0.  0.
         23    2    4    4    0    0 -0.41982959489E+03 -0.14897605812E+03 -0.46077815072E+03  0.64721188260E+03  0.90088635018E+02 0.  0.
          2    1    3    3  502    0  0.69649988135E+03  0.20820043927E+03 -0.95622931181E+02  0.73321432924E+03  0.00000000000E+00 0. -1.
         -1    1    3    3    0  502  0.64175300124E+03  0.24247306792E+03 -0.15265463515E+03  0.70281117016E+03  0.00000000000E+00 0.  1.
         13    1    5    5    0    0 -0.50519062961E+03 -0.11925965809E+03  0.17913507596E+03  0.54911730416E+03  0.00000000000E+00 0. -1.
        -13    1    5    5    0    0 -0.41323265810E+03 -0.18243779098E+03  0.14270744085E+03  0.47371952775E+03  0.00000000000E+00 0.  1.
          3    1    6    6  503    0 -0.50878315771E+02 -0.22884206482E+02 -0.10727806152E+03  0.12091679952E+03  0.00000000000E+00 0. -1.
         -3    1    6    6    0  503 -0.36895127912E+03 -0.12609185163E+03 -0.35350008920E+03  0.52629508308E+03  0.00000000000E+00 0.  1.
<mgrwt>
<rscale>  0 0.30818441E+04</rscale>
<asrwt>0</asrwt>
<pdfrwt beam="1">  1        2 0.26871442E+00 0.30818441E+04</pdfrwt>
<pdfrwt beam="2">  1       -1 0.20914316E+00 0.30818441E+04</pdfrwt>
<totfact> 0.11648223E+00</totfact>
</mgrwt>
</event>
<event>
12    7  0.1572140E-007  0.2280251E+04  0.7818608E-02  0.8485749E-01
          2   -1    0    0  501    0  0.00000000000E+00  0.00000000000E+00  0.69223498580E+03  0.69223498580E+03  0.00000000000E+00 0. -1.
         -1   -1    0    0    0  501 -0.00000000000E+00 -0.00000000000E+00 -0.18778111170E+04  0.18778111170E+04  0.00000000000E+00 0.  1.
         24    2    1    2    0    0 -0.38954836716E+02  0.97528100732E+03 -0.66812606864E+03  0.11855698625E+04  0.80578736250E+02 0.  0.
        254    2    1    2    0    0  0.38954836716E+02 -0.97528100732E+03 -0.51745006254E+03  0.13844762403E+04  0.83446352236E+03 0.  0.
         23    2    4    4    0    0 -0.27321519098E+03 -0.27861640212E+03  0.82270110842E+02  0.40914358650E+03  0.91413692226E+02 0.  0.
         23    2    4    4    0    0  0.31217002769E+03 -0.69666460520E+03 -0.59972017338E+03  0.97533265378E+03  0.93903146081E+02 0.  0.
          4    1    3    3  502    0 -0.15861020837E+02  0.90982755095E+03 -0.61977584783E+03  0.11009813105E+04  0.00000000000E+00 0. -1.
         -3    1    3    3    0  502 -0.23093815879E+02  0.65453456362E+02 -0.48350220811E+02  0.84588552028E+02  0.00000000000E+00 0.  1.
         13    1    5    5    0    0 -0.19830150151E+03 -0.18731741354E+03  0.14926574419E+02  0.27319242585E+03  0.00000000000E+00 0. -1.
        -13    1    5    5    0    0 -0.74913689469E+02 -0.91298988578E+02  0.67343536423E+02  0.13595116065E+03  0.00000000000E+00 0.  1.
          1    1    6    6  503    0  0.23977040569E+03 -0.43042646801E+03 -0.36660472011E+03  0.61413012677E+03  0.00000000000E+00 0. -1.
         -1    1    6    6    0  503  0.72399622004E+02 -0.26623813719E+03 -0.23311545328E+03  0.36120252701E+03  0.00000000000E+00 0.  1.
<mgrwt>
<rscale>  0 0.22802513E+04</rscale>
<asrwt>0</asrwt>
<pdfrwt beam="1">  1        2 0.10649769E+00 0.22802513E+04</pdfrwt>
<pdfrwt beam="2">  1       -1 0.28889402E+00 0.22802513E+04</pdfrwt>
<totfact> 0.16787936E+00</totfact>
</mgrwt>
</event>
<event>
12    7  0.1572140E-007  0.2359123E+04  0.7818608E-02  0.8454968E-01
          2   -1    0    0  501    0  0.00000000000E+00  0.00000000000E+00  0.19109091479E+04  0.19109091479E+04  0.00000000000E+00 0. -1.
         -1   -1    0    0    0  501 -0.00000000000E+00 -0.00000000000E+00 -0.72811714355E+03  0.72811714355E+03  0.00000000000E+00 0.  1.
         24    2    1    2    0    0 -0.81882254611E+03  0.10782108299E+03  0.11478180655E+04  0.14162311934E+04  0.78286229439E+02 0.  0.
        254    2    1    2    0    0  0.81882254611E+03 -0.10782108299E+03  0.34973938886E+02  0.12227950981E+04  0.90105989121E+03 0.  0.
         23    2    4    4    0    0  0.45233624791E+03 -0.87143080281E+02  0.45758815794E+03  0.65575023543E+03  0.91757568428E+02 0.  0.
         23    2    4    4    0    0  0.36648629820E+03 -0.20678002712E+02 -0.42261421906E+03  0.56704486265E+03  0.90539005695E+02 0.  0.
          4    1    3    3  502    0 -0.45658030701E+03  0.79566648928E+02  0.58534497858E+03  0.74660911615E+03  0.00000000000E+00 0. -1.
         -3    1    3    3    0  502 -0.36224223910E+03  0.28254434065E+02  0.56247308690E+03  0.66962207723E+03  0.00000000000E+00 0.  1.
         13    1    5    5    0    0  0.20244731177E-01 -0.73449502901E+01  0.20247746387E+02  0.21538800764E+02  0.00000000000E+00 0. -1.
        -13    1    5    5    0    0  0.45231600318E+03 -0.79798129991E+02  0.43734041155E+03  0.63421143467E+03  0.00000000000E+00 0.  1.
          2    1    6    6  503    0  0.30339192430E+03 -0.50456264655E+01 -0.29181726615E+03  0.42098626451E+03  0.00000000000E+00 0. -1.
         -2    1    6    6    0  503  0.63094373895E+02 -0.15632376246E+02 -0.13079695290E+03  0.14605859815E+03  0.00000000000E+00 0.  1.
<mgrwt>
<rscale>  0 0.23591233E+04</rscale>
<asrwt>0</asrwt>
<pdfrwt beam="1">  1        2 0.29398602E+00 0.23591233E+04</pdfrwt>
<pdfrwt beam="2">  1       -1 0.11201802E+00 0.23591233E+04</pdfrwt>
<totfact> 0.56205161E+00</totfact>
</mgrwt>
</event>
<event>
12    7  0.1572140E-007  0.2259495E+04  0.7818608E-02  0.8494065E-01
          2   -1    0    0  501    0  0.00000000000E+00  0.00000000000E+00  0.11392045781E+04  0.11392045781E+04  0.00000000000E+00 0. -1.
         -1   -1    0    0    0  501 -0.00000000000E+00 -0.00000000000E+00 -0.11203691915E+04  0.11203691915E+04  0.00000000000E+00 0.  1.
         24    2    1    2    0    0 -0.69392408300E+03 -0.57271878066E+03  0.27251791341E+03  0.94333548240E+03  0.77963995084E+02 0.  0.
        254    2    1    2    0    0  0.69392408300E+03  0.57271878066E+03 -0.25368252682E+03  0.13162382871E+04  0.92660183975E+03 0.  0.
         23    2    4    4    0    0  0.27474963915E+03  0.74942799377E+03 -0.28139427247E+03  0.85123309448E+03  0.91023966650E+02 0.  0.
         23    2    4    4    0    0  0.41917444385E+03 -0.17670921311E+03  0.27711745654E+02  0.46500519265E+03  0.92350029640E+02 0.  0.
          4    1    3    3  502    0 -0.16231541001E+03 -0.14048098382E+03  0.31175738385E+02  0.21691732481E+03  0.00000000000E+00 0. -1.
         -3    1    3    3    0  502 -0.53160867299E+03 -0.43223779684E+03  0.24134217502E+03  0.72641815758E+03  0.00000000000E+00 0.  1.
         13    1    5    5    0    0  0.19746769386E+03  0.60293431076E+03 -0.19116372289E+03  0.66262119055E+03  0.00000000000E+00 0.  1.
        -13    1    5    5    0    0  0.77281945290E+02  0.14649368301E+03 -0.90230549581E+02  0.18861190394E+03  0.00000000000E+00 0. -1.
          1    1    6    6  503    0  0.12108905339E+03 -0.29366283067E+02  0.43878665047E+02  0.13209948780E+03  0.00000000000E+00 0. -1.
         -1    1    6    6    0  503  0.29808539046E+03 -0.14734293004E+03 -0.16166919393E+02  0.33290570485E+03  0.00000000000E+00 0.  1.
<mgrwt>
<rscale>  0 0.22594953E+04</rscale>
<asrwt>0</asrwt>
<pdfrwt beam="1">  1        2 0.17526224E+00 0.22594953E+04</pdfrwt>
<pdfrwt beam="2">  1       -1 0.17236449E+00 0.22594953E+04</pdfrwt>
<totfact> 0.50538401E+00</totfact>
</mgrwt>
</event>
<event>
12    7  0.1572140E-007  0.2384928E+04  0.7818608E-02  0.8445168E-01
          2   -1    0    0  501    0  0.00000000000E+00  0.00000000000E+00  0.25692346310E+04  0.25692346310E+04  0.00000000000E+00 0. -1.
         -1   -1    0    0    0  501 -0.00000000000E+00 -0.00000000000E+00 -0.55346074106E+03  0.55346074106E+03  0.00000000000E+00 0.  1.
         24    2    1    2    0    0 -0.63248864585E+02  0.55558589445E+03  0.19843408801E+04  0.20631177828E+04  0.78550316797E+02 0.  0.
        254    2    1    2    0    0  0.63248864585E+02 -0.55558589445E+03  0.31433009829E+02  0.10595775892E+04  0.89946680236E+03 0.  0.
         23    2    4    4    0    0 -0.24175327570E+03 -0.21042066034E+03 -0.32791044944E+03  0.46793284342E+03  0.93350856927E+02 0.  0.
         23    2    4    4    0    0  0.30500214029E+03 -0.34516523411E+03  0.35934345927E+03  0.59164474583E+03  0.93543781898E+02 0.  0.
          2    1    3    3  502    0 -0.18910545559E+02  0.32160252843E+03  0.10121343035E+04  0.10621683687E+04  0.00000000000E+00 0. -1.
         -3    1    3    3    0  502 -0.44338319026E+02  0.23398336602E+03  0.97220657661E+03  0.10009494142E+04  0.00000000000E+00 0.  1.
         13    1    5    5    0    0 -0.14961532608E+03 -0.79892577460E+02 -0.20673237777E+03  0.26740576985E+03  0.00000000000E+00 0. -1.
        -13    1    5    5    0    0 -0.92137949622E+02 -0.13052808288E+03 -0.12117807167E+03  0.20052707357E+03  0.00000000000E+00 0.  1.
          1    1    6    6  503    0  0.29293434259E+03 -0.28870435665E+03  0.32717865106E+03  0.52555361699E+03  0.00000000000E+00 0. -1.
         -1    1    6    6    0  503  0.12067797695E+02 -0.56460877460E+02  0.32164808209E+02  0.66091128844E+02  0.00000000000E+00 0.  1.
<mgrwt>
<rscale>  0 0.23849281E+04</rscale>
<asrwt>0</asrwt>
<pdfrwt beam="1">  1        2 0.39526686E+00 0.23849281E+04</pdfrwt>
<pdfrwt beam="2">  1       -1 0.85147808E-01 0.23849281E+04</pdfrwt>
<totfact> 0.44313088E+00</totfact>
</mgrwt>
</event>
<event>
12    7  0.1572140E-007  0.1249981E+04  0.7818608E-02  0.9070199E-01
          2   -1    0    0  501    0  0.00000000000E+00  0.00000000000E+00  0.35132874333E+03  0.35132874333E+03  0.00000000000E+00 0. -1.
         -1   -1    0    0    0  501 -0.00000000000E+00 -0.00000000000E+00 -0.11118162478E+04  0.11118162478E+04  0.00000000000E+00 0.  1.
         24    2    1    2    0    0 -0.27503332590E+03 -0.24023572235E+02 -0.69630006604E+02  0.29480028995E+03  0.76409493896E+02 0.  0.
        254    2    1    2    0    0  0.27503332590E+03  0.24023572235E+02 -0.69085749786E+03  0.11683447012E+04  0.90084671062E+03 0.  0.
         23    2    4    4    0    0 -0.12701368612E+03 -0.29759976322E+03 -0.51826526022E+03  0.61781433594E+03  0.91638300964E+02 0.  0.
         23    2    4    4    0    0  0.40204701201E+03  0.32162333546E+03 -0.17259223764E+03  0.55053036523E+03  0.90621370392E+02 0.  0.
          4    1    3    3  502    0 -0.27210201446E+02 -0.17090496560E+02 -0.29563931025E+02  0.43663556349E+02  0.00000000000E+00 0. -1.
         -3    1    3    3    0  502 -0.24782312445E+03 -0.69330756751E+01 -0.40066075579E+02  0.25113673360E+03  0.00000000000E+00 0.  1.
         13    1    5    5    0    0 -0.91245081303E+02 -0.10230972143E+03 -0.23105170422E+03  0.26865932700E+03  0.00000000000E+00 0. -1.
        -13    1    5    5    0    0 -0.35768604816E+02 -0.19529004179E+03 -0.28721355600E+03  0.34915500893E+03  0.00000000000E+00 0.  1.
          1    1    6    6  503    0  0.19549966264E+03  0.10493226241E+03 -0.52692840900E+02  0.22805138296E+03  0.00000000000E+00 0. -1.
         -1    1    6    6    0  503  0.20654734937E+03  0.21669107305E+03 -0.11989939674E+03  0.32247898227E+03  0.00000000000E+00 0.  1.
<mgrwt>
<rscale>  0 0.12499808E+04</rscale>
<asrwt>0</asrwt>
<pdfrwt beam="1">  1        2 0.54050576E-01 0.12499808E+04</pdfrwt>
<pdfrwt beam="2">  1       -1 0.17104865E+00 0.12499808E+04</pdfrwt>
<totfact> 0.25048566E+01</totfact>
</mgrwt>
</event>
<event>
12    7  0.1572140E-007  0.2391400E+04  0.7818608E-02  0.8442730E-01
         -1   -1    0    0    0  501 -0.00000000000E+00  0.00000000000E+00  0.65877434811E+03  0.65877434811E+03  0.00000000000E+00 0.  1.
          2   -1    0    0  501    0  0.00000000000E+00 -0.00000000000E+00 -0.21702396702E+04  0.21702396702E+04  0.00000000000E+00 0. -1.
         24    2    1    2    0    0 -0.45876652934E+02 -0.10265595295E+04 -0.66573613662E+03  0.12269447218E+04  0.79117708056E+02 0.  0.
        254    2    1    2    0    0  0.45876652934E+02  0.10265595295E+04 -0.84572918548E+03  0.16020692966E+04  0.89187389294E+03 0.  0.
         23    2    4    4    0    0  0.45286604612E+03  0.64648668619E+03 -0.54069571647E+03  0.96178195255E+03  0.98183375880E+02 0.  0.
         23    2    4    4    0    0 -0.40698939318E+03  0.38007284332E+03 -0.30503346901E+03  0.64028734401E+03  0.82624047896E+02 0.  0.
          4    1    3    3  502    0 -0.41075058482E+02 -0.73886702382E+03 -0.43731649098E+03  0.85956811981E+03  0.00000000000E+00 0. -1.
         -1    1    3    3    0  502 -0.48015944520E+01 -0.28769250569E+03 -0.22841964564E+03  0.36737660194E+03  0.00000000000E+00 0.  1.
         13    1    5    5    0    0  0.43105719314E+03  0.59282940211E+03 -0.52553283000E+03  0.90191006157E+03  0.00000000000E+00 0. -1.
        -13    1    5    5    0    0  0.21808852974E+02  0.53657284082E+02 -0.15162886474E+02  0.59871890978E+02  0.00000000000E+00 0.  1.
          2    1    6    6  503    0 -0.25904177903E+03  0.21288004014E+03 -0.22184276575E+03  0.40203826621E+03  0.00000000000E+00 0. -1.
         -2    1    6    6    0  503 -0.14794761415E+03  0.16719280318E+03 -0.83190703255E+02  0.23824907781E+03  0.00000000000E+00 0.  1.
<mgrwt>
<rscale>  0 0.23913998E+04</rscale>
<asrwt>0</asrwt>
<pdfrwt beam="1">  1        2 0.33388303E+00 0.23913998E+04</pdfrwt>
<pdfrwt beam="2">  1       -1 0.10134990E+00 0.23913998E+04</pdfrwt>
<totfact> 0.50774889E+00</totfact>
</mgrwt>
</event>
<event>
12    7  0.1621145E-007  0.2030908E+04  0.7818608E-02  0.8592305E-01
         -1   -1    0    0    0  501 -0.00000000000E+00  0.00000000000E+00  0.17406086702E+04  0.17406086702E+04  0.00000000000E+00 0.  1.
          2   -1    0    0  501    0  0.00000000000E+00 -0.00000000000E+00 -0.59240579902E+03  0.59240579902E+03  0.00000000000E+00 0. -1.
         24    2    1    2    0    0 -0.47204159292E+03 -0.31891015653E+03  0.11350704297E+04  0.12721745024E+04  0.74270659923E+02 0.  0.
        254    2    1    2    0    0  0.47204159292E+03  0.31891015653E+03  0.13132441532E+02  0.10608399668E+04  0.89480837099E+03 0.  0.
         23    2    4    4    0    0  0.27616277382E+03  0.60266882868E+03 -0.12112069601E+03  0.68017066523E+03  0.92121203475E+02 0.  0.
         23    2    4    4    0    0  0.19587881910E+03 -0.28375867215E+03  0.13425313754E+03  0.38066930159E+03  0.89429952687E+02 0.  0.
          4    1    3    3  502    0 -0.76973019605E+02 -0.44060399429E+02  0.24098490939E+03  0.25678763814E+03  0.00000000000E+00 0. -1.
         -3    1    3    3    0  502 -0.39506857331E+03 -0.27484975710E+03  0.89408552026E+03  0.10153868643E+04  0.00000000000E+00 0.  1.
         13    1    5    5    0    0  0.11803414186E+03  0.34490913973E+03 -0.94541671532E+02  0.37660655992E+03  0.00000000000E+00 0. -1.
        -13    1    5    5    0    0  0.15812863197E+03  0.25775968894E+03 -0.26579024480E+02  0.30356410531E+03  0.00000000000E+00 0.  1.
          1    1    6    6  503    0  0.19244974211E+03 -0.22009240240E+03  0.11339418425E+03  0.31358541078E+03  0.00000000000E+00 0. -1.
         -1    1    6    6    0  503  0.34290769855E+01 -0.63666269752E+02  0.20858953298E+02  0.67083890807E+02  0.00000000000E+00 0.  1.
<mgrwt>
<rscale>  0 0.20309078E+04</rscale>
<asrwt>0</asrwt>
<pdfrwt beam="1">  1        2 0.91139354E-01 0.20309078E+04</pdfrwt>
<pdfrwt beam="2">  1       -1 0.26778595E+00 0.20309078E+04</pdfrwt>
<totfact> 0.28471242E+00</totfact>
</mgrwt>
</event>
<event>
12    7  0.1572140E-007  0.2682302E+04  0.7818608E-02  0.8340770E-01
         -1   -1    0    0    0  501 -0.00000000000E+00  0.00000000000E+00  0.12486093897E+04  0.12486093897E+04  0.00000000000E+00 0.  1.
          2   -1    0    0  501    0  0.00000000000E+00 -0.00000000000E+00 -0.14405508905E+04  0.14405508905E+04  0.00000000000E+00 0. -1.
         24    2    1    2    0    0 -0.35835282025E+03  0.59706059472E+03  0.90103396226E+03  0.11416155535E+04  0.80782257921E+02 0.  0.
        254    2    1    2    0    0  0.35835282025E+03 -0.59706059472E+03 -0.10929754631E+04  0.15475447267E+04  0.84581393974E+03 0.  0.
         23    2    4    4    0    0  0.43438778597E+03 -0.76640322272E+03 -0.81287351551E+03  0.12022639997E+04  0.92783211787E+02 0.  0.
         23    2    4    4    0    0 -0.76034965721E+02  0.16934262800E+03 -0.28010194763E+03  0.34528072702E+03  0.79394191942E+02 0.  0.
          4    1    3    3  502    0 -0.76821692954E+02  0.19852806671E+03  0.28635079043E+03  0.35680770866E+03  0.00000000000E+00 0. -1.
         -3    1    3    3    0  502 -0.28153112730E+03  0.39853252801E+03  0.61468317184E+03  0.78480784480E+03  0.00000000000E+00 0.  1.
         13    1    5    5    0    0  0.21730285190E+03 -0.42210709514E+03 -0.38019047400E+03  0.60822670587E+03  0.00000000000E+00 0. -1.
        -13    1    5    5    0    0  0.21708493407E+03 -0.34429612758E+03 -0.43268304150E+03  0.59403729384E+03  0.00000000000E+00 0.  1.
          3    1    6    6  503    0 -0.50910265735E+02  0.16452010080E+03 -0.26348455436E+03  0.31477425103E+03  0.00000000000E+00 0. -1.
         -3    1    6    6    0  503 -0.25124699986E+02  0.48225271941E+01 -0.16617393265E+02  0.30506475982E+02  0.00000000000E+00 0.  1.
<mgrwt>
<rscale>  0 0.26823015E+04</rscale>
<asrwt>0</asrwt>
<pdfrwt beam="1">  1        2 0.22162321E+00 0.26823015E+04</pdfrwt>
<pdfrwt beam="2">  1       -1 0.19209375E+00 0.26823015E+04</pdfrwt>
<totfact> 0.23452159E+00</totfact>
</mgrwt>
</event>
<event>
12    7  0.1572140E-007  0.3370950E+04  0.7818608E-02  0.8145073E-01
         -1   -1    0    0    0  501 -0.00000000000E+00  0.00000000000E+00  0.11827418414E+04  0.11827418414E+04  0.00000000000E+00 0.  1.
          2   -1    0    0  501    0  0.00000000000E+00 -0.00000000000E+00 -0.24018987603E+04  0.24018987603E+04  0.00000000000E+00 0. -1.
         24    2    1    2    0    0  0.11141718717E+04  0.58152286874E+03  0.42496149364E+03  0.13292787427E+04  0.82715766864E+02 0.  0.
        254    2    1    2    0    0 -0.11141718717E+04 -0.58152286874E+03 -0.16441184125E+04  0.22553618590E+04  0.89665152320E+03 0.  0.
         23    2    4    4    0    0  0.96315237231E+02 -0.16242869671E+03 -0.65998548321E+02  0.22076246753E+03  0.93383897168E+02 0.  0.
         23    2    4    4    0    0 -0.12104871089E+04 -0.41909417202E+03 -0.15781198642E+04  0.20345993914E+04  0.90627876802E+02 0.  0.
          2    1    3    3  502    0  0.65782437074E+03  0.38531370998E+03  0.27394788570E+03  0.81009073685E+03  0.00000000000E+00 0. -1.
         -1    1    3    3    0  502  0.45634750096E+03  0.19620915875E+03  0.15101360794E+03  0.51918800583E+03  0.00000000000E+00 0.  1.
         13    1    5    5    0    0  0.58727859220E+02 -0.72372515283E+02  0.14418751636E+02  0.94311414027E+02  0.00000000000E+00 0.  1.
        -13    1    5    5    0    0  0.37587378011E+02 -0.90056181429E+02 -0.80417299957E+02  0.12645105350E+03  0.00000000000E+00 0. -1.
          4    1    6    6  503    0 -0.50402268858E+03 -0.19157634901E+03 -0.59848158159E+03  0.80555606360E+03  0.00000000000E+00 0. -1.
         -4    1    6    6    0  503 -0.70646442036E+03 -0.22751782302E+03 -0.97963828259E+03  0.12290433278E+04  0.00000000000E+00 0.  1.
<mgrwt>
<rscale>  0 0.33709501E+04</rscale>
<asrwt>0</asrwt>
<pdfrwt beam="1">  1        2 0.36952288E+00 0.33709501E+04</pdfrwt>
<pdfrwt beam="2">  1       -1 0.18196028E+00 0.33709501E+04</pdfrwt>
<totfact> 0.75402370E-01</totfact>
</mgrwt>
</event>
<event>
12    7  0.1572140E-007  0.2064764E+04  0.7818608E-02  0.8576926E-01
          2   -1    0    0  501    0  0.00000000000E+00  0.00000000000E+00  0.36514963459E+04  0.36514963459E+04  0.00000000000E+00 0. -1.
         -1   -1    0    0    0  501 -0.00000000000E+00 -0.00000000000E+00 -0.29188391242E+03  0.29188391242E+03  0.00000000000E+00 0.  1.
         24    2    1    2    0    0 -0.38372292902E+03  0.27437559679E+03  0.26776670091E+04  0.27200434256E+04  0.78805909141E+02 0.  0.
        254    2    1    2    0    0  0.38372292902E+03 -0.27437559679E+03  0.68194542433E+03  0.12233368326E+04  0.89943214863E+03 0.  0.
         23    2    4    4    0    0  0.25278170256E+03  0.44962178667E+01  0.82799628503E+03  0.87043172811E+03  0.90303599891E+02 0.  0.
         23    2    4    4    0    0  0.13094122646E+03 -0.27887181465E+03 -0.14605086070E+03  0.35290510454E+03  0.91082737690E+02 0.  0.
          2    1    3    3  502    0 -0.90243190827E+02  0.27992945230E+02  0.47789673271E+03  0.48714753987E+03  0.00000000000E+00 0. -1.
         -1    1    3    3    0  502 -0.29347973819E+03  0.24638265156E+03  0.21997702764E+04  0.22328958858E+04  0.00000000000E+00 0.  1.
         13    1    5    5    0    0  0.22453691856E+03  0.16546602264E+02  0.60885684359E+03  0.64915119489E+03  0.00000000000E+00 0.  1.
        -13    1    5    5    0    0  0.28244784005E+02 -0.12050384397E+02  0.21913944144E+03  0.22128053322E+03  0.00000000000E+00 0. -1.
          3    1    6    6  503    0  0.86090124286E+02 -0.89879644581E+02 -0.35566641798E+02  0.12944051150E+03  0.00000000000E+00 0. -1.
         -3    1    6    6    0  503  0.44851102172E+02 -0.18899217007E+03 -0.11048421890E+03  0.22346459304E+03  0.00000000000E+00 0.  1.
<mgrwt>
<rscale>  0 0.20647644E+04</rscale>
<asrwt>0</asrwt>
<pdfrwt beam="1">  1        2 0.56176864E+00 0.20647644E+04</pdfrwt>
<pdfrwt beam="2">  1       -1 0.44905220E-01 0.20647644E+04</pdfrwt>
<totfact> 0.32966537E+00</totfact>
</mgrwt>
</event>
<event>
12    7  0.1572140E-007  0.1657723E+04  0.7818608E-02  0.8785851E-01
          2   -1    0    0  501    0  0.00000000000E+00  0.00000000000E+00  0.13539861825E+04  0.13539861825E+04  0.00000000000E+00 0. -1.
         -1   -1    0    0    0  501 -0.00000000000E+00 -0.00000000000E+00 -0.50739922785E+03  0.50739922785E+03  0.00000000000E+00 0.  1.
         24    2    1    2    0    0 -0.23279596592E+03 -0.37392916778E+03 -0.70976271267E+02  0.45325960577E+03  0.79935316807E+02 0.  0.
        254    2    1    2    0    0  0.23279596592E+03  0.37392916778E+03  0.91756322591E+03  0.14081258046E+04  0.97307709032E+03 0.  0.
         23    2    4    4    0    0 -0.27488714954E+03  0.31901566067E+03  0.74658732368E+03  0.86210659069E+03  0.92201979872E+02 0.  0.
         23    2    4    4    0    0  0.50768311546E+03  0.54913507111E+02  0.17097590223E+03  0.54601921389E+03  0.90258427915E+02 0.  0.
          4    1    3    3  502    0 -0.14063948224E+02 -0.24577046871E+02 -0.26337553471E+02  0.38671599339E+02  0.00000000000E+00 0. -1.
         -3    1    3    3    0  502 -0.21873201769E+03 -0.34935212091E+03 -0.44638717795E+02  0.41458800643E+03  0.00000000000E+00 0.  1.
         13    1    5    5    0    0 -0.19272668638E+03  0.15528232005E+03  0.41068471509E+03  0.47949776826E+03  0.00000000000E+00 0. -1.
        -13    1    5    5    0    0 -0.82160463160E+02  0.16373334063E+03  0.33590260859E+03  0.38260882243E+03  0.00000000000E+00 0.  1.
          3    1    6    6  503    0  0.87130554848E+02  0.39937509428E+02  0.50272587814E+02  0.10823156348E+03  0.00000000000E+00 0. -1.
         -3    1    6    6    0  503  0.42055256061E+03  0.14975997683E+02  0.12070331441E+03  0.43778765041E+03  0.00000000000E+00 0.  1.
<mgrwt>
<rscale>  0 0.16577232E+04</rscale>
<asrwt>0</asrwt>
<pdfrwt beam="1">  1        2 0.20830557E+00 0.16577232E+04</pdfrwt>
<pdfrwt beam="2">  1       -1 0.78061420E-01 0.16577232E+04</pdfrwt>
<totfact> 0.27505921E+01</totfact>
</mgrwt>
</event>
<event>
12    7  0.1572140E-007  0.1496192E+04  0.7818608E-02  0.8886989E-01
          2   -1    0    0  501    0  0.00000000000E+00  0.00000000000E+00  0.25838109413E+04  0.25838109413E+04  0.00000000000E+00 0. -1.
         -1   -1    0    0    0  501 -0.00000000000E+00 -0.00000000000E+00 -0.21659775538E+03  0.21659775538E+03  0.00000000000E+00 0.  1.
         24    2    1    2    0    0 -0.15586162813E+03 -0.31624286961E+03  0.16977587397E+03  0.40132872734E+03  0.89098262058E+02 0.  0.
        254    2    1    2    0    0  0.15586162813E+03  0.31624286961E+03  0.21974373120E+04  0.23990799694E+04  0.89585242067E+03 0.  0.
         23    2    4    4    0    0 -0.11391183125E+03  0.26349088600E+03  0.15951276204E+03  0.34077334409E+03  0.90987902974E+02 0.  0.
         23    2    4    4    0    0  0.26977345938E+03  0.52751983605E+02  0.20379245499E+04  0.20583066253E+04  0.89046062272E+02 0.  0.
          4    1    3    3  502    0 -0.24976655126E+02 -0.30652940115E+02  0.53108060844E+02  0.66211042626E+02  0.00000000000E+00 0. -1.
         -3    1    3    3    0  502 -0.13088497301E+03 -0.28558992949E+03  0.11666781313E+03  0.33511768471E+03  0.00000000000E+00 0.  1.
         13    1    5    5    0    0 -0.64859589406E+02  0.22258418549E+03  0.15015884193E+03  0.27622122254E+03  0.00000000000E+00 0.  1.
        -13    1    5    5    0    0 -0.49052241840E+02  0.40906700512E+02  0.93539201042E+01  0.64552121558E+02  0.00000000000E+00 0. -1.
          3    1    6    6  503    0  0.20444221750E+03  0.42720643023E+02  0.12229763215E+04  0.12406823754E+04  0.00000000000E+00 0. -1.
         -3    1    6    6    0  503  0.65331241882E+02  0.10031340582E+02  0.81494822845E+03  0.81762424990E+03  0.00000000000E+00 0.  1.
<mgrwt>
<rscale>  0 0.14961920E+04</rscale>
<asrwt>0</asrwt>
<pdfrwt beam="1">  1        2 0.39750935E+00 0.14961920E+04</pdfrwt>
<pdfrwt beam="2">  1       -1 0.33322734E-01 0.14961920E+04</pdfrwt>
<totfact> 0.29106450E+01</totfact>
</mgrwt>
</event>
<event>
12    7  0.1572140E-007  0.1157389E+04  0.7818608E-02  0.9150994E-01
          2   -1    0    0  501    0  0.00000000000E+00  0.00000000000E+00  0.12404014861E+04  0.12404014861E+04  0.00000000000E+00 0. -1.
         -1   -1    0    0    0  501 -0.00000000000E+00 -0.00000000000E+00 -0.26998288125E+03  0.26998288125E+03  0.00000000000E+00 0.  1.
         24    2    1    2    0    0  0.11213232113E+03  0.16899757814E+03  0.10266843766E+03  0.24108614018E+03  0.80298692617E+02 0.  0.
        254    2    1    2    0    0 -0.11213232113E+03 -0.16899757814E+03  0.86775016722E+03  0.12692982272E+04  0.90387709231E+03 0.  0.
         23    2    4    4    0    0 -0.41017581411E+03  0.55430038713E+02  0.76022510825E+03  0.87027788705E+03  0.90137105516E+02 0.  0.
         23    2    4    4    0    0  0.29804349298E+03 -0.22442761686E+03  0.10752505897E+03  0.39902034016E+03  0.91966921429E+02 0.  0.
          4    1    3    3  502    0  0.23641366817E+02 -0.32865360098E+01  0.59534173636E+01  0.24599974029E+02  0.00000000000E+00 0. -1.
         -3    1    3    3    0  502  0.88490954317E+02  0.17228411415E+03  0.96715020292E+02  0.21648616615E+03  0.00000000000E+00 0.  1.
         13    1    5    5    0    0 -0.14903936334E+03  0.18423973752E+02  0.19139910106E+03  0.24328129916E+03  0.00000000000E+00 0.  1.
        -13    1    5    5    0    0 -0.26113645077E+03  0.37006064961E+02  0.56882600719E+03  0.62699658789E+03  0.00000000000E+00 0. -1.
          2    1    6    6  503    0  0.29945024248E+03 -0.20884381594E+03  0.11342539425E+03  0.38229766837E+03  0.00000000000E+00 0. -1.
         -2    1    6    6    0  503 -0.14067495078E+01 -0.15583800917E+02 -0.59003352810E+01  0.16722671785E+02  0.00000000000E+00 0.  1.
<mgrwt>
<rscale>  0 0.11573887E+04</rscale>
<asrwt>0</asrwt>
<pdfrwt beam="1">  1        2 0.19083099E+00 0.11573887E+04</pdfrwt>
<pdfrwt beam="2">  1       -1 0.41535829E-01 0.11573887E+04</pdfrwt>
<totfact> 0.11478529E+02</totfact>
</mgrwt>
</event>
<event>
12    7  0.1572140E-007  0.1257881E+04  0.7818608E-02  0.9063649E-01
         -3   -1    0    0    0  501 -0.00000000000E+00  0.00000000000E+00  0.88132524531E+03  0.88132524531E+03  0.00000000000E+00 0.  1.
          4   -1    0    0  501    0  0.00000000000E+00 -0.00000000000E+00 -0.44883137907E+03  0.44883137907E+03  0.00000000000E+00 0. -1.
         24    2    1    2    0    0 -0.92630209989E+02 -0.27980738885E+02 -0.20442451767E+03  0.23935202906E+03  0.78337301725E+02 0.  0.
        254    2    1    2    0    0  0.92630209989E+02  0.27980738885E+02  0.63691838391E+03  0.10908045953E+04  0.88024221657E+03 0.  0.
         23    2    4    4    0    0  0.32359572530E+03  0.27275089924E+03  0.59763187895E+03  0.73793357763E+03  0.90966234268E+02 0.  0.
         23    2    4    4    0    0 -0.23096551531E+03 -0.24477016036E+03  0.39286504959E+02  0.35287101769E+03  0.98574971405E+02 0.  0.
          4    1    3    3  502    0 -0.44931979766E+02  0.21438582450E+02 -0.12381940353E+03  0.13345313902E+03  0.00000000000E+00 0. -1.
         -3    1    3    3    0  502 -0.47698230223E+02 -0.49419321335E+02 -0.80605114138E+02  0.10589889004E+03  0.00000000000E+00 0.  1.
         13    1    5    5    0    0  0.90517632076E+02  0.27838503922E+02  0.13673136718E+03  0.16632465478E+03  0.00000000000E+00 0.  1.
        -13    1    5    5    0    0  0.23307809322E+03  0.24491239532E+03  0.46090051178E+03  0.57160892285E+03  0.00000000000E+00 0. -1.
          4    1    6    6  503    0 -0.22353778922E+02 -0.81607924347E+02  0.22207767689E+02  0.87479881653E+02  0.00000000000E+00 0. -1.
         -4    1    6    6    0  503 -0.20861173639E+03 -0.16316223601E+03  0.17078737270E+02  0.26539113603E+03  0.00000000000E+00 0.  1.
<mgrwt>
<rscale>  0 0.12578814E+04</rscale>
<asrwt>0</asrwt>
<pdfrwt beam="1">  1        4 0.69050982E-01 0.12578814E+04</pdfrwt>
<pdfrwt beam="2">  1       -3 0.13558850E+00 0.12578814E+04</pdfrwt>
<totfact> 0.18122734E+00</totfact>
</mgrwt>
</event>
<event>
12    7  0.1572140E-007  0.1838586E+04  0.7818608E-02  0.8686045E-01
          2   -1    0    0  501    0  0.00000000000E+00  0.00000000000E+00  0.27583433801E+04  0.27583433801E+04  0.00000000000E+00 0. -1.
         -1   -1    0    0    0  501 -0.00000000000E+00 -0.00000000000E+00 -0.30637932031E+03  0.30637932031E+03  0.00000000000E+00 0.  1.
         24    2    1    2    0    0 -0.77745155779E+02  0.32268484883E+03 -0.83996717247E+02  0.35156038836E+03  0.79808754174E+02 0.  0.
        254    2    1    2    0    0  0.77745155779E+02 -0.32268484883E+03  0.25359607770E+04  0.27131623120E+04  0.90552904314E+03 0.  0.
         23    2    4    4    0    0 -0.29252280128E+03 -0.11282367638E+03  0.19819802531E+04  0.20086199255E+04  0.89495866967E+02 0.  0.
         23    2    4    4    0    0  0.37026795706E+03 -0.20986117245E+03  0.55398052387E+03  0.70454238649E+03  0.91353608635E+02 0.  0.
          2    1    3    3  502    0 -0.10694303782E+02  0.18064885450E+03 -0.20417935078E+02  0.18211334064E+03  0.00000000000E+00 0. -1.
         -1    1    3    3    0  502 -0.67050851998E+02  0.14203599433E+03 -0.63578782169E+02  0.16944704772E+03  0.00000000000E+00 0.  1.
         13    1    5    5    0    0 -0.11375873175E+03 -0.89911153537E+02  0.81330642404E+03  0.82613098475E+03  0.00000000000E+00 0. -1.
        -13    1    5    5    0    0 -0.17876406953E+03 -0.22912522841E+02  0.11686738291E+04  0.11824889408E+04  0.00000000000E+00 0.  1.
          4    1    6    6  503    0  0.37109695024E+03 -0.21172118529E+03  0.53132473750E+03  0.68179526506E+03  0.00000000000E+00 0.  1.
         -4    1    6    6    0  503 -0.82899318539E+00  0.18600128363E+01  0.22655786364E+02  0.22747121427E+02  0.00000000000E+00 0. -1.
<mgrwt>
<rscale>  0 0.18385857E+04</rscale>
<asrwt>0</asrwt>
<pdfrwt beam="1">  1        2 0.42436050E+00 0.18385857E+04</pdfrwt>
<pdfrwt beam="2">  1       -1 0.47135282E-01 0.18385857E+04</pdfrwt>
<totfact> 0.11810696E+01</totfact>
</mgrwt>
</event>
<event>
12    7  0.1572140E-007  0.1307521E+04  0.7818608E-02  0.9023622E-01
         -1   -1    0    0    0  501 -0.00000000000E+00  0.00000000000E+00  0.54637957963E+03  0.54637957963E+03  0.00000000000E+00 0.  1.
          2   -1    0    0  501    0  0.00000000000E+00 -0.00000000000E+00 -0.78224571039E+03  0.78224571039E+03  0.00000000000E+00 0. -1.
         24    2    1    2    0    0 -0.33373425635E+03 -0.52297491381E+02 -0.95485234811E+02  0.35998095224E+03  0.79719975143E+02 0.  0.
        254    2    1    2    0    0  0.33373425635E+03  0.52297491381E+02 -0.14038089595E+03  0.96864433778E+03  0.89691218952E+03 0.  0.
         23    2    4    4    0    0  0.30748511050E+03  0.30909763989E+03 -0.39419675271E+03  0.59476164510E+03  0.90894941926E+02 0.  0.
         23    2    4    4    0    0  0.26249145849E+02 -0.25680014851E+03  0.25381585676E+03  0.37388269268E+03  0.93436849334E+02 0.  0.
          2    1    3    3  502    0 -0.37696719614E+02 -0.26117458009E+02 -0.32441545391E+02  0.56174888961E+02  0.00000000000E+00 0. -1.
         -1    1    3    3    0  502 -0.29603753674E+03 -0.26180033372E+02 -0.63043689420E+02  0.30380606327E+03  0.00000000000E+00 0.  1.
         13    1    5    5    0    0  0.19245955302E+03  0.24439088383E+03 -0.24822895338E+03  0.39797637737E+03  0.00000000000E+00 0.  1.
        -13    1    5    5    0    0  0.11502555749E+03  0.64706756058E+02 -0.14596779933E+03  0.19678526773E+03  0.00000000000E+00 0. -1.
          4    1    6    6  503    0  0.57276054782E+02 -0.13703506139E+03  0.16225622856E+03  0.21996872098E+03  0.00000000000E+00 0. -1.
         -4    1    6    6    0  503 -0.31026908932E+02 -0.11976508712E+03  0.91559628201E+02  0.15391397171E+03  0.00000000000E+00 0.  1.
<mgrwt>
<rscale>  0 0.13075214E+04</rscale>
<asrwt>0</asrwt>
<pdfrwt beam="1">  1        2 0.12034549E+00 0.13075214E+04</pdfrwt>
<pdfrwt beam="2">  1       -1 0.84058397E-01 0.13075214E+04</pdfrwt>
<totfact> 0.55699747E+01</totfact>
</mgrwt>
</event>
<event>
12    7  0.1572140E-007  0.1511687E+04  0.7818608E-02  0.8876718E-01
         -1   -1    0    0    0  501 -0.00000000000E+00  0.00000000000E+00  0.15498023163E+03  0.15498023163E+03  0.00000000000E+00 0.  1.
          2   -1    0    0  501    0  0.00000000000E+00 -0.00000000000E+00 -0.36862729806E+04  0.36862729806E+04  0.00000000000E+00 0. -1.
         24    2    1    2    0    0 -0.16794689264E+03  0.32256000929E+03 -0.34705570188E+03  0.50915352913E+03  0.80861224799E+02 0.  0.
        254    2    1    2    0    0  0.16794689264E+03 -0.32256000929E+03 -0.31842370471E+04  0.33320996831E+04  0.91174097619E+03 0.  0.
         23    2    4    4    0    0  0.71467019000E+02 -0.91822957453E+01 -0.28594730176E+04  0.28617901851E+04  0.89806879489E+02 0.  0.
         23    2    4    4    0    0  0.96479873643E+02 -0.31337771354E+03 -0.32476402948E+03  0.47030949802E+03  0.90583617261E+02 0.  0.
          2    1    3    3  502    0 -0.39393000332E+02  0.53447336002E+02 -0.10866850847E+03  0.12734704917E+03  0.00000000000E+00 0. -1.
         -1    1    3    3    0  502 -0.12855389231E+03  0.26911267329E+03 -0.23838719341E+03  0.38180647995E+03  0.00000000000E+00 0.  1.
         13    1    5    5    0    0  0.20870345053E+02 -0.38115440245E+02 -0.60266236031E+03  0.60422700918E+03  0.00000000000E+00 0. -1.
        -13    1    5    5    0    0  0.50596673947E+02  0.28933144500E+02 -0.22568106573E+04  0.22575631759E+04  0.00000000000E+00 0.  1.
          3    1    6    6  503    0  0.86883902101E+02 -0.29193777138E+03 -0.32679282045E+03  0.44673260716E+03  0.00000000000E+00 0.  1.
         -3    1    6    6    0  503  0.95959715423E+01 -0.21439942162E+02  0.20287909654E+01  0.23576890858E+02  0.00000000000E+00 0. -1.
<mgrwt>
<rscale>  0 0.15116871E+04</rscale>
<asrwt>0</asrwt>
<pdfrwt beam="1">  1        2 0.56711888E+00 0.15116871E+04</pdfrwt>
<pdfrwt beam="2">  1       -1 0.23843114E-01 0.15116871E+04</pdfrwt>
<totfact> 0.10149279E+01</totfact>
</mgrwt>
</event>
<event>
12    7  0.1572140E-007  0.1780706E+04  0.7818608E-02  0.8716628E-01
          2   -1    0    0  501    0  0.00000000000E+00  0.00000000000E+00  0.63238236329E+03  0.63238236329E+03  0.00000000000E+00 0. -1.
         -1   -1    0    0    0  501 -0.00000000000E+00 -0.00000000000E+00 -0.12535584442E+04  0.12535584442E+04  0.00000000000E+00 0.  1.
         24    2    1    2    0    0  0.47709728076E+03  0.43575884256E+03 -0.31564440042E+03  0.72357628505E+03  0.80147792187E+02 0.  0.
        254    2    1    2    0    0 -0.47709728076E+03 -0.43575884256E+03 -0.30553168050E+03  0.11623645224E+04  0.91664283725E+03 0.  0.
         23    2    4    4    0    0 -0.52174149808E+03  0.77776642234E+02  0.37524161224E+02  0.53672367153E+03  0.91656096420E+02 0.  0.
         23    2    4    4    0    0  0.44644217316E+02 -0.51353548479E+03 -0.34305584172E+03  0.62564085092E+03  0.89595555253E+02 0.  0.
          2    1    3    3  502    0  0.14912884449E+03  0.14558538446E+03 -0.14356000497E+03  0.25306914362E+03  0.00000000000E+00 0. -1.
         -1    1    3    3    0  502  0.32796843627E+03  0.29017345810E+03 -0.17208439545E+03  0.47050714143E+03  0.00000000000E+00 0.  1.
         13    1    5    5    0    0 -0.42970857625E+03  0.35467336397E+02  0.52409872383E+02  0.43434339776E+03  0.00000000000E+00 0.  1.
        -13    1    5    5    0    0 -0.92032921828E+02  0.42309305838E+02 -0.14885711158E+02  0.10238027377E+03  0.00000000000E+00 0. -1.
          2    1    6    6  503    0  0.13455486511E+02 -0.10379353100E+03 -0.11568629079E+03  0.15600469567E+03  0.00000000000E+00 0. -1.
         -2    1    6    6    0  503  0.31188730805E+02 -0.40974195379E+03 -0.22736955093E+03  0.46963615525E+03  0.00000000000E+00 0.  1.
<mgrwt>
<rscale>  0 0.17807058E+04</rscale>
<asrwt>0</asrwt>
<pdfrwt beam="1">  1        2 0.97289596E-01 0.17807058E+04</pdfrwt>
<pdfrwt beam="2">  1       -1 0.19285514E+00 0.17807058E+04</pdfrwt>
<totfact> 0.84746983E+00</totfact>
</mgrwt>
</event>
<event>
12    7  0.2377464E-007  0.2870991E+04  0.7818608E-02  0.8281561E-01
          2   -1    0    0  501    0  0.00000000000E+00  0.00000000000E+00  0.20421391812E+04  0.20421391812E+04  0.00000000000E+00 0. -1.
         -1   -1    0    0    0  501 -0.00000000000E+00 -0.00000000000E+00 -0.10090629408E+04  0.10090629408E+04  0.00000000000E+00 0.  1.
         24    2    1    2    0    0  0.12408835128E+04  0.33657920346E+03  0.33521115769E+03  0.13310856473E+04  0.79655681979E+02 0.  0.
        254    2    1    2    0    0 -0.12408835128E+04 -0.33657920346E+03  0.69786508271E+03  0.17201164748E+04  0.90482460211E+03 0.  0.
         23    2    4    4    0    0 -0.37565575710E+03 -0.33547705421E+03  0.67785425809E+03  0.84989211845E+03  0.95750279670E+02 0.  0.
         23    2    4    4    0    0 -0.86522775570E+03 -0.11021492499E+01  0.20010824620E+02  0.87022435632E+03  0.90937963836E+02 0.  0.
          2    1    3    3  502    0  0.26434753195E+03  0.67127171553E+02  0.38098625312E+02  0.27538551171E+03  0.00000000000E+00 0. -1.
         -1    1    3    3    0  502  0.97653598085E+03  0.26945203190E+03  0.29711253238E+03  0.10557001356E+04  0.00000000000E+00 0.  1.
         13    1    5    5    0    0 -0.36572341329E+03 -0.32179132590E+03  0.67548561326E+03  0.83281695839E+03  0.00000000000E+00 0. -1.
        -13    1    5    5    0    0 -0.99323438161E+01 -0.13685728306E+02  0.23686448230E+01  0.17075160065E+02  0.00000000000E+00 0.  1.
          3    1    6    6  503    0 -0.86426867177E+03 -0.54870759183E+00  0.25479853120E+02  0.86464435521E+03  0.00000000000E+00 0. -1.
         -3    1    6    6    0  503 -0.95908392883E+00 -0.55344165810E+00 -0.54690284996E+01  0.55800011094E+01  0.00000000000E+00 0.  1.
<mgrwt>
<rscale>  0 0.28709907E+04</rscale>
<asrwt>0</asrwt>
<pdfrwt beam="1">  1        2 0.31417526E+00 0.28709907E+04</pdfrwt>
<pdfrwt beam="2">  1       -1 0.15524045E+00 0.28709907E+04</pdfrwt>
<totfact> 0.19793012E+00</totfact>
</mgrwt>
</event>
<event>
12    7  0.1572140E-007  0.1328128E+04  0.7818608E-02  0.9007552E-01
          2   -1    0    0  501    0  0.00000000000E+00  0.00000000000E+00  0.10562069787E+04  0.10562069787E+04  0.00000000000E+00 0. -1.
         -1   -1    0    0    0  501 -0.00000000000E+00 -0.00000000000E+00 -0.41751352704E+03  0.41751352704E+03  0.00000000000E+00 0.  1.
         24    2    1    2    0    0 -0.86938900739E+02 -0.35052137283E+03  0.14003106190E+03  0.39544127663E+03  0.79633533697E+02 0.  0.
        254    2    1    2    0    0  0.86938900739E+02  0.35052137283E+03  0.49866238975E+03  0.10782792291E+04  0.88521088544E+03 0.  0.
         23    2    4    4    0    0  0.79050554981E+02 -0.19307854973E+03 -0.11357806194E+03  0.25446512404E+03  0.91237089997E+02 0.  0.
         23    2    4    4    0    0  0.78883457583E+01  0.54359992256E+03  0.61224045169E+03  0.82381410506E+03  0.90929682779E+02 0.  0.
          2    1    3    3  502    0 -0.13854901484E+02 -0.77361560333E+02 -0.28108132011E+01  0.78642672788E+02  0.00000000000E+00 0. -1.
         -1    1    3    3    0  502 -0.73083999255E+02 -0.27315981250E+03  0.14284187510E+03  0.31679860384E+03  0.00000000000E+00 0.  1.
         13    1    5    5    0    0  0.29408975575E+02 -0.43960645049E+02 -0.76471760174E+02  0.92980407945E+02  0.00000000000E+00 0.  1.
        -13    1    5    5    0    0  0.49641579406E+02 -0.14911790468E+03 -0.37106301766E+02  0.16148471610E+03  0.00000000000E+00 0. -1.
          2    1    6    6  503    0  0.19197537503E+02  0.49531833902E+03  0.51580776549E+03  0.71537853851E+03  0.00000000000E+00 0. -1.
         -2    1    6    6    0  503 -0.11309191745E+02  0.48281583539E+02  0.96432686193E+02  0.10843556655E+03  0.00000000000E+00 0.  1.
<mgrwt>
<rscale>  0 0.13281276E+04</rscale>
<asrwt>0</asrwt>
<pdfrwt beam="1">  1        2 0.16249338E+00 0.13281276E+04</pdfrwt>
<pdfrwt beam="2">  1       -1 0.64232851E-01 0.13281276E+04</pdfrwt>
<totfact> 0.63629248E+01</totfact>
</mgrwt>
</event>
<event>
12    7  0.1572140E-007  0.1978299E+04  0.7818608E-02  0.8616834E-01
          2   -1    0    0  501    0  0.00000000000E+00  0.00000000000E+00  0.21083381979E+04  0.21083381979E+04  0.00000000000E+00 0. -1.
         -1   -1    0    0    0  501 -0.00000000000E+00 -0.00000000000E+00 -0.46407030197E+03  0.46407030197E+03  0.00000000000E+00 0.  1.
         24    2    1    2    0    0  0.46282910113E+03 -0.33202816425E+03  0.13409076643E+04  0.14590277942E+04  0.79216547394E+02 0.  0.
        254    2    1    2    0    0 -0.46282910113E+03  0.33202816425E+03  0.30336023155E+03  0.11133807056E+04  0.90726825513E+03 0.  0.
         23    2    4    4    0    0 -0.63176837366E+02  0.54287516836E+03  0.34229164780E+03  0.65134899009E+03  0.91581513031E+02 0.  0.
         23    2    4    4    0    0 -0.39965226377E+03 -0.21084700411E+03 -0.38931416254E+02  0.46203171550E+03  0.88200112678E+02 0.  0.
          2    1    3    3  502    0  0.32993407962E+03 -0.19467894565E+03  0.85578303820E+03  0.93761452487E+03  0.00000000000E+00 0. -1.
         -1    1    3    3    0  502  0.13289502151E+03 -0.13734921860E+03  0.48512462613E+03  0.52141326937E+03  0.00000000000E+00 0.  1.
         13    1    5    5    0    0 -0.46053961165E+02  0.93806914997E+02  0.56842159877E+02  0.11896106834E+03  0.00000000000E+00 0. -1.
        -13    1    5    5    0    0 -0.17122876201E+02  0.44906825337E+03  0.28544948793E+03  0.53238792175E+03  0.00000000000E+00 0.  1.
          1    1    6    6  503    0 -0.41916596657E+02 -0.56579277694E+02 -0.12860405128E+02  0.71579366857E+02  0.00000000000E+00 0. -1.
         -1    1    6    6    0  503 -0.35773566711E+03 -0.15426772642E+03 -0.26071011126E+02  0.39045234864E+03  0.00000000000E+00 0.  1.
<mgrwt>
<rscale>  0 0.19782994E+04</rscale>
<asrwt>0</asrwt>
<pdfrwt beam="1">  1        2 0.32435972E+00 0.19782994E+04</pdfrwt>
<pdfrwt beam="2">  1       -1 0.71395432E-01 0.19782994E+04</pdfrwt>
<totfact> 0.12201646E+01</totfact>
</mgrwt>
</event>
<event>
12    7  0.1572140E-007  0.2048893E+04  0.7818608E-02  0.8584097E-01
         -1   -1    0    0    0  501 -0.00000000000E+00  0.00000000000E+00  0.38905034215E+03  0.38905034215E+03  0.00000000000E+00 0.  1.
          2   -1    0    0  501    0  0.00000000000E+00 -0.00000000000E+00 -0.26975709769E+04  0.26975709769E+04  0.00000000000E+00 0. -1.
         24    2    1    2    0    0 -0.61698737494E+03  0.54273544244E+03 -0.10398270752E+04  0.13276935165E+04  0.79338174967E+02 0.  0.
        254    2    1    2    0    0  0.61698737494E+03 -0.54273544244E+03 -0.12686935595E+04  0.17589278026E+04  0.89944898986E+03 0.  0.
         23    2    4    4    0    0  0.54620670493E+01  0.20207716746E+03 -0.40464371324E+03  0.46144689828E+03  0.91278088726E+02 0.  0.
         23    2    4    4    0    0  0.61152530789E+03 -0.74481260990E+03 -0.86404984628E+03  0.12974809043E+04  0.90363344752E+02 0.  0.
          2    1    3    3  502    0 -0.42424846576E+02  0.19247987484E+02 -0.80395306801E+02  0.92918017547E+02  0.00000000000E+00 0. -1.
         -1    1    3    3    0  502 -0.57456252837E+03  0.52348745495E+03 -0.95943176841E+03  0.12347754989E+04  0.00000000000E+00 0.  1.
         13    1    5    5    0    0  0.22764447327E+02  0.52515865882E+01 -0.31480103654E+02  0.39201991657E+02  0.00000000000E+00 0.  1.
        -13    1    5    5    0    0 -0.17302380278E+02  0.19682558087E+03 -0.37316360959E+03  0.42224490663E+03  0.00000000000E+00 0. -1.
          1    1    6    6  503    0  0.56210929270E+03 -0.71702519353E+03 -0.81843831276E+03  0.12247176233E+04  0.00000000000E+00 0. -1.
         -1    1    6    6    0  503  0.49416015188E+02 -0.27787416368E+02 -0.45611533521E+02  0.72763280956E+02  0.00000000000E+00 0.  1.
<mgrwt>
<rscale>  0 0.20488933E+04</rscale>
<asrwt>0</asrwt>
<pdfrwt beam="1">  1        2 0.41501092E+00 0.20488933E+04</pdfrwt>
<pdfrwt beam="2">  1       -1 0.59853899E-01 0.20488933E+04</pdfrwt>
<totfact> 0.79497985E+00</totfact>
</mgrwt>
</event>
<event>
12    7  0.1572140E-007  0.1791156E+04  0.7818608E-02  0.8711017E-01
          2   -1    0    0  501    0  0.00000000000E+00  0.00000000000E+00  0.15817649688E+04  0.15817649688E+04  0.00000000000E+00 0. -1.
         -1   -1    0    0    0  501 -0.00000000000E+00 -0.00000000000E+00 -0.50706663468E+03  0.50706663468E+03  0.00000000000E+00 0.  1.
         24    2    1    2    0    0 -0.21569124191E+03  0.57869015633E+02 -0.32842953754E+03  0.40514275685E+03  0.80019731872E+02 0.  0.
        254    2    1    2    0    0  0.21569124191E+03 -0.57869015633E+02  0.14031278717E+04  0.16836888467E+04  0.90342059597E+03 0.  0.
         23    2    4    4    0    0 -0.27599377059E+03  0.21341575466E+03  0.56623549195E+03  0.67144512257E+03  0.92179577652E+02 0.  0.
         23    2    4    4    0    0  0.49168501250E+03 -0.27128477030E+03  0.83689237977E+03  0.10122437241E+04  0.94334106076E+02 0.  0.
          4    1    3    3  502    0 -0.11173740893E+03  0.51813450064E+02 -0.11904134930E+03  0.17129134539E+03  0.00000000000E+00 0. -1.
         -3    1    3    3    0  502 -0.10395383298E+03  0.60555655696E+01 -0.20938818824E+03  0.23385141146E+03  0.00000000000E+00 0.  1.
         13    1    5    5    0    0 -0.52792561801E+02  0.50694665681E+02  0.59536636225E+02  0.94348369159E+02  0.00000000000E+00 0. -1.
        -13    1    5    5    0    0 -0.22320120879E+03  0.16272108898E+03  0.50669885572E+03  0.57709675341E+03  0.00000000000E+00 0.  1.
          4    1    6    6  503    0  0.34076033626E+03 -0.20608908600E+03  0.51717411787E+03  0.65273224704E+03  0.00000000000E+00 0.  1.
         -4    1    6    6    0  503  0.15092467624E+03 -0.65195684295E+02  0.31971826190E+03  0.35951147706E+03  0.00000000000E+00 0. -1.
<mgrwt>
<rscale>  0 0.17911563E+04</rscale>
<asrwt>0</asrwt>
<pdfrwt beam="1">  1        2 0.24334846E+00 0.17911563E+04</pdfrwt>
<pdfrwt beam="2">  1       -1 0.78010252E-01 0.17911563E+04</pdfrwt>
<totfact> 0.20223224E+01</totfact>
</mgrwt>
</event>
<event>
12    7  0.1572140E-007  0.1029825E+04  0.7818608E-02  0.9276425E-01
         -1   -1    0    0    0  501 -0.00000000000E+00  0.00000000000E+00  0.11399435501E+03  0.11399435501E+03  0.00000000000E+00 0.  1.
          2   -1    0    0  501    0  0.00000000000E+00 -0.00000000000E+00 -0.23258596305E+04  0.23258596305E+04  0.00000000000E+00 0. -1.
         24    2    1    2    0    0 -0.94138573892E+02 -0.37772009573E+01 -0.21356829959E+03  0.24656971943E+03  0.79428392982E+02 0.  0.
        254    2    1    2    0    0  0.94138573892E+02  0.37772009573E+01 -0.19982969759E+04  0.21932842661E+04  0.89912664825E+03 0.  0.
         23    2    4    4    0    0 -0.53168674676E+02 -0.56394646607E+02 -0.20067978545E+04  0.20101787963E+04  0.87028158077E+02 0.  0.
         23    2    4    4    0    0  0.14730724857E+03  0.60171847564E+02  0.85008785495E+01  0.18310546979E+03  0.90195739421E+02 0.  0.
          2    1    3    3  502    0  0.15452925326E+01 -0.20233030533E+02 -0.72742182287E+02  0.75519458005E+02  0.00000000000E+00 0. -1.
         -1    1    3    3    0  502 -0.95683866425E+02  0.16455829576E+02 -0.14082611730E+03  0.17105026143E+03  0.00000000000E+00 0.  1.
         13    1    5    5    0    0  0.16249322565E+02 -0.42826877273E+02 -0.79255000470E+03  0.79387259170E+03  0.00000000000E+00 0.  1.
        -13    1    5    5    0    0 -0.69417997241E+02 -0.13567769334E+02 -0.12142478498E+04  0.12163062046E+04  0.00000000000E+00 0. -1.
          1    1    6    6  503    0  0.15481488309E+03  0.38359589374E+02  0.11150223392E+02  0.15988568918E+03  0.00000000000E+00 0. -1.
         -1    1    6    6    0  503 -0.75076345189E+01  0.21812258190E+02 -0.26493448428E+01  0.23219780609E+02  0.00000000000E+00 0.  1.
<mgrwt>
<rscale>  0 0.10298250E+04</rscale>
<asrwt>0</asrwt>
<pdfrwt beam="1">  1        2 0.35782453E+00 0.10298250E+04</pdfrwt>
<pdfrwt beam="2">  1       -1 0.17537594E-01 0.10298250E+04</pdfrwt>
<totfact> 0.12769284E+02</totfact>
</mgrwt>
</event>
<event>
12    7  0.1572140E-007  0.1691452E+04  0.7818608E-02  0.8766254E-01
         -1   -1    0    0    0  501 -0.00000000000E+00  0.00000000000E+00  0.51108420433E+03  0.51108420433E+03  0.00000000000E+00 0.  1.
          2   -1    0    0  501    0  0.00000000000E+00 -0.00000000000E+00 -0.13994814334E+04  0.13994814334E+04  0.00000000000E+00 0. -1.
         24    2    1    2    0    0 -0.17331732624E+02 -0.11111259265E+03 -0.95079003299E+03  0.96063237938E+03  0.78526965290E+02 0.  0.
        254    2    1    2    0    0  0.17331732624E+02  0.11111259265E+03  0.62392803934E+02  0.94993325834E+03  0.94118751379E+03 0.  0.
         23    2    4    4    0    0 -0.25398842707E+03 -0.25643603383E+03  0.24761936524E+03  0.44763603936E+03  0.93771601040E+02 0.  0.
         23    2    4    4    0    0  0.27132015969E+03  0.36754862648E+03 -0.18522656131E+03  0.50229721898E+03  0.96369057773E+02 0.  0.
          2    1    3    3  502    0 -0.44125899902E+02 -0.92905811720E+02 -0.78478344616E+03  0.79149456237E+03  0.00000000000E+00 0. -1.
         -1    1    3    3    0  502  0.26794167278E+02 -0.18206780931E+02 -0.16600658683E+03  0.16913781701E+03  0.00000000000E+00 0.  1.
         13    1    5    5    0    0 -0.11570030122E+03 -0.12110419412E+03  0.17148049203E+03  0.23970470309E+03  0.00000000000E+00 0.  1.
        -13    1    5    5    0    0 -0.13828812585E+03 -0.13533183970E+03  0.76138873210E+02  0.20793133627E+03  0.00000000000E+00 0. -1.
          4    1    6    6  503    0  0.74579701065E+02  0.63725529800E+02 -0.57038556375E+01  0.98262958069E+02  0.00000000000E+00 0. -1.
         -4    1    6    6    0  503  0.19674045863E+03  0.30382309668E+03 -0.17952270567E+03  0.40403426091E+03  0.00000000000E+00 0.  1.
<mgrwt>
<rscale>  0 0.16914525E+04</rscale>
<asrwt>0</asrwt>
<pdfrwt beam="1">  1        2 0.21530484E+00 0.16914525E+04</pdfrwt>
<pdfrwt beam="2">  1       -1 0.78628339E-01 0.16914525E+04</pdfrwt>
<totfact> 0.25433030E+01</totfact>
</mgrwt>
</event>
<event>
12    7  0.1572140E-007  0.2188853E+04  0.7818608E-02  0.8523082E-01
          2   -1    0    0  501    0  0.00000000000E+00  0.00000000000E+00  0.23881368900E+04  0.23881368900E+04  0.00000000000E+00 0. -1.
         -1   -1    0    0    0  501 -0.00000000000E+00 -0.00000000000E+00 -0.50154972822E+03  0.50154972822E+03  0.00000000000E+00 0.  1.
         24    2    1    2    0    0  0.70848306847E+03  0.29426497311E+03  0.97741487930E+02  0.77769687643E+03  0.81968899208E+02 0.  0.
        254    2    1    2    0    0 -0.70848306847E+03 -0.29426497311E+03  0.17888456739E+04  0.21119897418E+04  0.81975099382E+03 0.  0.
         23    2    4    4    0    0 -0.34775369333E+03  0.63700566176E+02  0.14519070357E+04  0.14970813069E+04  0.90708355740E+02 0.  0.
         23    2    4    4    0    0 -0.36072937514E+03 -0.35796553929E+03  0.33693863820E+03  0.61490843493E+03  0.79496717119E+02 0.  0.
          4    1    3    3  502    0  0.35277107153E+03  0.13609739857E+03  0.88318180272E+02  0.38829116881E+03  0.00000000000E+00 0. -1.
         -3    1    3    3    0  502  0.35571199694E+03  0.15816757454E+03  0.94233076583E+01  0.38940570762E+03  0.00000000000E+00 0.  1.
         13    1    5    5    0    0 -0.33693475186E+03  0.79137361611E+02  0.13720808192E+04  0.14150595477E+04  0.00000000000E+00 0. -1.
        -13    1    5    5    0    0 -0.10818941469E+02 -0.15436795436E+02  0.79826216495E+02  0.82021759233E+02  0.00000000000E+00 0.  1.
          4    1    6    6  503    0 -0.26800769916E+03 -0.24666240470E+03  0.19986195700E+03  0.41546993941E+03  0.00000000000E+00 0. -1.
         -4    1    6    6    0  503 -0.92721675982E+02 -0.11130313459E+03  0.13707668120E+03  0.19943849552E+03  0.00000000000E+00 0.  1.
<mgrwt>
<rscale>  0 0.21888530E+04</rscale>
<asrwt>0</asrwt>
<pdfrwt beam="1">  1        2 0.36740567E+00 0.21888530E+04</pdfrwt>
<pdfrwt beam="2">  1       -1 0.77161498E-01 0.21888530E+04</pdfrwt>
<totfact> 0.70810562E+00</totfact>
</mgrwt>
</event>
<event>
12    7  0.1572140E-007  0.2315295E+04  0.7818608E-02  0.8471915E-01
          2   -1    0    0  501    0  0.00000000000E+00  0.00000000000E+00  0.18588629116E+04  0.18588629116E+04  0.00000000000E+00 0. -1.
         -1   -1    0    0    0  501 -0.00000000000E+00 -0.00000000000E+00 -0.72095006256E+03  0.72095006256E+03  0.00000000000E+00 0.  1.
         24    2    1    2    0    0  0.74490214338E+03  0.53647041764E+03  0.85852728443E+03  0.12594165634E+04  0.79882851296E+02 0.  0.
        254    2    1    2    0    0 -0.74490214338E+03 -0.53647041764E+03  0.27938556457E+03  0.13203964107E+04  0.90703399905E+03 0.  0.
         23    2    4    4    0    0 -0.90195707947E+03 -0.55881335743E+03  0.10922137033E+03  0.10705681422E+04  0.91585466334E+02 0.  0.
         23    2    4    4    0    0  0.15705493609E+03  0.22342939789E+02  0.17016419424E+03  0.24982826851E+03  0.91065091200E+02 0.  0.
          4    1    3    3  502    0  0.59799295553E+03  0.41593332835E+03  0.63809613197E+03  0.96838152715E+03  0.00000000000E+00 0. -1.
         -3    1    3    3    0  502  0.14690918785E+03  0.12053708930E+03  0.22043115246E+03  0.29103503629E+03  0.00000000000E+00 0.  1.
         13    1    5    5    0    0 -0.57965583926E+03 -0.31012764366E+03  0.83182309608E+02  0.66264571528E+03  0.00000000000E+00 0. -1.
        -13    1    5    5    0    0 -0.32230124021E+03 -0.24868571377E+03  0.26039060722E+02  0.40792242689E+03  0.00000000000E+00 0.  1.
          1    1    6    6  503    0  0.11614385186E+03  0.18355561250E+00  0.16670253393E+03  0.20317274137E+03  0.00000000000E+00 0. -1.
         -1    1    6    6    0  503  0.40911084234E+02  0.22159384176E+02  0.34616603074E+01  0.46655527136E+02  0.00000000000E+00 0.  1.
<mgrwt>
<rscale>  0 0.23152947E+04</rscale>
<asrwt>0</asrwt>
<pdfrwt beam="1">  1        2 0.28597891E+00 0.23152947E+04</pdfrwt>
<pdfrwt beam="2">  1       -1 0.11091539E+00 0.23152947E+04</pdfrwt>
<totfact> 0.61730375E+00</totfact>
</mgrwt>
</event>
<event>
12    7  0.1572140E-007  0.1968807E+04  0.7818608E-02  0.8621345E-01
         -1   -1    0    0    0  501 -0.00000000000E+00  0.00000000000E+00  0.41764310252E+03  0.41764310252E+03  0.00000000000E+00 0.  1.
          2   -1    0    0  501    0  0.00000000000E+00 -0.00000000000E+00 -0.23202825908E+04  0.23202825908E+04  0.00000000000E+00 0. -1.
         24    2    1    2    0    0 -0.17758738688E+03 -0.64485899639E+02 -0.18009288181E+04  0.18125184365E+04  0.78630551320E+02 0.  0.
        254    2    1    2    0    0  0.17758738688E+03  0.64485899639E+02 -0.10171067014E+03  0.92540725677E+03  0.90018765779E+03 0.  0.
         23    2    4    4    0    0  0.25612361974E+03 -0.29151047626E+03  0.19784086226E+03  0.44470658585E+03  0.89695453376E+02 0.  0.
         23    2    4    4    0    0 -0.78536232857E+02  0.35599637590E+03 -0.29955153240E+03  0.48070067093E+03  0.91873037062E+02 0.  0.
          2    1    3    3  502    0 -0.15216973034E+03 -0.51856434117E+02 -0.17026679065E+04  0.17102405434E+04  0.00000000000E+00 0. -1.
         -1    1    3    3    0  502 -0.25417656540E+02 -0.12629465521E+02 -0.98260911605E+02  0.10227789308E+03  0.00000000000E+00 0.  1.
         13    1    5    5    0    0  0.10228131158E+03 -0.57544418070E+02  0.44947555609E+02  0.12567063899E+03  0.00000000000E+00 0.  1.
        -13    1    5    5    0    0  0.15384230816E+03 -0.23396605820E+03  0.15289330665E+03  0.31903594685E+03  0.00000000000E+00 0. -1.
          2    1    6    6  503    0 -0.92915788807E+02  0.32380506230E+03 -0.28912913104E+03  0.44393548697E+03  0.00000000000E+00 0. -1.
         -2    1    6    6    0  503  0.14379555949E+02  0.32191313604E+02 -0.10422401358E+02  0.36765183951E+02  0.00000000000E+00 0.  1.
<mgrwt>
<rscale>  0 0.19688068E+04</rscale>
<asrwt>0</asrwt>
<pdfrwt beam="1">  1        2 0.35696655E+00 0.19688068E+04</pdfrwt>
<pdfrwt beam="2">  1       -1 0.64252785E-01 0.19688068E+04</pdfrwt>
<totfact> 0.11501453E+01</totfact>
</mgrwt>
</event>
<event>
12    7  0.1572140E-007  0.1182173E+04  0.7818608E-02  0.9128605E-01
         -1   -1    0    0    0  501 -0.00000000000E+00  0.00000000000E+00  0.58946741127E+03  0.58946741127E+03  0.00000000000E+00 0.  1.
          2   -1    0    0  501    0  0.00000000000E+00 -0.00000000000E+00 -0.59271002478E+03  0.59271002478E+03  0.00000000000E+00 0. -1.
         24    2    1    2    0    0  0.13375792176E+03 -0.23346836073E+02  0.19435681379E+03  0.25418085490E+03  0.91635580119E+02 0.  0.
        254    2    1    2    0    0 -0.13375792176E+03  0.23346836073E+02 -0.19759942730E+03  0.92799658115E+03  0.89649086140E+03 0.  0.
         23    2    4    4    0    0  0.11372822341E+03  0.36684258397E+03 -0.28461189111E+03  0.48649714674E+03  0.90376739326E+02 0.  0.
         23    2    4    4    0    0 -0.24748614517E+03 -0.34349574789E+03  0.87012463819E+02  0.44149943441E+03  0.90065869533E+02 0.  0.
          4    1    3    3  502    0  0.14109735542E+02  0.20409823093E+02  0.40095165000E+01  0.25134075243E+02  0.00000000000E+00 0. -1.
         -3    1    3    3    0  502  0.11964818622E+03 -0.43756659165E+02  0.19034729729E+03  0.22904677966E+03  0.00000000000E+00 0.  1.
         13    1    5    5    0    0  0.10392436502E+03  0.29415657604E+03 -0.26803219302E+03  0.41130234787E+03  0.00000000000E+00 0. -1.
        -13    1    5    5    0    0  0.98038583900E+01  0.72686007926E+02 -0.16579698096E+02  0.75194798866E+02  0.00000000000E+00 0.  1.
          2    1    6    6  503    0 -0.12015617511E+03 -0.11756823598E+03  0.68416989411E+02  0.18149567755E+03  0.00000000000E+00 0. -1.
         -2    1    6    6    0  503 -0.12732997005E+03 -0.22592751191E+03  0.18595474408E+02  0.26000375686E+03  0.00000000000E+00 0.  1.
<mgrwt>
<rscale>  0 0.11821730E+04</rscale>
<asrwt>0</asrwt>
<pdfrwt beam="1">  1        2 0.91186158E-01 0.11821730E+04</pdfrwt>
<pdfrwt beam="2">  1       -1 0.90687294E-01 0.11821730E+04</pdfrwt>
<totfact> 0.67540079E+01</totfact>
</mgrwt>
</event>
<event>
12    7  0.1572140E-007  0.2259901E+04  0.7818608E-02  0.8493902E-01
         -1   -1    0    0    0  501 -0.00000000000E+00  0.00000000000E+00  0.85633114252E+03  0.85633114252E+03  0.00000000000E+00 0.  1.
          2   -1    0    0  501    0  0.00000000000E+00 -0.00000000000E+00 -0.14909976461E+04  0.14909976461E+04  0.00000000000E+00 0. -1.
         24    2    1    2    0    0 -0.56944012142E+03 -0.19850829843E+03  0.49161179641E+03  0.78205705275E+03  0.79142144052E+02 0.  0.
        254    2    1    2    0    0  0.56944012142E+03  0.19850829843E+03 -0.11262783000E+04  0.15652717359E+04  0.90438111528E+03 0.  0.
         23    2    4    4    0    0  0.33183137754E+03  0.24423539026E+03 -0.12194601286E+04  0.12904782816E+04  0.92131434381E+02 0.  0.
         23    2    4    4    0    0  0.23760874388E+03 -0.45727091830E+02  0.93181828605E+02  0.27479345423E+03  0.90992896461E+02 0.  0.
          4    1    3    3  502    0 -0.36560027126E+03 -0.13576792206E+03  0.26901894612E+03  0.47378020260E+03  0.00000000000E+00 0. -1.
         -3    1    3    3    0  502 -0.20383985016E+03 -0.62740376364E+02  0.22259285029E+03  0.30827685015E+03  0.00000000000E+00 0.  1.
         13    1    5    5    0    0  0.28312918129E+03  0.23942944145E+03 -0.10267777172E+04  0.10916780987E+04  0.00000000000E+00 0. -1.
        -13    1    5    5    0    0  0.48702196248E+02  0.48059488049E+01 -0.19268241139E+03  0.19880018290E+03  0.00000000000E+00 0.  1.
          2    1    6    6  503    0  0.17990457021E+03 -0.73237565035E+02  0.63915436333E+02  0.20448613233E+03  0.00000000000E+00 0. -1.
         -2    1    6    6    0  503  0.57704173674E+02  0.27510473205E+02  0.29266392272E+02  0.70307321894E+02  0.00000000000E+00 0.  1.
<mgrwt>
<rscale>  0 0.22599006E+04</rscale>
<asrwt>0</asrwt>
<pdfrwt beam="1">  1        2 0.22938425E+00 0.22599006E+04</pdfrwt>
<pdfrwt beam="2">  1       -1 0.13174325E+00 0.22599006E+04</pdfrwt>
<totfact> 0.65253087E+00</totfact>
</mgrwt>
</event>
<event>
12    7  0.1572140E-007  0.1205947E+04  0.7818608E-02  0.9107667E-01
          2   -1    0    0  501    0  0.00000000000E+00  0.00000000000E+00  0.27549417083E+03  0.27549417083E+03  0.00000000000E+00 0. -1.
         -1   -1    0    0    0  501 -0.00000000000E+00 -0.00000000000E+00 -0.13197269718E+04  0.13197269718E+04  0.00000000000E+00 0.  1.
         24    2    1    2    0    0 -0.17750838057E+03  0.77034716639E+01 -0.48932775593E+03  0.52639708030E+03  0.77997851135E+02 0.  0.
        254    2    1    2    0    0  0.17750838057E+03 -0.77034716639E+01 -0.55490504508E+03  0.10688240624E+04  0.89604503157E+03 0.  0.
         23    2    4    4    0    0  0.28739224652E+03  0.31987778856E+03 -0.39746370608E+02  0.44131340016E+03  0.90893565298E+02 0.  0.
         23    2    4    4    0    0 -0.10988386595E+03 -0.32758126022E+03 -0.51515867447E+03  0.62751066221E+03  0.94853704508E+02 0.  0.
          4    1    3    3  502    0 -0.47600152574E+02 -0.27623895408E+02 -0.95857012297E+02  0.11053244288E+03  0.00000000000E+00 0. -1.
         -3    1    3    3    0  502 -0.12990822800E+03  0.35327367072E+02 -0.39347074363E+03  0.41586463742E+03  0.00000000000E+00 0.  1.
         13    1    5    5    0    0  0.21034405880E+03  0.25920548573E+03 -0.64911328898E+02  0.34006703387E+03  0.00000000000E+00 0.  1.
        -13    1    5    5    0    0  0.77048187724E+02  0.60672302824E+02  0.25164958290E+02  0.10124636629E+03  0.00000000000E+00 0. -1.
          3    1    6    6  503    0 -0.10559641458E+03 -0.26580127239E+03 -0.47247121765E+03  0.55229518438E+03  0.00000000000E+00 0. -1.
         -3    1    6    6    0  503 -0.42874513631E+01 -0.61779987832E+02 -0.42687456820E+02  0.75215477832E+02  0.00000000000E+00 0.  1.
<mgrwt>
<rscale>  0 0.12059471E+04</rscale>
<asrwt>0</asrwt>
<pdfrwt beam="1">  1        2 0.42383720E-01 0.12059471E+04</pdfrwt>
<pdfrwt beam="2">  1       -1 0.20303491E+00 0.12059471E+04</pdfrwt>
<totfact> 0.19586733E+01</totfact>
</mgrwt>
</event>
<event>
12    7  0.1572140E-007  0.1605524E+04  0.7818608E-02  0.8817161E-01
          2   -1    0    0  501    0  0.00000000000E+00  0.00000000000E+00  0.25518859884E+04  0.25518859884E+04  0.00000000000E+00 0. -1.
         -1   -1    0    0    0  501 -0.00000000000E+00 -0.00000000000E+00 -0.25252976322E+03  0.25252976322E+03  0.00000000000E+00 0.  1.
         24    2    1    2    0    0  0.75061251419E+02  0.53084832893E+03  0.10537327886E+04  0.11849718526E+04  0.79820811500E+02 0.  0.
        254    2    1    2    0    0 -0.75061251419E+02 -0.53084832893E+03  0.12456234366E+04  0.16194438990E+04  0.88520430208E+03 0.  0.
         23    2    4    4    0    0  0.44288389107E+02 -0.63854885196E+03  0.12773082686E+04  0.14316821884E+04  0.92148672422E+02 0.  0.
         23    2    4    4    0    0 -0.11934964053E+03  0.10770052303E+03 -0.31684832059E+02  0.18776171055E+03  0.91688559863E+02 0.  0.
          4    1    3    3  502    0  0.41492126537E+02  0.41310031342E+03  0.74554296734E+03  0.85335091355E+03  0.00000000000E+00 0. -1.
         -3    1    3    3    0  502  0.33569124881E+02  0.11774801551E+03  0.30818982125E+03  0.33162093906E+03  0.00000000000E+00 0.  1.
         13    1    5    5    0    0  0.66894566080E+02 -0.34137721935E+03  0.72290432386E+03  0.80224930684E+03  0.00000000000E+00 0. -1.
        -13    1    5    5    0    0 -0.22606176973E+02 -0.29717163261E+03  0.55440394477E+03  0.62943288160E+03  0.00000000000E+00 0.  1.
          3    1    6    6  503    0 -0.64280454300E+02  0.47943070889E+02  0.30126355662E+02  0.85662781631E+02  0.00000000000E+00 0. -1.
         -3    1    6    6    0  503 -0.55069186226E+02  0.59757452142E+02 -0.61811187721E+02  0.10209892891E+03  0.00000000000E+00 0.  1.
<mgrwt>
<rscale>  0 0.16055244E+04</rscale>
<asrwt>0</asrwt>
<pdfrwt beam="1">  1        2 0.39259783E+00 0.16055244E+04</pdfrwt>
<pdfrwt beam="2">  1       -1 0.38850735E-01 0.16055244E+04</pdfrwt>
<totfact> 0.22827054E+01</totfact>
</mgrwt>
</event>
<event>
12    7  0.1572140E-007  0.1652402E+04  0.7818608E-02  0.8788986E-01
         -1   -1    0    0    0  501 -0.00000000000E+00  0.00000000000E+00  0.24549814081E+03  0.24549814081E+03  0.00000000000E+00 0.  1.
          2   -1    0    0  501    0  0.00000000000E+00 -0.00000000000E+00 -0.27805037392E+04  0.27805037392E+04  0.00000000000E+00 0. -1.
         24    2    1    2    0    0  0.44642488886E+03 -0.18558052251E+03 -0.14973149249E+04  0.15754593952E+04  0.79906256444E+02 0.  0.
        254    2    1    2    0    0 -0.44642488886E+03  0.18558052251E+03 -0.10376906735E+04  0.14505424849E+04  0.89080651924E+03 0.  0.
         23    2    4    4    0    0  0.15356402011E+03 -0.19552944061E+03 -0.45738416119E+03  0.52844112039E+03  0.90752831331E+02 0.  0.
         23    2    4    4    0    0 -0.59998890897E+03  0.38110996313E+03 -0.58030651233E+03  0.92210136446E+03  0.91015291054E+02 0.  0.
          4    1    3    3  502    0  0.42388284208E+03 -0.16186509596E+03 -0.14357390157E+04  0.15057302196E+04  0.00000000000E+00 0. -1.
         -3    1    3    3    0  502  0.22542046785E+02 -0.23715426555E+02 -0.61575909173E+02  0.69729175533E+02  0.00000000000E+00 0.  1.
         13    1    5    5    0    0  0.72801959882E+02 -0.78483881804E+02 -0.11202081537E+03  0.15494679133E+03  0.00000000000E+00 0.  1.
        -13    1    5    5    0    0  0.80762060224E+02 -0.11704555881E+03 -0.34536334582E+03  0.37349432907E+03  0.00000000000E+00 0. -1.
          1    1    6    6  503    0 -0.96301733106E+02  0.10333897714E+03 -0.12180355142E+03  0.18651829169E+03  0.00000000000E+00 0. -1.
         -1    1    6    6    0  503 -0.50368717586E+03  0.27777098598E+03 -0.45850296091E+03  0.73558307277E+03  0.00000000000E+00 0.  1.
<mgrwt>
<rscale>  0 0.16524025E+04</rscale>
<asrwt>0</asrwt>
<pdfrwt beam="1">  1        2 0.42776980E+00 0.16524025E+04</pdfrwt>
<pdfrwt beam="2">  1       -1 0.37768946E-01 0.16524025E+04</pdfrwt>
<totfact> 0.17539201E+01</totfact>
</mgrwt>
</event>
<event>
12    7  0.1572140E-007  0.2223541E+04  0.7818608E-02  0.8508693E-01
         -1   -1    0    0    0  501 -0.00000000000E+00  0.00000000000E+00  0.42053351610E+03  0.42053351610E+03  0.00000000000E+00 0.  1.
          2   -1    0    0  501    0  0.00000000000E+00 -0.00000000000E+00 -0.29392038790E+04  0.29392038790E+04  0.00000000000E+00 0. -1.
         24    2    1    2    0    0  0.21042211898E+03  0.41231256155E+03  0.16027472560E+03  0.49629155576E+03  0.79612838712E+02 0.  0.
        254    2    1    2    0    0 -0.21042211898E+03 -0.41231256155E+03 -0.26789450885E+04  0.28634458394E+04  0.89905293010E+03 0.  0.
         23    2    4    4    0    0 -0.16816133480E+03  0.24726289385E+03 -0.55819079992E+03  0.64015906882E+03  0.93858889204E+02 0.  0.
         23    2    4    4    0    0 -0.42260784178E+02 -0.65957545540E+03 -0.21207542886E+04  0.22232867706E+04  0.92625893914E+02 0.  0.
          4    1    3    3  502    0  0.76361783819E+02  0.91241678220E+02  0.64863933937E+02  0.13551197659E+03  0.00000000000E+00 0. -1.
         -3    1    3    3    0  502  0.13406033516E+03  0.32107088333E+03  0.95410791660E+02  0.36077957917E+03  0.00000000000E+00 0.  1.
         13    1    5    5    0    0 -0.16682988452E+03  0.25255033250E+03 -0.52075698398E+03  0.60233023930E+03  0.00000000000E+00 0.  1.
        -13    1    5    5    0    0 -0.13314502886E+01 -0.52874386444E+01 -0.37433815940E+02  0.37828829524E+02  0.00000000000E+00 0. -1.
          3    1    6    6  503    0 -0.38637243941E+01  0.38968195811E-01 -0.31164518657E+01  0.49640867182E+01  0.00000000000E+00 0. -1.
         -3    1    6    6    0  503 -0.38397059784E+02 -0.65961442359E+03 -0.21176378368E+04  0.22183226838E+04  0.00000000000E+00 0.  1.
<mgrwt>
<rscale>  0 0.22235411E+04</rscale>
<asrwt>0</asrwt>
<pdfrwt beam="1">  1        2 0.45218521E+00 0.22235411E+04</pdfrwt>
<pdfrwt beam="2">  1       -1 0.64697464E-01 0.22235411E+04</pdfrwt>
<totfact> 0.47820139E+00</totfact>
</mgrwt>
</event>
<event>
12    7  0.1572140E-007  0.1362573E+04  0.7818608E-02  0.8981365E-01
          2   -1    0    0  501    0  0.00000000000E+00  0.00000000000E+00  0.12404834806E+04  0.12404834806E+04  0.00000000000E+00 0. -1.
         -1   -1    0    0    0  501 -0.00000000000E+00 -0.00000000000E+00 -0.37416982519E+03  0.37416982519E+03  0.00000000000E+00 0.  1.
         24    2    1    2    0    0  0.43168893697E+02  0.19792634791E+03  0.61278430388E+03  0.65030681769E+03  0.79724284070E+02 0.  0.
        254    2    1    2    0    0 -0.43168893697E+02 -0.19792634791E+03  0.25352935154E+03  0.96434648812E+03  0.90810165977E+03 0.  0.
         23    2    4    4    0    0  0.15171550749E+03 -0.38071558445E+03 -0.17136973416E+03  0.45384076771E+03  0.92961848035E+02 0.  0.
         23    2    4    4    0    0 -0.19488440119E+03  0.18278923654E+03  0.42489908570E+03  0.51050572041E+03  0.93193469275E+02 0.  0.
          2    1    3    3  502    0  0.51616649942E+02  0.19833860106E+03  0.54977694818E+03  0.58673432827E+03  0.00000000000E+00 0. -1.
         -1    1    3    3    0  502 -0.84477562446E+01 -0.41225315515E+00  0.63007355698E+02  0.63572489414E+02  0.00000000000E+00 0.  1.
         13    1    5    5    0    0  0.11752323743E+03 -0.19759776361E+03 -0.12576825564E+03  0.26205770671E+03  0.00000000000E+00 0. -1.
        -13    1    5    5    0    0  0.34192270060E+02 -0.18311782084E+03 -0.45601478520E+02  0.19178306100E+03  0.00000000000E+00 0.  1.
          3    1    6    6  503    0 -0.13886277980E+03  0.91835595460E+02  0.32039049663E+03  0.36106331652E+03  0.00000000000E+00 0. -1.
         -3    1    6    6    0  503 -0.56021621396E+02  0.90953641084E+02  0.10450858908E+03  0.14944240389E+03  0.00000000000E+00 0.  1.
<mgrwt>
<rscale>  0 0.13625733E+04</rscale>
<asrwt>0</asrwt>
<pdfrwt beam="1">  1        2 0.19084361E+00 0.13625733E+04</pdfrwt>
<pdfrwt beam="2">  1       -1 0.57564589E-01 0.13625733E+04</pdfrwt>
<totfact> 0.60930147E+01</totfact>
</mgrwt>
</event>
<event>
12    7  0.1572140E-007  0.1294806E+04  0.7818608E-02  0.9033694E-01
         -1   -1    0    0    0  501 -0.00000000000E+00  0.00000000000E+00  0.11335208005E+04  0.11335208005E+04  0.00000000000E+00 0.  1.
          2   -1    0    0  501    0  0.00000000000E+00 -0.00000000000E+00 -0.36976015560E+03  0.36976015560E+03  0.00000000000E+00 0. -1.
         24    2    1    2    0    0  0.21121963453E+03  0.14417315472E+03  0.44001948804E+03  0.51516122384E+03  0.79839239348E+02 0.  0.
        254    2    1    2    0    0 -0.21121963453E+03 -0.14417315472E+03  0.32374115689E+03  0.98811973230E+03  0.89787116901E+03 0.  0.
         23    2    4    4    0    0 -0.33712968027E+03 -0.27659849257E+03 -0.15269540215E+03  0.47015503814E+03  0.86986933750E+02 0.  0.
         23    2    4    4    0    0  0.12591004573E+03  0.13242533785E+03  0.47643655903E+03  0.51796469416E+03  0.88914677560E+02 0.  0.
          2    1    3    3  502    0  0.32186342088E+02  0.57756473154E+02  0.78933899303E+02  0.10296762242E+03  0.00000000000E+00 0. -1.
         -1    1    3    3    0  502  0.17903329245E+03  0.86416681569E+02  0.36108558873E+03  0.41219360142E+03  0.00000000000E+00 0.  1.
         13    1    5    5    0    0 -0.17348930794E+03 -0.10260489109E+03 -0.37684229115E+02  0.20505220011E+03  0.00000000000E+00 0.  1.
        -13    1    5    5    0    0 -0.16364037233E+03 -0.17399360148E+03 -0.11501117303E+03  0.26510283804E+03  0.00000000000E+00 0. -1.
          1    1    6    6  503    0  0.61350123876E+02  0.71049091665E+02  0.13057263172E+03  0.16081362902E+03  0.00000000000E+00 0.  1.
         -1    1    6    6    0  503  0.64559921857E+02  0.61376246185E+02  0.34586392732E+03  0.35715106513E+03  0.00000000000E+00 0. -1.
<mgrwt>
<rscale>  0 0.12948063E+04</rscale>
<asrwt>0</asrwt>
<pdfrwt beam="1">  1        2 0.56886178E-01 0.12948063E+04</pdfrwt>
<pdfrwt beam="2">  1       -1 0.17438781E+00 0.12948063E+04</pdfrwt>
<totfact> 0.22284208E+01</totfact>
</mgrwt>
</event>
<event>
12    7  0.1572140E-007  0.2038469E+04  0.7818608E-02  0.8588844E-01
          2   -1    0    0  501    0  0.00000000000E+00  0.00000000000E+00  0.12202196879E+04  0.12202196879E+04  0.00000000000E+00 0. -1.
         -1   -1    0    0    0  501 -0.00000000000E+00 -0.00000000000E+00 -0.85135366840E+03  0.85135366840E+03  0.00000000000E+00 0.  1.
         24    2    1    2    0    0 -0.11833745199E+03 -0.52381513632E+03  0.79773898374E+03  0.96439513671E+03  0.72694180925E+02 0.  0.
        254    2    1    2    0    0  0.11833745199E+03  0.52381513632E+03 -0.42887296420E+03  0.11071782196E+04  0.86805848941E+03 0.  0.
         23    2    4    4    0    0  0.30255884813E+03 -0.10185933298E+03 -0.27607147301E+03  0.43104583888E+03  0.87566413140E+02 0.  0.
         23    2    4    4    0    0 -0.18422139614E+03  0.62567446930E+03 -0.15280149119E+03  0.67613238076E+03  0.91654984955E+02 0.  0.
          4    1    3    3  502    0 -0.11683955260E+03 -0.46425484949E+03  0.67014605873E+03  0.82357743192E+03  0.00000000000E+00 0. -1.
         -3    1    3    3    0  502 -0.14978993839E+01 -0.59560286831E+02  0.12759292501E+03  0.14081770479E+03  0.00000000000E+00 0.  1.
         13    1    5    5    0    0  0.22356841416E+03 -0.11424438141E+03 -0.21107423832E+03  0.32800449475E+03  0.00000000000E+00 0. -1.
        -13    1    5    5    0    0  0.78990433966E+02  0.12385048427E+02 -0.64997234691E+02  0.10304134413E+03  0.00000000000E+00 0.  1.
          2    1    6    6  503    0  0.15273671732E+01 -0.28375969721E+01 -0.12219104293E+01  0.34464288989E+01  0.00000000000E+00 0.  1.
         -2    1    6    6    0  503 -0.18574876331E+03  0.62851206627E+03 -0.15157958076E+03  0.67268595186E+03  0.00000000000E+00 0. -1.
<mgrwt>
<rscale>  0 0.20384686E+04</rscale>
<asrwt>0</asrwt>
<pdfrwt beam="1">  1        2 0.18772611E+00 0.20384686E+04</pdfrwt>
<pdfrwt beam="2">  1       -1 0.13097749E+00 0.20384686E+04</pdfrwt>
<totfact> 0.96800979E+00</totfact>
</mgrwt>
</event>
<event>
12    7  0.1572140E-007  0.1517010E+04  0.7818608E-02  0.8873220E-01
          2   -1    0    0  501    0  0.00000000000E+00  0.00000000000E+00  0.12798023278E+04  0.12798023278E+04  0.00000000000E+00 0. -1.
         -1   -1    0    0    0  501 -0.00000000000E+00 -0.00000000000E+00 -0.44954566143E+03  0.44954566143E+03  0.00000000000E+00 0.  1.
         24    2    1    2    0    0  0.38261368576E+03  0.19549022746E+02  0.60936662924E+03  0.72410229847E+03  0.78873652071E+02 0.  0.
        254    2    1    2    0    0 -0.38261368576E+03 -0.19549022746E+02  0.22089003711E+03  0.10052456907E+04  0.90274641703E+03 0.  0.
         23    2    4    4    0    0 -0.13097554118E+03 -0.14546842426E+03 -0.32187396635E+03  0.38766815441E+03  0.91477280694E+02 0.  0.
         23    2    4    4    0    0 -0.25163814458E+03  0.12591940151E+03  0.54276400347E+03  0.61757753634E+03  0.87360165102E+02 0.  0.
          4    1    3    3  502    0  0.56521604843E+02 -0.35978550633E+01  0.14957979164E+03  0.15994295996E+03  0.00000000000E+00 0. -1.
         -3    1    3    3    0  502  0.32609208091E+03  0.23146877810E+02  0.45978683761E+03  0.56415933851E+03  0.00000000000E+00 0.  1.
         13    1    5    5    0    0  0.37503371162E+01  0.97666764044E+01 -0.13758081589E+02  0.17284033253E+02  0.00000000000E+00 0. -1.
        -13    1    5    5    0    0 -0.13472587830E+03 -0.15523510066E+03 -0.30811588477E+03  0.37038412116E+03  0.00000000000E+00 0.  1.
          2    1    6    6  503    0 -0.24613505058E+03  0.13390179242E+03  0.49467108845E+03  0.56851705241E+03  0.00000000000E+00 0.  1.
         -2    1    6    6    0  503 -0.55030940012E+01 -0.79823909081E+01  0.48092915018E+02  0.49060483926E+02  0.00000000000E+00 0. -1.
<mgrwt>
<rscale>  0 0.15170097E+04</rscale>
<asrwt>0</asrwt>
<pdfrwt beam="1">  1        2 0.19689266E+00 0.15170097E+04</pdfrwt>
<pdfrwt beam="2">  1       -1 0.69160872E-01 0.15170097E+04</pdfrwt>
<totfact> 0.39525471E+01</totfact>
</mgrwt>
</event>
<event>
12    7  0.1572140E-007  0.1988395E+04  0.7818608E-02  0.8612066E-01
         -1   -1    0    0    0  501 -0.00000000000E+00  0.00000000000E+00  0.60202957728E+03  0.60202957728E+03  0.00000000000E+00 0.  1.
          2   -1    0    0  501    0  0.00000000000E+00 -0.00000000000E+00 -0.16418268392E+04  0.16418268392E+04  0.00000000000E+00 0. -1.
         24    2    1    2    0    0 -0.21076977962E+03 -0.20155934631E+03  0.41409665278E+03  0.51295857955E+03  0.81242823720E+02 0.  0.
        254    2    1    2    0    0  0.21076977962E+03  0.20155934631E+03 -0.14538939147E+04  0.17308978370E+04  0.89283242360E+03 0.  0.
         23    2    4    4    0    0 -0.23236678228E+03  0.13456472383E+03 -0.97242427931E+02  0.29927059654E+03  0.89469624765E+02 0.  0.
         23    2    4    4    0    0  0.44313656191E+03  0.66994622478E+02 -0.13566514868E+04  0.14316272404E+04  0.90526277663E+02 0.  0.
          2    1    3    3  502    0 -0.10087220018E+02 -0.15516811638E+02  0.74823172668E+02  0.77078081315E+02  0.00000000000E+00 0. -1.
         -1    1    3    3    0  502 -0.20068255961E+03 -0.18604253467E+03  0.33927348011E+03  0.43588049824E+03  0.00000000000E+00 0.  1.
         13    1    5    5    0    0 -0.18401274593E+03  0.13162279785E+03 -0.50198757884E+02  0.23174375261E+03  0.00000000000E+00 0. -1.
        -13    1    5    5    0    0 -0.48354036350E+02  0.29419259777E+01 -0.47043670047E+02  0.67526843931E+02  0.00000000000E+00 0.  1.
          1    1    6    6  503    0  0.43060915390E+03  0.79039947180E+02 -0.13258296574E+04  0.13962434735E+04  0.00000000000E+00 0. -1.
         -1    1    6    6    0  503  0.12527408008E+02 -0.12045324702E+02 -0.30821829382E+02  0.35383766971E+02  0.00000000000E+00 0.  1.
<mgrwt>
<rscale>  0 0.19883946E+04</rscale>
<asrwt>0</asrwt>
<pdfrwt beam="1">  1        2 0.25258874E+00 0.19883946E+04</pdfrwt>
<pdfrwt beam="2">  1       -1 0.92619935E-01 0.19883946E+04</pdfrwt>
<totfact> 0.12686161E+01</totfact>
</mgrwt>
</event>
<event>
12    7  0.1572140E-007  0.1849195E+04  0.7818608E-02  0.8680567E-01
          2   -1    0    0  501    0  0.00000000000E+00  0.00000000000E+00  0.77931430317E+03  0.77931430317E+03  0.00000000000E+00 0. -1.
         -1   -1    0    0    0  501 -0.00000000000E+00 -0.00000000000E+00 -0.10969644415E+04  0.10969644415E+04  0.00000000000E+00 0.  1.
         24    2    1    2    0    0 -0.16337087276E+03  0.21326877991E+03 -0.73644195247E+03  0.78781514254E+03  0.78309226199E+02 0.  0.
        254    2    1    2    0    0  0.16337087276E+03 -0.21326877991E+03  0.41879181417E+03  0.10884636021E+04  0.96808719387E+03 0.  0.
         23    2    4    4    0    0  0.50906547577E+03 -0.19472162561E+02  0.44312405726E+03  0.68119824338E+03  0.90251276612E+02 0.  0.
         23    2    4    4    0    0 -0.34569460301E+03 -0.19379661735E+03 -0.24332243096E+02  0.40726535872E+03  0.90615268642E+02 0.  0.
          2    1    3    3  502    0 -0.38807279676E+02  0.10969079706E+03 -0.34835146233E+03  0.36726940687E+03  0.00000000000E+00 0. -1.
         -1    1    3    3    0  502 -0.12456359309E+03  0.10357798285E+03 -0.38809049014E+03  0.42054573567E+03  0.00000000000E+00 0.  1.
         13    1    5    5    0    0  0.10200765901E+03 -0.35857003998E+02  0.11738160590E+03  0.15959238276E+03  0.00000000000E+00 0. -1.
        -13    1    5    5    0    0  0.40705781676E+03  0.16384841437E+02  0.32574245136E+03  0.52160586062E+03  0.00000000000E+00 0.  1.
          4    1    6    6  503    0 -0.30851053156E+03 -0.13559490735E+03 -0.12747710827E+02  0.33723468255E+03  0.00000000000E+00 0. -1.
         -4    1    6    6    0  503 -0.37184071449E+02 -0.58201710003E+02 -0.11584532269E+02  0.70030676169E+02  0.00000000000E+00 0.  1.
<mgrwt>
<rscale>  0 0.18491945E+04</rscale>
<asrwt>0</asrwt>
<pdfrwt beam="1">  1        2 0.11989451E+00 0.18491945E+04</pdfrwt>
<pdfrwt beam="2">  1       -1 0.16876376E+00 0.18491945E+04</pdfrwt>
<totfact> 0.96195394E+00</totfact>
</mgrwt>
</event>
<event>
12    7  0.1572140E-007  0.1435130E+04  0.7818608E-02  0.8928775E-01
         -1   -1    0    0    0  501 -0.00000000000E+00  0.00000000000E+00  0.43099845796E+03  0.43099845796E+03  0.00000000000E+00 0.  1.
          2   -1    0    0  501    0  0.00000000000E+00 -0.00000000000E+00 -0.11946665948E+04  0.11946665948E+04  0.00000000000E+00 0. -1.
         24    2    1    2    0    0  0.13605545837E+03 -0.94869227578E+02 -0.69348183605E+03  0.71748821349E+03  0.79756012139E+02 0.  0.
        254    2    1    2    0    0 -0.13605545837E+03  0.94869227578E+02 -0.70186300837E+02  0.90817683932E+03  0.89013920066E+03 0.  0.
         23    2    4    4    0    0 -0.45594100982E+03  0.26104242195E+03 -0.60110139217E+02  0.53592926454E+03  0.87072367914E+02 0.  0.
         23    2    4    4    0    0  0.31988555145E+03 -0.16617319437E+03 -0.10076161619E+02  0.37224757478E+03  0.92338677393E+02 0.  0.
          2    1    3    3  502    0  0.74974470031E+02 -0.70735903751E+02 -0.55153391431E+03  0.56108323613E+03  0.00000000000E+00 0. -1.
         -1    1    3    3    0  502  0.61080988343E+02 -0.24133323827E+02 -0.14194792174E+03  0.15640497736E+03  0.00000000000E+00 0.  1.
         13    1    5    5    0    0 -0.11424725820E+03  0.24184946262E+02 -0.14463982334E+02  0.11767138317E+03  0.00000000000E+00 0. -1.
        -13    1    5    5    0    0 -0.34169375162E+03  0.23685747569E+03 -0.45646156883E+02  0.41825788136E+03  0.00000000000E+00 0.  1.
          2    1    6    6  503    0  0.89879947671E+02 -0.15307063403E+02 -0.31209002619E+02  0.96367593245E+02  0.00000000000E+00 0. -1.
         -2    1    6    6    0  503  0.23000560378E+03 -0.15086613097E+03  0.21132841000E+02  0.27587998154E+03  0.00000000000E+00 0.  1.
<mgrwt>
<rscale>  0 0.14351299E+04</rscale>
<asrwt>0</asrwt>
<pdfrwt beam="1">  1        2 0.18379486E+00 0.14351299E+04</pdfrwt>
<pdfrwt beam="2">  1       -1 0.66307456E-01 0.14351299E+04</pdfrwt>
<totfact> 0.48685345E+01</totfact>
</mgrwt>
</event>
<event>
12    7  0.1572140E-007  0.1594062E+04  0.7818608E-02  0.8824204E-01
          2   -1    0    0  501    0  0.00000000000E+00  0.00000000000E+00  0.10640652956E+04  0.10640652956E+04  0.00000000000E+00 0. -1.
         -1   -1    0    0    0  501 -0.00000000000E+00 -0.00000000000E+00 -0.59701083944E+03  0.59701083944E+03  0.00000000000E+00 0.  1.
         24    2    1    2    0    0  0.93959245606E+02  0.46883794046E+03  0.41933786739E+03  0.64095620474E+03  0.79644554850E+02 0.  0.
        254    2    1    2    0    0 -0.93959245606E+02 -0.46883794046E+03  0.47716588741E+02  0.10201199303E+04  0.89985023479E+03 0.  0.
         23    2    4    4    0    0  0.33026881678E+03  0.30598080912E+02 -0.56478975512E+02  0.35019380395E+03  0.97118956722E+02 0.  0.
         23    2    4    4    0    0 -0.42422806238E+03 -0.49943602138E+03  0.10419556425E+03  0.66992612633E+03  0.92404062479E+02 0.  0.
          2    1    3    3  502    0  0.82090275237E+02  0.46410858756E+03  0.41314902101E+03  0.62675968911E+03  0.00000000000E+00 0. -1.
         -1    1    3    3    0  502  0.11868970369E+02  0.47293529065E+01  0.61888463760E+01  0.14196515629E+02  0.00000000000E+00 0.  1.
         13    1    5    5    0    0  0.20640648706E+03 -0.20806624539E+02 -0.60284470103E+02  0.21603418910E+03  0.00000000000E+00 0.  1.
        -13    1    5    5    0    0  0.12386232972E+03  0.51404705451E+02  0.38054945912E+01  0.13415961485E+03  0.00000000000E+00 0. -1.
          3    1    6    6  503    0 -0.34320151389E+03 -0.42536262154E+03  0.54006313080E+02  0.54921518624E+03  0.00000000000E+00 0. -1.
         -3    1    6    6    0  503 -0.81026548495E+02 -0.74073399835E+02  0.50189251173E+02  0.12071094009E+03  0.00000000000E+00 0.  1.
<mgrwt>
<rscale>  0 0.15940621E+04</rscale>
<asrwt>0</asrwt>
<pdfrwt beam="1">  1        2 0.16370235E+00 0.15940621E+04</pdfrwt>
<pdfrwt beam="2">  1       -1 0.91847822E-01 0.15940621E+04</pdfrwt>
<totfact> 0.28990354E+01</totfact>
</mgrwt>
</event>
<event>
12    7  0.1618418E-007  0.2513969E+04  0.7818608E-02  0.8398026E-01
          2   -1    0    0  501    0  0.00000000000E+00  0.00000000000E+00  0.13366680846E+04  0.13366680846E+04  0.00000000000E+00 0. -1.
         -1   -1    0    0    0  501 -0.00000000000E+00 -0.00000000000E+00 -0.11820506925E+04  0.11820506925E+04  0.00000000000E+00 0.  1.
         24    2    1    2    0    0  0.60456461163E+03  0.80661337989E+03  0.49079035817E+03  0.11239239831E+04  0.78780898183E+02 0.  0.
        254    2    1    2    0    0 -0.60456461163E+03 -0.80661337989E+03 -0.33617296606E+03  0.13947947940E+04  0.90350248481E+03 0.  0.
         23    2    4    4    0    0 -0.19841360058E+03 -0.69387023329E+03  0.15222646077E+03  0.74319705311E+03  0.91351556375E+02 0.  0.
         23    2    4    4    0    0 -0.40615101105E+03 -0.11274314660E+03 -0.48839942683E+03  0.65159774091E+03  0.91520243356E+02 0.  0.
          4    1    3    3  502    0  0.45489299115E+03  0.58449800912E+03  0.32415613476E+03  0.80848175969E+03  0.00000000000E+00 0. -1.
         -3    1    3    3    0  502  0.14967162048E+03  0.22211537078E+03  0.16663422341E+03  0.31544222343E+03  0.00000000000E+00 0.  1.
         13    1    5    5    0    0 -0.20806707857E+03 -0.67242322792E+03  0.14588127849E+03  0.71883673671E+03  0.00000000000E+00 0. -1.
        -13    1    5    5    0    0  0.96534779990E+01 -0.21447005374E+02  0.63451822763E+01  0.24360316400E+02  0.00000000000E+00 0.  1.
          4    1    6    6  503    0 -0.25583061975E+03 -0.10319413810E+03 -0.36091449740E+03  0.45426601300E+03  0.00000000000E+00 0. -1.
         -4    1    6    6    0  503 -0.15032039130E+03 -0.95490085025E+01 -0.12748492943E+03  0.19733172791E+03  0.00000000000E+00 0.  1.
<mgrwt>
<rscale>  0 0.25139685E+04</rscale>
<asrwt>0</asrwt>
<pdfrwt beam="1">  1        2 0.20564124E+00 0.25139685E+04</pdfrwt>
<pdfrwt beam="2">  1       -1 0.18185395E+00 0.25139685E+04</pdfrwt>
<totfact> 0.32244897E+00</totfact>
</mgrwt>
</event>
<event>
12    7  0.1572140E-007  0.1422263E+04  0.7818608E-02  0.8937859E-01
         -1   -1    0    0    0  501 -0.00000000000E+00  0.00000000000E+00  0.18412127802E+03  0.18412127802E+03  0.00000000000E+00 0.  1.
          2   -1    0    0  501    0  0.00000000000E+00 -0.00000000000E+00 -0.27466034352E+04  0.27466034352E+04  0.00000000000E+00 0. -1.
         24    2    1    2    0    0  0.62992627342E+02  0.15990238114E+03  0.19082148702E+02  0.19053836903E+03  0.80024365537E+02 0.  0.
        254    2    1    2    0    0 -0.62992627342E+02 -0.15990238114E+03 -0.25815643059E+04  0.27401863442E+04  0.90255752885E+03 0.  0.
         23    2    4    4    0    0 -0.11505981585E+03 -0.38982313519E+03 -0.23733272599E+04  0.24094735791E+04  0.87634512614E+02 0.  0.
         23    2    4    4    0    0  0.52067188506E+02  0.22992075405E+03 -0.20823704592E+03  0.33071276504E+03  0.10214558436E+03 0.  0.
          2    1    3    3  502    0 -0.66732260843E+01 -0.42253139238E+01 -0.67324180858E+01  0.10378375471E+02  0.00000000000E+00 0. -1.
         -1    1    3    3    0  502  0.69665853426E+02  0.16412769507E+03  0.25814566788E+02  0.18015999356E+03  0.00000000000E+00 0.  1.
         13    1    5    5    0    0  0.11734939097E+01 -0.66310759224E+02 -0.55390998102E+03  0.55786625723E+03  0.00000000000E+00 0.  1.
        -13    1    5    5    0    0 -0.11623330976E+03 -0.32351237597E+03 -0.18194172789E+04  0.18516073219E+04  0.00000000000E+00 0. -1.
          2    1    6    6  503    0  0.54295842705E+02  0.12625635620E+03 -0.17354589556E+03  0.22137498477E+03  0.00000000000E+00 0. -1.
         -2    1    6    6    0  503 -0.22286541985E+01  0.10366439785E+03 -0.34691150364E+02  0.10933778027E+03  0.00000000000E+00 0.  1.
<mgrwt>
<rscale>  0 0.14222632E+04</rscale>
<asrwt>0</asrwt>
<pdfrwt beam="1">  1        2 0.42255433E+00 0.14222632E+04</pdfrwt>
<pdfrwt beam="2">  1       -1 0.28326353E-01 0.14222632E+04</pdfrwt>
<totfact> 0.31276137E+01</totfact>
</mgrwt>
</event>
<event>
12    7  0.1572140E-007  0.2250465E+04  0.7818608E-02  0.8497712E-01
         -1   -1    0    0    0  501 -0.00000000000E+00  0.00000000000E+00  0.15284301879E+04  0.15284301879E+04  0.00000000000E+00 0.  1.
          2   -1    0    0  501    0  0.00000000000E+00 -0.00000000000E+00 -0.82839760903E+03  0.82839760903E+03  0.00000000000E+00 0. -1.
         24    2    1    2    0    0 -0.55466746935E+03  0.27621849184E+03 -0.44947924871E+03  0.76974524481E+03  0.80768125538E+02 0.  0.
        254    2    1    2    0    0  0.55466746935E+03 -0.27621849184E+03  0.11495118276E+04  0.15870825521E+04  0.90194286333E+03 0.  0.
         23    2    4    4    0    0  0.55779280060E+03  0.16561645848E+03  0.89002523512E+03  0.10672824228E+04  0.91570907206E+02 0.  0.
         23    2    4    4    0    0 -0.31253312509E+01 -0.44183495032E+03  0.25948659244E+03  0.51980012936E+03  0.87355548214E+02 0.  0.
          2    1    3    3  502    0 -0.32996435866E+03  0.20447027792E+03 -0.26032745825E+03  0.46739165381E+03  0.00000000000E+00 0. -1.
         -1    1    3    3    0  502 -0.22470311069E+03  0.71748213921E+02 -0.18915179046E+03  0.30235359100E+03  0.00000000000E+00 0.  1.
         13    1    5    5    0    0  0.32044291782E+02 -0.10510785242E+02  0.38890864159E+02  0.51476330067E+02  0.00000000000E+00 0. -1.
        -13    1    5    5    0    0  0.52574850882E+03  0.17612724372E+03  0.85113437096E+03  0.10158060927E+04  0.00000000000E+00 0.  1.
          3    1    6    6  503    0  0.16264103820E+02 -0.20737682821E+03  0.76053001368E+02  0.22148076433E+03  0.00000000000E+00 0. -1.
         -3    1    6    6    0  503 -0.19389435071E+02 -0.23445812210E+03  0.18343359107E+03  0.29831936502E+03  0.00000000000E+00 0.  1.
<mgrwt>
<rscale>  0 0.22504648E+04</rscale>
<asrwt>0</asrwt>
<pdfrwt beam="1">  1        2 0.12744579E+00 0.22504648E+04</pdfrwt>
<pdfrwt beam="2">  1       -1 0.23514310E+00 0.22504648E+04</pdfrwt>
<totfact> 0.29788102E+00</totfact>
</mgrwt>
</event>
<event>
12    7  0.1572140E-007  0.2712451E+04  0.7818608E-02  0.8330976E-01
          2   -1    0    0  501    0  0.00000000000E+00  0.00000000000E+00  0.22877734235E+04  0.22877734235E+04  0.00000000000E+00 0. -1.
         -1   -1    0    0    0  501 -0.00000000000E+00 -0.00000000000E+00 -0.80399010574E+03  0.80399010574E+03  0.00000000000E+00 0.  1.
         24    2    1    2    0    0 -0.68797163670E+03  0.96020646142E+03  0.38719304213E+03  0.12446954003E+04  0.63614197003E+02 0.  0.
        254    2    1    2    0    0  0.68797163670E+03 -0.96020646142E+03  0.10965902756E+04  0.18470681289E+04  0.90213580960E+03 0.  0.
         23    2    4    4    0    0  0.27970259243E+02 -0.53931165123E+03  0.86821590202E+03  0.10265230995E+04  0.91167037082E+02 0.  0.
         23    2    4    4    0    0  0.66000137746E+03 -0.42089481020E+03  0.22837437356E+03  0.82054502947E+03  0.91569817060E+02 0.  0.
          4    1    3    3  502    0 -0.56011222126E+03  0.75824804721E+03  0.28592226169E+03  0.98509763031E+03  0.00000000000E+00 0. -1.
         -3    1    3    3    0  502 -0.12785941544E+03  0.20195841421E+03  0.10127078044E+03  0.25959776994E+03  0.00000000000E+00 0.  1.
         13    1    5    5    0    0  0.18072952506E+02 -0.51330781817E+03  0.77915416475E+03  0.93321635233E+03  0.00000000000E+00 0.  1.
        -13    1    5    5    0    0  0.98973067363E+01 -0.26003833055E+02  0.89061737271E+02  0.93306747129E+02  0.00000000000E+00 0. -1.
          2    1    6    6  503    0  0.34464585813E+03 -0.27325551302E+03  0.13363604247E+03  0.45968242817E+03  0.00000000000E+00 0. -1.
         -2    1    6    6    0  503  0.31535551933E+03 -0.14763929718E+03  0.94738331086E+02  0.36086260130E+03  0.00000000000E+00 0.  1.
<mgrwt>
<rscale>  0 0.27124507E+04</rscale>
<asrwt>0</asrwt>
<pdfrwt beam="1">  1        2 0.35196514E+00 0.27124507E+04</pdfrwt>
<pdfrwt beam="2">  1       -1 0.12369079E+00 0.27124507E+04</pdfrwt>
<totfact> 0.26371438E+00</totfact>
</mgrwt>
</event>
<event>
12    7  0.1572140E-007  0.2148129E+04  0.7818608E-02  0.8540333E-01
          2   -1    0    0  501    0  0.00000000000E+00  0.00000000000E+00  0.15375523207E+04  0.15375523207E+04  0.00000000000E+00 0. -1.
         -1   -1    0    0    0  501 -0.00000000000E+00 -0.00000000000E+00 -0.75029300982E+03  0.75029300982E+03  0.00000000000E+00 0.  1.
         24    2    1    2    0    0 -0.81115600375E+03  0.20645142787E+03  0.44763505840E+02  0.84276851236E+03  0.87514224419E+02 0.  0.
        254    2    1    2    0    0  0.81115600375E+03 -0.20645142787E+03  0.74249580500E+03  0.14450768181E+04  0.91452213495E+03 0.  0.
         23    2    4    4    0    0  0.18716059920E+03 -0.33886078298E+03  0.69313729214E+03  0.79905000600E+03  0.90475887356E+02 0.  0.
         23    2    4    4    0    0  0.62399540455E+03  0.13240935510E+03  0.49358512858E+02  0.64602681212E+03  0.89509088736E+02 0.  0.
          2    1    3    3  502    0 -0.47885081232E+02 -0.11132233605E+01  0.18487119333E+02  0.51341930740E+02  0.00000000000E+00 0. -1.
         -1    1    3    3    0  502 -0.76327092252E+03  0.20756465124E+03  0.26276386506E+02  0.79142658162E+03  0.00000000000E+00 0.  1.
         13    1    5    5    0    0  0.10972918009E+03 -0.27316579793E+03  0.54548566681E+03  0.61985051328E+03  0.00000000000E+00 0.  1.
        -13    1    5    5    0    0  0.77431419111E+02 -0.65694985051E+02  0.14765162533E+03  0.17919949272E+03  0.00000000000E+00 0. -1.
          1    1    6    6  503    0 -0.97299361421E+00  0.20819660968E+01  0.56735001238E+01  0.61212664585E+01  0.00000000000E+00 0. -1.
         -1    1    6    6    0  503  0.62496839816E+03  0.13032738901E+03  0.43685012735E+02  0.63990554566E+03  0.00000000000E+00 0.  1.
<mgrwt>
<rscale>  0 0.21481292E+04</rscale>
<asrwt>0</asrwt>
<pdfrwt beam="1">  1        2 0.23654651E+00 0.21481292E+04</pdfrwt>
<pdfrwt beam="2">  1       -1 0.11542969E+00 0.21481292E+04</pdfrwt>
<totfact> 0.86001241E+00</totfact>
</mgrwt>
</event>
<event>
12    7  0.1572140E-007  0.1387411E+04  0.7818608E-02  0.8962982E-01
         -1   -1    0    0    0  501 -0.00000000000E+00  0.00000000000E+00  0.25851864584E+03  0.25851864584E+03  0.00000000000E+00 0.  1.
          2   -1    0    0  501    0  0.00000000000E+00 -0.00000000000E+00 -0.18614790409E+04  0.18614790409E+04  0.00000000000E+00 0. -1.
         24    2    1    2    0    0 -0.23628387766E+03 -0.28016764407E+03 -0.25274873304E+03  0.45230110847E+03  0.79814729479E+02 0.  0.
        254    2    1    2    0    0  0.23628387766E+03  0.28016764407E+03 -0.13502116620E+04  0.16676965782E+04  0.90764330287E+03 0.  0.
         23    2    4    4    0    0 -0.13847010740E+03  0.14237591780E+03  0.38021022642E+02  0.22029096385E+03  0.87393580872E+02 0.  0.
         23    2    4    4    0    0  0.37475398506E+03  0.13779172627E+03 -0.13882326846E+04  0.14474056144E+04  0.91465385350E+02 0.  0.
          4    1    3    3  502    0 -0.18899296295E+03 -0.19445842992E+03 -0.14798486196E+03  0.30892060530E+03  0.00000000000E+00 0. -1.
         -3    1    3    3    0  502 -0.47290914718E+02 -0.85709214151E+02 -0.10476387108E+03  0.14338050317E+03  0.00000000000E+00 0.  1.
         13    1    5    5    0    0 -0.64282269332E+01  0.59183783810E+02 -0.53700355967E+00  0.59534282060E+02  0.00000000000E+00 0. -1.
        -13    1    5    5    0    0 -0.13204188047E+03  0.83192133991E+02  0.38558026202E+02  0.16075668179E+03  0.00000000000E+00 0.  1.
          3    1    6    6  503    0  0.47429017485E+02  0.47744126607E+02 -0.17249055944E+03  0.18515400730E+03  0.00000000000E+00 0. -1.
         -3    1    6    6    0  503  0.32732496758E+03  0.90047599664E+02 -0.12157421252E+04  0.12622516071E+04  0.00000000000E+00 0.  1.
<mgrwt>
<rscale>  0 0.13874106E+04</rscale>
<asrwt>0</asrwt>
<pdfrwt beam="1">  1        2 0.28638139E+00 0.13874106E+04</pdfrwt>
<pdfrwt beam="2">  1       -1 0.39772099E-01 0.13874106E+04</pdfrwt>
<totfact> 0.54498536E+01</totfact>
</mgrwt>
</event>
<event>
12    7  0.1572140E-007  0.2066780E+04  0.7818608E-02  0.8576020E-01
          2   -1    0    0  501    0  0.00000000000E+00  0.00000000000E+00  0.10756377947E+04  0.10756377947E+04  0.00000000000E+00 0. -1.
         -1   -1    0    0    0  501 -0.00000000000E+00 -0.00000000000E+00 -0.99280173187E+03  0.99280173187E+03  0.00000000000E+00 0.  1.
         24    2    1    2    0    0 -0.39132515839E+03 -0.74636685513E+03  0.56071245826E+02  0.84847349986E+03  0.81021190588E+02 0.  0.
        254    2    1    2    0    0  0.39132515839E+03  0.74636685513E+03  0.26764816959E+02  0.12199660267E+04  0.88170396890E+03 0.  0.
         23    2    4    4    0    0  0.35670496503E+03  0.93593538380E+03  0.12079300612E+01  0.10059149949E+04  0.93005608628E+02 0.  0.
         23    2    4    4    0    0  0.34620193358E+02 -0.18956852867E+03  0.25556886897E+02  0.21405103172E+03  0.89609736433E+02 0.  0.
          4    1    3    3  502    0 -0.15689882289E+03 -0.28837210406E+03 -0.17383044121E+02  0.32875200569E+03  0.00000000000E+00 0. -1.
         -3    1    3    3    0  502 -0.23442633550E+03 -0.45799475108E+03  0.73454289947E+02  0.51972149417E+03  0.00000000000E+00 0.  1.
         13    1    5    5    0    0  0.19488324632E+03  0.38232791237E+03 -0.16013625987E+01  0.42913480008E+03  0.00000000000E+00 0. -1.
        -13    1    5    5    0    0  0.16182171871E+03  0.55360747143E+03  0.28092926600E+01  0.57678019487E+03  0.00000000000E+00 0.  1.
          3    1    6    6  503    0 -0.20408586987E+02 -0.82988741630E+02  0.37864172544E+02  0.93473724772E+02  0.00000000000E+00 0. -1.
         -3    1    6    6    0  503  0.55028780345E+02 -0.10657978704E+03 -0.12307285647E+02  0.12057730695E+03  0.00000000000E+00 0.  1.
<mgrwt>
<rscale>  0 0.20667802E+04</rscale>
<asrwt>0</asrwt>
<pdfrwt beam="1">  1        2 0.16548274E+00 0.20667802E+04</pdfrwt>
<pdfrwt beam="2">  1       -1 0.15273873E+00 0.20667802E+04</pdfrwt>
<totfact> 0.78974988E+00</totfact>
</mgrwt>
</event>
<event>
12    7  0.1572140E-007  0.1968820E+04  0.7818608E-02  0.8621339E-01
         -1   -1    0    0    0  501 -0.00000000000E+00  0.00000000000E+00  0.13583527931E+04  0.13583527931E+04  0.00000000000E+00 0.  1.
          2   -1    0    0  501    0  0.00000000000E+00 -0.00000000000E+00 -0.71341010681E+03  0.71341010681E+03  0.00000000000E+00 0. -1.
         24    2    1    2    0    0 -0.36067651735E+03 -0.11978263159E+03  0.97359691019E+03  0.10481655756E+04  0.79527991193E+02 0.  0.
        254    2    1    2    0    0  0.36067651735E+03  0.11978263159E+03 -0.32865422393E+03  0.10235973243E+04  0.89179731686E+03 0.  0.
         23    2    4    4    0    0 -0.14437377736E+03 -0.24286384162E+03  0.30024070165E+02  0.29985087691E+03  0.95825207732E+02 0.  0.
         23    2    4    4    0    0  0.50505029471E+03  0.36264647321E+03 -0.35867829409E+03  0.72374644736E+03  0.92577193156E+02 0.  0.
          4    1    3    3  502    0 -0.93178092848E+01  0.10036975994E+02  0.33077844194E+02  0.35800925036E+02  0.00000000000E+00 0. -1.
         -3    1    3    3    0  502 -0.35135870806E+03 -0.12981960758E+03  0.94051906599E+03  0.10123646506E+04  0.00000000000E+00 0.  1.
         13    1    5    5    0    0 -0.82384031356E+02 -0.88414993695E+02  0.52791636499E+02  0.13187606537E+03  0.00000000000E+00 0.  1.
        -13    1    5    5    0    0 -0.61989746008E+02 -0.15444884793E+03 -0.22767566334E+02  0.16797481154E+03  0.00000000000E+00 0. -1.
          4    1    6    6  503    0  0.52380162364E+00  0.14707448118E+02 -0.26007531360E+01  0.14944808970E+02  0.00000000000E+00 0. -1.
         -4    1    6    6    0  503  0.50452649309E+03  0.34793902509E+03 -0.35607754095E+03  0.70880163839E+03  0.00000000000E+00 0.  1.
<mgrwt>
<rscale>  0 0.19688196E+04</rscale>
<asrwt>0</asrwt>
<pdfrwt beam="1">  1        2 0.10975540E+00 0.19688196E+04</pdfrwt>
<pdfrwt beam="2">  1       -1 0.20897735E+00 0.19688196E+04</pdfrwt>
<totfact> 0.55544895E+00</totfact>
</mgrwt>
</event>
<event>
12    7  0.1572140E-007  0.2464053E+04  0.7818608E-02  0.8415905E-01
         -1   -1    0    0    0  501 -0.00000000000E+00  0.00000000000E+00  0.44198832048E+03  0.44198832048E+03  0.00000000000E+00 0.  1.
          2   -1    0    0  501    0  0.00000000000E+00 -0.00000000000E+00 -0.34342298376E+04  0.34342298376E+04  0.00000000000E+00 0. -1.
         24    2    1    2    0    0 -0.10544281890E+04 -0.32183018771E+02 -0.11325536797E+04  0.15497439018E+04  0.78573348645E+02 0.  0.
        254    2    1    2    0    0  0.10544281890E+04  0.32183018771E+02 -0.18596878374E+04  0.23264742563E+04  0.91716359514E+03 0.  0.
         23    2    4    4    0    0  0.35077002468E+03  0.20994359299E+03 -0.11428339533E+03  0.43395347977E+03  0.90216438119E+02 0.  0.
         23    2    4    4    0    0  0.70365816435E+03 -0.17776057422E+03 -0.17454044421E+04  0.18925207766E+04  0.92003202498E+02 0.  0.
          4    1    3    3  502    0 -0.93460109402E+03 -0.31256568425E+02 -0.96507045354E+03  0.13438069647E+04  0.00000000000E+00 0. -1.
         -3    1    3    3    0  502 -0.11982709500E+03 -0.92645034674E+00 -0.16748322620E+03  0.20593693710E+03  0.00000000000E+00 0.  1.
         13    1    5    5    0    0  0.96398662130E+02  0.87247548104E+02 -0.19981870411E+01  0.13003395503E+03  0.00000000000E+00 0.  1.
        -13    1    5    5    0    0  0.25437136255E+03  0.12269604488E+03 -0.11228520829E+03  0.30391952473E+03  0.00000000000E+00 0. -1.
          4    1    6    6  503    0  0.60827448046E+03 -0.18134012891E+03 -0.15542127921E+04  0.16788268193E+04  0.00000000000E+00 0. -1.
         -4    1    6    6    0  503  0.95383683891E+02  0.35795546951E+01 -0.19119164996E+03  0.21369395728E+03  0.00000000000E+00 0.  1.
<mgrwt>
<rscale>  0 0.24640531E+04</rscale>
<asrwt>0</asrwt>
<pdfrwt beam="1">  1        2 0.52834306E+00 0.24640531E+04</pdfrwt>
<pdfrwt beam="2">  1       -1 0.67998202E-01 0.24640531E+04</pdfrwt>
<totfact> 0.20146355E+00</totfact>
</mgrwt>
</event>
<event>
12    7  0.1572140E-007  0.1526585E+04  0.7818608E-02  0.8866964E-01
         -1   -1    0    0    0  501 -0.00000000000E+00  0.00000000000E+00  0.17663702873E+03  0.17663702873E+03  0.00000000000E+00 0.  1.
          2   -1    0    0  501    0  0.00000000000E+00 -0.00000000000E+00 -0.32983749042E+04  0.32983749042E+04  0.00000000000E+00 0. -1.
         24    2    1    2    0    0 -0.31348036551E+03  0.29547940078E+03 -0.15344182130E+04  0.15957217962E+04  0.79440435354E+02 0.  0.
        254    2    1    2    0    0  0.31348036551E+03 -0.29547940078E+03 -0.15873196625E+04  0.18792901367E+04  0.90915878215E+03 0.  0.
         23    2    4    4    0    0  0.23139673848E+02 -0.47032047211E+03 -0.14027002846E+04  0.14825247457E+04  0.92599903772E+02 0.  0.
         23    2    4    4    0    0  0.29034069167E+03  0.17484107133E+03 -0.18461937791E+03  0.39676539103E+03  0.92039900911E+02 0.  0.
          4    1    3    3  502    0 -0.27854144022E+03  0.22858757078E+03 -0.12021404371E+04  0.12549817695E+04  0.00000000000E+00 0. -1.
         -3    1    3    3    0  502 -0.34938925293E+02  0.66891830002E+02 -0.33227777590E+03  0.34074002667E+03  0.00000000000E+00 0.  1.
         13    1    5    5    0    0 -0.29500452991E+01 -0.48696469059E+01 -0.16140327507E+01  0.59178822205E+01  0.00000000000E+00 0. -1.
        -13    1    5    5    0    0  0.26089719147E+02 -0.46545082521E+03 -0.14010862518E+04  0.14766068635E+04  0.00000000000E+00 0.  1.
          3    1    6    6  503    0  0.13394137516E+03  0.34866777209E+02 -0.48761393349E+02  0.14674350961E+03  0.00000000000E+00 0. -1.
         -3    1    6    6    0  503  0.15639931651E+03  0.13997429413E+03 -0.13585798456E+03  0.25002188142E+03  0.00000000000E+00 0.  1.
<mgrwt>
<rscale>  0 0.15265846E+04</rscale>
<asrwt>0</asrwt>
<pdfrwt beam="1">  1        2 0.50744232E+00 0.15265846E+04</pdfrwt>
<pdfrwt beam="2">  1       -1 0.27174926E-01 0.15265846E+04</pdfrwt>
<totfact> 0.15028247E+01</totfact>
</mgrwt>
</event>
<event>
12    7  0.1572140E-007  0.2242429E+04  0.7818608E-02  0.8500973E-01
         -1   -1    0    0    0  501 -0.00000000000E+00  0.00000000000E+00  0.97347061511E+03  0.97347061511E+03  0.00000000000E+00 0.  1.
          2   -1    0    0  501    0  0.00000000000E+00 -0.00000000000E+00 -0.12913812115E+04  0.12913812115E+04  0.00000000000E+00 0. -1.
         24    2    1    2    0    0  0.57654778171E+03 -0.24349404132E+03 -0.83794338119E+03  0.10487343040E+04  0.77445707705E+02 0.  0.
        254    2    1    2    0    0 -0.57654778171E+03  0.24349404132E+03  0.52003278475E+03  0.12161175226E+04  0.90377598931E+03 0.  0.
         23    2    4    4    0    0 -0.71037026782E+03  0.33060948530E+03  0.62555704812E+03  0.10065967092E+04  0.89368704916E+02 0.  0.
         23    2    4    4    0    0  0.13382248611E+03 -0.87115443977E+02 -0.10552426337E+03  0.20952081338E+03  0.85241085813E+02 0.  0.
          2    1    3    3  502    0  0.49981873417E+03 -0.18258001990E+03 -0.72288726427E+03  0.89761919963E+03  0.00000000000E+00 0. -1.
         -1    1    3    3    0  502  0.76729047536E+02 -0.60914021419E+02 -0.11505611692E+03  0.15111510441E+03  0.00000000000E+00 0.  1.
         13    1    5    5    0    0 -0.48008336936E+03  0.23699854578E+03  0.47661629194E+03  0.71680641876E+03  0.00000000000E+00 0. -1.
        -13    1    5    5    0    0 -0.23028689846E+03  0.93610939518E+02  0.14894075618E+03  0.28979029047E+03  0.00000000000E+00 0.  1.
          4    1    6    6  503    0  0.13001229133E+03 -0.47412332930E+02 -0.65822695420E+02  0.15324409431E+03  0.00000000000E+00 0.  1.
         -4    1    6    6    0  503  0.38101947871E+01 -0.39703111047E+02 -0.39701567950E+02  0.56276719066E+02  0.00000000000E+00 0. -1.
<mgrwt>
<rscale>  0 0.22424287E+04</rscale>
<asrwt>0</asrwt>
<pdfrwt beam="1">  1        2 0.19867403E+00 0.22424287E+04</pdfrwt>
<pdfrwt beam="2">  1       -1 0.14976471E+00 0.22424287E+04</pdfrwt>
<totfact> 0.60837464E+00</totfact>
</mgrwt>
</event>
<event>
12    7  0.1572140E-007  0.2001011E+04  0.7818608E-02  0.8606148E-01
          2   -1    0    0  501    0  0.00000000000E+00  0.00000000000E+00  0.64797782516E+03  0.64797782516E+03  0.00000000000E+00 0. -1.
         -1   -1    0    0    0  501 -0.00000000000E+00 -0.00000000000E+00 -0.15448235001E+04  0.15448235001E+04  0.00000000000E+00 0.  1.
         24    2    1    2    0    0  0.34501147342E+03  0.70232380625E+03 -0.30214868637E+03  0.84306661816E+03  0.84710379318E+02 0.  0.
        254    2    1    2    0    0 -0.34501147342E+03 -0.70232380625E+03 -0.59469698861E+03  0.13497347071E+04  0.92510952098E+03 0.  0.
         23    2    4    4    0    0 -0.21106898755E+03  0.19426898993E+03 -0.13752853886E+03  0.33037823673E+03  0.89135415781E+02 0.  0.
         23    2    4    4    0    0 -0.13394248586E+03 -0.89659279618E+03 -0.45716844975E+03  0.10193564704E+04  0.90914193902E+02 0.  0.
          4    1    3    3  502    0  0.20357726337E+02  0.68916319435E+02 -0.51706485495E+02  0.88529411770E+02  0.00000000000E+00 0. -1.
         -3    1    3    3    0  502  0.32465374708E+03  0.63340748681E+03 -0.25044220088E+03  0.75453720639E+03  0.00000000000E+00 0.  1.
         13    1    5    5    0    0 -0.19116592458E+03  0.20232678485E+03 -0.13271577909E+03  0.30837317751E+03  0.00000000000E+00 0. -1.
        -13    1    5    5    0    0 -0.19903062974E+02 -0.80577949140E+01 -0.48127597619E+01  0.22005059217E+02  0.00000000000E+00 0.  1.
          4    1    6    6  503    0 -0.61046318661E+02 -0.56313549281E+03 -0.24271179018E+03  0.61624447209E+03  0.00000000000E+00 0.  1.
         -4    1    6    6    0  503 -0.72896167203E+02 -0.33345730337E+03 -0.21445665957E+03  0.40311199833E+03  0.00000000000E+00 0. -1.
<mgrwt>
<rscale>  0 0.20010111E+04</rscale>
<asrwt>0</asrwt>
<pdfrwt beam="1">  1        2 0.99688897E-01 0.20010111E+04</pdfrwt>
<pdfrwt beam="2">  1       -1 0.23766515E+00 0.20010111E+04</pdfrwt>
<totfact> 0.40209294E+00</totfact>
</mgrwt>
</event>
<event>
12    7  0.1572140E-007  0.1343435E+04  0.7818608E-02  0.8995813E-01
          2   -1    0    0  501    0  0.00000000000E+00  0.00000000000E+00  0.50534542572E+03  0.50534542572E+03  0.00000000000E+00 0. -1.
         -1   -1    0    0    0  501 -0.00000000000E+00 -0.00000000000E+00 -0.89286283144E+03  0.89286283144E+03  0.00000000000E+00 0.  1.
         24    2    1    2    0    0  0.28587824726E+03 -0.20578628078E+03 -0.25940257802E+02  0.36223135282E+03  0.80400810812E+02 0.  0.
        254    2    1    2    0    0 -0.28587824726E+03  0.20578628078E+03 -0.36157714792E+03  0.10359769043E+04  0.90467438719E+03 0.  0.
         23    2    4    4    0    0  0.72137933603E+02 -0.27860847535E+02  0.25357047132E+03  0.28122381812E+03  0.93854907499E+02 0.  0.
         23    2    4    4    0    0 -0.35801618086E+03  0.23364712831E+03 -0.61514761924E+03  0.75475308623E+03  0.92081819016E+02 0.  0.
          4    1    3    3  502    0  0.28139911586E+03 -0.21136648104E+03 -0.31245668450E+02  0.35332356773E+03  0.00000000000E+00 0. -1.
         -3    1    3    3    0  502  0.44791313911E+01  0.55802002643E+01  0.53054106481E+01  0.89077850869E+01  0.00000000000E+00 0.  1.
         13    1    5    5    0    0 -0.80880862366E+01  0.24419781334E+02  0.48582156871E+02  0.54972436963E+02  0.00000000000E+00 0. -1.
        -13    1    5    5    0    0  0.80226019840E+02 -0.52280628869E+02  0.20498831445E+03  0.22625138115E+03  0.00000000000E+00 0.  1.
          4    1    6    6  503    0 -0.14749671179E+02  0.59200430046E+01 -0.68225085009E+02  0.70051851750E+02  0.00000000000E+00 0. -1.
         -4    1    6    6    0  503 -0.34326650968E+03  0.22772708531E+03 -0.54692253423E+03  0.68470123448E+03  0.00000000000E+00 0.  1.
<mgrwt>
<rscale>  0 0.13434346E+04</rscale>
<asrwt>0</asrwt>
<pdfrwt beam="1">  1        2 0.77745451E-01 0.13434346E+04</pdfrwt>
<pdfrwt beam="2">  1       -1 0.13736351E+00 0.13434346E+04</pdfrwt>
<totfact> 0.29941264E+01</totfact>
</mgrwt>
</event>
<event>
12    7  0.1572140E-007  0.1461000E+04  0.7818608E-02  0.8910810E-01
         -1   -1    0    0    0  501 -0.00000000000E+00  0.00000000000E+00  0.56603445248E+03  0.56603445248E+03  0.00000000000E+00 0.  1.
          2   -1    0    0  501    0  0.00000000000E+00 -0.00000000000E+00 -0.94275260572E+03  0.94275260572E+03  0.00000000000E+00 0. -1.
         24    2    1    2    0    0 -0.30623546970E+03 -0.28177048608E+03  0.18303387093E+02  0.42421918801E+03  0.80325187642E+02 0.  0.
        254    2    1    2    0    0  0.30623546970E+03  0.28177048608E+03 -0.39502154033E+03  0.10845678702E+04  0.92036442673E+03 0.  0.
         23    2    4    4    0    0  0.21993940981E+03  0.33436409492E+02  0.27134646297E+03  0.36278400216E+03  0.92152003732E+02 0.  0.
         23    2    4    4    0    0  0.86296059889E+02  0.24833407659E+03 -0.66636800330E+03  0.72178386802E+03  0.88367487060E+02 0.  0.
          4    1    3    3  502    0 -0.91122066581E+02 -0.39408238248E+02  0.12931130221E+02  0.10011720326E+03  0.00000000000E+00 0. -1.
         -3    1    3    3    0  502 -0.21511340312E+03 -0.24236224783E+03  0.53722568715E+01  0.32410198475E+03  0.00000000000E+00 0.  1.
         13    1    5    5    0    0  0.17183694300E+03 -0.15053599020E+02  0.19470359285E+03  0.26012311488E+03  0.00000000000E+00 0.  1.
        -13    1    5    5    0    0  0.48102466807E+02  0.48490008511E+02  0.76642870116E+02  0.10266088728E+03  0.00000000000E+00 0. -1.
          3    1    6    6  503    0  0.27849084505E+01  0.26526268306E+01 -0.85555017303E+02  0.85641421811E+02  0.00000000000E+00 0. -1.
         -3    1    6    6    0  503  0.83511151439E+02  0.24568144976E+03 -0.58081298600E+03  0.63614244621E+03  0.00000000000E+00 0.  1.
<mgrwt>
<rscale>  0 0.14610003E+04</rscale>
<asrwt>0</asrwt>
<pdfrwt beam="1">  1        2 0.14503886E+00 0.14610003E+04</pdfrwt>
<pdfrwt beam="2">  1       -1 0.87082224E-01 0.14610003E+04</pdfrwt>
<totfact> 0.39433108E+01</totfact>
</mgrwt>
</event>
<event>
12    7  0.1572140E-007  0.2787572E+04  0.7818608E-02  0.8307137E-01
          2   -1    0    0  501    0  0.00000000000E+00  0.00000000000E+00  0.28641482603E+04  0.28641482603E+04  0.00000000000E+00 0. -1.
         -1   -1    0    0    0  501 -0.00000000000E+00 -0.00000000000E+00 -0.67826087152E+03  0.67826087152E+03  0.00000000000E+00 0.  1.
         24    2    1    2    0    0 -0.92542780278E+03 -0.81737385683E+03  0.10141834683E+04  0.15997799825E+04  0.78811451944E+02 0.  0.
        254    2    1    2    0    0  0.92542780278E+03  0.81737385683E+03  0.11717039204E+04  0.19426291493E+04  0.93616307048E+03 0.  0.
         23    2    4    4    0    0  0.55826696562E+03 -0.74966485511E+02  0.54021942701E+03  0.78588518444E+03  0.92176542296E+02 0.  0.
         23    2    4    4    0    0  0.36716083716E+03  0.89234034234E+03  0.63148449340E+03  0.11567439648E+04  0.90584589601E+02 0.  0.
          2    1    3    3  502    0 -0.21831773815E+03 -0.22940351468E+03  0.23329103302E+03  0.39333613288E+03  0.00000000000E+00 0. -1.
         -1    1    3    3    0  502 -0.70711006464E+03 -0.58797034215E+03  0.78089243530E+03  0.12064438496E+04  0.00000000000E+00 0.  1.
         13    1    5    5    0    0  0.94286361898E+02  0.40004660680E+01  0.52011729318E+02  0.10775500803E+03  0.00000000000E+00 0.  1.
        -13    1    5    5    0    0  0.46398060372E+03 -0.78966951579E+02  0.48820769770E+03  0.67813017641E+03  0.00000000000E+00 0. -1.
          4    1    6    6  503    0  0.29599481760E+03  0.63582121888E+03  0.42743552092E+03  0.82132982350E+03  0.00000000000E+00 0. -1.
         -4    1    6    6    0  503  0.71166019564E+02  0.25651912346E+03  0.20404897248E+03  0.33541414134E+03  0.00000000000E+00 0.  1.
<mgrwt>
<rscale>  0 0.27875722E+04</rscale>
<asrwt>0</asrwt>
<pdfrwt beam="1">  1        2 0.44063819E+00 0.27875722E+04</pdfrwt>
<pdfrwt beam="2">  1       -1 0.10434783E+00 0.27875722E+04</pdfrwt>
<totfact> 0.18068315E+00</totfact>
</mgrwt>
</event>
<event>
12    7  0.1572140E-007  0.1638996E+04  0.7818608E-02  0.8796943E-01
         -1   -1    0    0    0  501 -0.00000000000E+00  0.00000000000E+00  0.57605285028E+03  0.57605285028E+03  0.00000000000E+00 0.  1.
          2   -1    0    0  501    0  0.00000000000E+00 -0.00000000000E+00 -0.11658249021E+04  0.11658249021E+04  0.00000000000E+00 0. -1.
         24    2    1    2    0    0  0.42140271499E+03 -0.73771756636E+02 -0.58674340078E+03  0.73046701568E+03  0.79320378016E+02 0.  0.
        254    2    1    2    0    0 -0.42140271499E+03  0.73771756636E+02 -0.30286510442E+01  0.10114107367E+04  0.91647148636E+03 0.  0.
         23    2    4    4    0    0 -0.64554210795E+02 -0.39418154362E+03 -0.50874112990E+02  0.41292435515E+03  0.91498700783E+02 0.  0.
         23    2    4    4    0    0 -0.35684850419E+03  0.46795330025E+03  0.47845461946E+02  0.59848638155E+03  0.97855068909E+02 0.  0.
          2    1    3    3  502    0  0.22874817079E+03 -0.28335516743E+02 -0.25147754659E+03  0.34112986323E+03  0.00000000000E+00 0. -1.
         -1    1    3    3    0  502  0.19265454420E+03 -0.45436239892E+02 -0.33526585419E+03  0.38933715245E+03  0.00000000000E+00 0.  1.
         13    1    5    5    0    0 -0.29350922210E+02 -0.40812650047E+02  0.13424105437E+02  0.52032255815E+02  0.00000000000E+00 0.  1.
        -13    1    5    5    0    0 -0.35203288584E+02 -0.35336889357E+03 -0.64298218427E+02  0.36089209934E+03  0.00000000000E+00 0. -1.
          3    1    6    6  503    0 -0.32565217329E+03  0.45902838301E+03  0.54224956061E+02  0.56541731512E+03  0.00000000000E+00 0. -1.
         -3    1    6    6    0  503 -0.31196330901E+02  0.89249172444E+01 -0.63794941153E+01  0.33069066432E+02  0.00000000000E+00 0.  1.
<mgrwt>
<rscale>  0 0.16389957E+04</rscale>
<asrwt>0</asrwt>
<pdfrwt beam="1">  1        2 0.17935767E+00 0.16389957E+04</pdfrwt>
<pdfrwt beam="2">  1       -1 0.88623517E-01 0.16389957E+04</pdfrwt>
<totfact> 0.27062089E+01</totfact>
</mgrwt>
</event>
<event>
12    7  0.1572140E-007  0.1709588E+04  0.7818608E-02  0.8755915E-01
         -1   -1    0    0    0  501 -0.00000000000E+00  0.00000000000E+00  0.47494126018E+03  0.47494126018E+03  0.00000000000E+00 0.  1.
          2   -1    0    0  501    0  0.00000000000E+00 -0.00000000000E+00 -0.15384487678E+04  0.15384487678E+04  0.00000000000E+00 0. -1.
         24    2    1    2    0    0  0.20004592839E+03  0.55940876483E+03 -0.73971427669E+03  0.95202172343E+03  0.78813774808E+02 0.  0.
        254    2    1    2    0    0 -0.20004592839E+03 -0.55940876483E+03 -0.32379323095E+03  0.10613683046E+04  0.81774328607E+03 0.  0.
         23    2    4    4    0    0 -0.50839042719E+03 -0.34248292600E+03 -0.14936188170E+03  0.63595032915E+03  0.79802684024E+02 0.  0.
         23    2    4    4    0    0  0.30834449880E+03 -0.21692583883E+03 -0.17443134924E+03  0.42541797543E+03  0.91766054346E+02 0.  0.
          4    1    3    3  502    0  0.15411206830E+03  0.47679586239E+03 -0.65800816115E+03  0.82707893464E+03  0.00000000000E+00 0. -1.
         -3    1    3    3    0  502  0.45933860089E+02  0.82612902440E+02 -0.81706115540E+02  0.12494278878E+03  0.00000000000E+00 0.  1.
         13    1    5    5    0    0 -0.22484963949E+03 -0.18071246670E+03 -0.37617438456E+02  0.29091137426E+03  0.00000000000E+00 0. -1.
        -13    1    5    5    0    0 -0.28354078770E+03 -0.16177045930E+03 -0.11174444325E+03  0.34503895489E+03  0.00000000000E+00 0.  1.
          1    1    6    6  503    0  0.19553538174E+03 -0.11197791471E+03 -0.14667015808E+03  0.26885920882E+03  0.00000000000E+00 0. -1.
         -1    1    6    6    0  503  0.11280911706E+03 -0.10494792412E+03 -0.27761191161E+02  0.15655876661E+03  0.00000000000E+00 0.  1.
<mgrwt>
<rscale>  0 0.17095880E+04</rscale>
<asrwt>0</asrwt>
<pdfrwt beam="1">  1        2 0.23668443E+00 0.17095880E+04</pdfrwt>
<pdfrwt beam="2">  1       -1 0.73067886E-01 0.17095880E+04</pdfrwt>
<totfact> 0.24699838E+01</totfact>
</mgrwt>
</event>
<event>
12    7  0.1572140E-007  0.1236798E+04  0.7818608E-02  0.9081244E-01
         -1   -1    0    0    0  501 -0.00000000000E+00  0.00000000000E+00  0.43385464565E+03  0.43385464565E+03  0.00000000000E+00 0.  1.
          2   -1    0    0  501    0  0.00000000000E+00 -0.00000000000E+00 -0.88144066914E+03  0.88144066914E+03  0.00000000000E+00 0. -1.
         24    2    1    2    0    0  0.29906015384E+02  0.47591626804E+02 -0.38071210145E+03  0.39341211698E+03  0.81682659705E+02 0.  0.
        254    2    1    2    0    0 -0.29906015384E+02 -0.47591626804E+02 -0.66873922036E+02  0.92188319781E+03  0.91773480715E+03 0.  0.
         23    2    4    4    0    0 -0.44252378321E+03  0.93322475016E+02  0.43514801957E+02  0.46344251301E+03  0.91373091347E+02 0.  0.
         23    2    4    4    0    0  0.41261776783E+03 -0.14091410182E+03 -0.11038872399E+03  0.45844068480E+03  0.88724205689E+02 0.  0.
          2    1    3    3  502    0  0.16271935984E+02  0.56110853811E+02 -0.13406578574E+03  0.14624239715E+03  0.00000000000E+00 0. -1.
         -1    1    3    3    0  502  0.13634079400E+02 -0.85192270076E+01 -0.24664631571E+03  0.24716971983E+03  0.00000000000E+00 0.  1.
         13    1    5    5    0    0 -0.33778238925E+03  0.11011178719E+03  0.36072166805E+02  0.35710327552E+03  0.00000000000E+00 0. -1.
        -13    1    5    5    0    0 -0.10474139396E+03 -0.16789312176E+02  0.74426351526E+01  0.10633923749E+03  0.00000000000E+00 0.  1.
          2    1    6    6  503    0  0.32896588228E+03 -0.14086440150E+03 -0.66529969396E+02  0.36398841759E+03  0.00000000000E+00 0. -1.
         -2    1    6    6    0  503  0.83651885546E+02 -0.49700324585E-01 -0.43858754597E+02  0.94452267206E+02  0.00000000000E+00 0.  1.
<mgrwt>
<rscale>  0 0.12367977E+04</rscale>
<asrwt>0</asrwt>
<pdfrwt beam="1">  1        2 0.13560626E+00 0.12367977E+04</pdfrwt>
<pdfrwt beam="2">  1       -1 0.66746869E-01 0.12367977E+04</pdfrwt>
<totfact> 0.77139710E+01</totfact>
</mgrwt>
</event>
<event>
12    7  0.1572140E-007  0.1636848E+04  0.7818608E-02  0.8798225E-01
          2   -1    0    0  501    0  0.00000000000E+00  0.00000000000E+00  0.14834489483E+04  0.14834489483E+04  0.00000000000E+00 0. -1.
         -1   -1    0    0    0  501 -0.00000000000E+00 -0.00000000000E+00 -0.45152754685E+03  0.45152754685E+03  0.00000000000E+00 0.  1.
         24    2    1    2    0    0 -0.54957546182E+03 -0.23643859932E+02  0.18611651962E+03  0.58661569746E+03  0.82984319512E+02 0.  0.
        254    2    1    2    0    0  0.54957546182E+03  0.23643859932E+02  0.84580488179E+03  0.13483607977E+04  0.89448237671E+03 0.  0.
         23    2    4    4    0    0  0.76695453369E+03  0.12515897123E+03  0.71953475396E+03  0.10628996728E+04  0.90229858526E+02 0.  0.
         23    2    4    4    0    0 -0.21737907187E+03 -0.10151511130E+03  0.12627012783E+03  0.28546112489E+03  0.89358435146E+02 0.  0.
          2    1    3    3  502    0 -0.24615217251E+03  0.15497028507E+02  0.49485465133E+02  0.25155488702E+03  0.00000000000E+00 0. -1.
         -1    1    3    3    0  502 -0.30342328931E+03 -0.39140888439E+02  0.13663105448E+03  0.33506081044E+03  0.00000000000E+00 0.  1.
         13    1    5    5    0    0  0.13778389698E+03  0.58147210533E+02  0.13333411628E+03  0.20035839619E+03  0.00000000000E+00 0. -1.
        -13    1    5    5    0    0  0.62917063671E+03  0.67011760696E+02  0.58620063768E+03  0.86254127657E+03  0.00000000000E+00 0.  1.
          1    1    6    6  503    0 -0.22126043710E+03 -0.10893997873E+03  0.11701568374E+03  0.27297760024E+03  0.00000000000E+00 0. -1.
         -1    1    6    6    0  503  0.38813652210E+01  0.74248674366E+01  0.92544440852E+01  0.12483524653E+02  0.00000000000E+00 0.  1.
<mgrwt>
<rscale>  0 0.16368483E+04</rscale>
<asrwt>0</asrwt>
<pdfrwt beam="1">  1        2 0.22822291E+00 0.16368483E+04</pdfrwt>
<pdfrwt beam="2">  1       -1 0.69465777E-01 0.16368483E+04</pdfrwt>
<totfact> 0.29623008E+01</totfact>
</mgrwt>
</event>
<event>
12    7  0.1572140E-007  0.1383224E+04  0.7818608E-02  0.8966052E-01
          2   -1    0    0  501    0  0.00000000000E+00  0.00000000000E+00  0.14985783990E+04  0.14985783990E+04  0.00000000000E+00 0. -1.
         -1   -1    0    0    0  501 -0.00000000000E+00 -0.00000000000E+00 -0.31918750719E+03  0.31918750719E+03  0.00000000000E+00 0.  1.
         24    2    1    2    0    0  0.30107170679E+03  0.84079733411E+02  0.63609622628E+03  0.71321313638E+03  0.79630362350E+02 0.  0.
        254    2    1    2    0    0 -0.30107170679E+03 -0.84079733411E+02  0.54329466551E+03  0.11045527698E+04  0.90948015565E+03 0.  0.
         23    2    4    4    0    0  0.41844988769E+02  0.34734690154E+03  0.61650030514E+02  0.36707694299E+03  0.92433125635E+02 0.  0.
         23    2    4    4    0    0 -0.34291669556E+03 -0.43142663495E+03  0.48164463500E+03  0.73747582682E+03  0.90378312059E+02 0.  0.
          2    1    3    3  502    0  0.14372480304E+03  0.76750554159E+02  0.28250879957E+03  0.32612679805E+03  0.00000000000E+00 0. -1.
         -1    1    3    3    0  502  0.15734690375E+03  0.73291792520E+01  0.35358742671E+03  0.38708633833E+03  0.00000000000E+00 0.  1.
         13    1    5    5    0    0  0.41740692983E+02  0.62656271309E+02  0.28340564559E+02  0.80444275027E+02  0.00000000000E+00 0.  1.
        -13    1    5    5    0    0  0.10429578652E+00  0.28469063023E+03  0.33309465954E+02  0.28663266796E+03  0.00000000000E+00 0. -1.
          2    1    6    6  503    0 -0.50938252198E+01  0.24198147425E+01  0.15916374299E+02  0.16885897358E+02  0.00000000000E+00 0. -1.
         -2    1    6    6    0  503 -0.33782287034E+03 -0.43384644969E+03  0.46572826070E+03  0.72058992947E+03  0.00000000000E+00 0.  1.
<mgrwt>
<rscale>  0 0.13832245E+04</rscale>
<asrwt>0</asrwt>
<pdfrwt beam="1">  1        2 0.23055052E+00 0.13832245E+04</pdfrwt>
<pdfrwt beam="2">  1       -1 0.49105771E-01 0.13832245E+04</pdfrwt>
<totfact> 0.58653780E+01</totfact>
</mgrwt>
</event>
<event>
12    7  0.1572140E-007  0.1410476E+04  0.7818608E-02  0.8946270E-01
         -1   -1    0    0    0  501 -0.00000000000E+00  0.00000000000E+00  0.15599262524E+03  0.15599262524E+03  0.00000000000E+00 0.  1.
          2   -1    0    0  501    0  0.00000000000E+00 -0.00000000000E+00 -0.31883590396E+04  0.31883590396E+04  0.00000000000E+00 0. -1.
         24    2    1    2    0    0  0.40907570779E+03 -0.50696551226E+02 -0.11525877502E+04  0.12259663513E+04  0.67984538611E+02 0.  0.
        254    2    1    2    0    0 -0.40907570779E+03  0.50696551226E+02 -0.18797786642E+04  0.21183853136E+04  0.88548034172E+03 0.  0.
         23    2    4    4    0    0 -0.60516342653E+03  0.14223857036E+03 -0.82171169902E+03  0.10345600630E+04  0.93004429968E+02 0.  0.
         23    2    4    4    0    0  0.19608771874E+03 -0.91542019131E+02 -0.10580669652E+04  0.10838252506E+04  0.91329821622E+02 0.  0.
          4    1    3    3  502    0  0.23777295535E+03 -0.60352055618E+02 -0.63851190415E+03  0.68401447401E+03  0.00000000000E+00 0. -1.
         -3    1    3    3    0  502  0.17130275244E+03  0.96555043917E+01 -0.51407584606E+03  0.54195187725E+03  0.00000000000E+00 0.  1.
         13    1    5    5    0    0 -0.10960755144E+03  0.57376286456E+01 -0.99763039255E+02  0.14832194618E+03  0.00000000000E+00 0.  1.
        -13    1    5    5    0    0 -0.49555587509E+03  0.13650094171E+03 -0.72194865976E+03  0.88623811685E+03  0.00000000000E+00 0. -1.
          3    1    6    6  503    0  0.92941331824E+02 -0.49691091818E+02 -0.30773929546E+03  0.32528567404E+03  0.00000000000E+00 0. -1.
         -3    1    6    6    0  503  0.10314638692E+03 -0.41850927314E+02 -0.75032766970E+03  0.75853957653E+03  0.00000000000E+00 0.  1.
<mgrwt>
<rscale>  0 0.14104758E+04</rscale>
<asrwt>0</asrwt>
<pdfrwt beam="1">  1        2 0.49051673E+00 0.14104758E+04</pdfrwt>
<pdfrwt beam="2">  1       -1 0.23998868E-01 0.14104758E+04</pdfrwt>
<totfact> 0.22215212E+01</totfact>
</mgrwt>
</event>
<event>
12    7  0.1572140E-007  0.1704838E+04  0.7818608E-02  0.8758610E-01
         -1   -1    0    0    0  501 -0.00000000000E+00  0.00000000000E+00  0.66579399902E+03  0.66579399902E+03  0.00000000000E+00 0.  1.
          2   -1    0    0  501    0  0.00000000000E+00 -0.00000000000E+00 -0.10913553857E+04  0.10913553857E+04  0.00000000000E+00 0. -1.
         24    2    1    2    0    0 -0.36949493666E+03 -0.16970627722E+03 -0.66429363913E+03  0.78316919613E+03  0.82104945231E+02 0.  0.
        254    2    1    2    0    0  0.36949493666E+03  0.16970627722E+03  0.23873225245E+03  0.97398018859E+03  0.85224268296E+03 0.  0.
         23    2    4    4    0    0 -0.18803846744E+03  0.19943509808E+03 -0.10995317498E+03  0.30874089185E+03  0.89991188638E+02 0.  0.
         23    2    4    4    0    0  0.55753340410E+03 -0.29728820859E+02  0.34868542742E+03  0.66523929674E+03  0.96096280628E+02 0.  0.
          2    1    3    3  502    0 -0.31454433072E+03 -0.15528992411E+03 -0.51216006929E+03  0.62077454289E+03  0.00000000000E+00 0. -1.
         -1    1    3    3    0  502 -0.54950605937E+02 -0.14416353111E+02 -0.15213356984E+03  0.16239465324E+03  0.00000000000E+00 0.  1.
         13    1    5    5    0    0 -0.25281260441E+02 -0.46875052059E+01 -0.66230831056E+00  0.25720682084E+02  0.00000000000E+00 0. -1.
        -13    1    5    5    0    0 -0.16275720700E+03  0.20412260328E+03 -0.10929086667E+03  0.28302020977E+03  0.00000000000E+00 0.  1.
          3    1    6    6  503    0  0.23699511196E+03 -0.64324440213E+01  0.93455208312E+02  0.25483707617E+03  0.00000000000E+00 0. -1.
         -3    1    6    6    0  503  0.32053829214E+03 -0.23296376837E+02  0.25523021911E+03  0.41040222057E+03  0.00000000000E+00 0.  1.
<mgrwt>
<rscale>  0 0.17048377E+04</rscale>
<asrwt>0</asrwt>
<pdfrwt beam="1">  1        2 0.16790083E+00 0.17048377E+04</pdfrwt>
<pdfrwt beam="2">  1       -1 0.10242985E+00 0.17048377E+04</pdfrwt>
<totfact> 0.21583710E+01</totfact>
</mgrwt>
</event>
<event>
12    7  0.1572140E-007  0.1803598E+04  0.7818608E-02  0.8704389E-01
          2   -1    0    0  501    0  0.00000000000E+00  0.00000000000E+00  0.18492657936E+04  0.18492657936E+04  0.00000000000E+00 0. -1.
         -1   -1    0    0    0  501 -0.00000000000E+00 -0.00000000000E+00 -0.43976428107E+03  0.43976428107E+03  0.00000000000E+00 0.  1.
         24    2    1    2    0    0  0.12425480957E+03 -0.39993464002E+03  0.11982700353E+04  0.12718543079E+04  0.79845656491E+02 0.  0.
        254    2    1    2    0    0 -0.12425480957E+03  0.39993464002E+03  0.21123147716E+03  0.10171757668E+04  0.90257455625E+03 0.  0.
         23    2    4    4    0    0  0.21875890311E+03  0.86342692343E+02 -0.25086068993E+03  0.35584140116E+03  0.91550526043E+02 0.  0.
         23    2    4    4    0    0 -0.34301371269E+03  0.31359194767E+03  0.46209216709E+03  0.66133436562E+03  0.88519238140E+02 0.  0.
          2    1    3    3  502    0  0.11174410730E+03 -0.22846508134E+03  0.70268236562E+03  0.74729214224E+03  0.00000000000E+00 0. -1.
         -1    1    3    3    0  502  0.12510702273E+02 -0.17146955868E+03  0.49558766971E+03  0.52456216561E+03  0.00000000000E+00 0.  1.
         13    1    5    5    0    0  0.20824396934E+02 -0.18880244656E+02 -0.24894170904E+02  0.37547821387E+02  0.00000000000E+00 0. -1.
        -13    1    5    5    0    0  0.19793450618E+03  0.10522293700E+03 -0.22596651903E+03  0.31829357978E+03  0.00000000000E+00 0.  1.
          2    1    6    6  503    0 -0.34198632094E+02  0.69625238242E+01  0.16918383065E+02  0.38784724579E+02  0.00000000000E+00 0. -1.
         -2    1    6    6    0  503 -0.30881508059E+03  0.30662942385E+03  0.44517378403E+03  0.62254964104E+03  0.00000000000E+00 0.  1.
<mgrwt>
<rscale>  0 0.18035976E+04</rscale>
<asrwt>0</asrwt>
<pdfrwt beam="1">  1        2 0.28450243E+00 0.18035976E+04</pdfrwt>
<pdfrwt beam="2">  1       -1 0.67656044E-01 0.18035976E+04</pdfrwt>
<totfact> 0.19266667E+01</totfact>
</mgrwt>
</event>
<event>
12    7  0.1572140E-007  0.1666944E+04  0.7818608E-02  0.8780445E-01
         -1   -1    0    0    0  501 -0.00000000000E+00  0.00000000000E+00  0.34594742363E+03  0.34594742363E+03  0.00000000000E+00 0.  1.
          2   -1    0    0  501    0  0.00000000000E+00 -0.00000000000E+00 -0.20080375918E+04  0.20080375918E+04  0.00000000000E+00 0. -1.
         24    2    1    2    0    0 -0.29843101072E+03  0.48931102229E+03 -0.79632000532E+03  0.98427578982E+03  0.78657071183E+02 0.  0.
        254    2    1    2    0    0  0.29843101072E+03 -0.48931102229E+03 -0.86577016285E+03  0.13697092256E+04  0.89334150422E+03 0.  0.
         23    2    4    4    0    0  0.52008877883E+03 -0.44465020985E+02 -0.29051369031E+03  0.60397665217E+03  0.88995034406E+02 0.  0.
         23    2    4    4    0    0 -0.22165776811E+03 -0.44484600131E+03 -0.57525647254E+03  0.76573257345E+03  0.91685515766E+02 0.  0.
          2    1    3    3  502    0 -0.15838551131E+01  0.32484182589E+02 -0.31678073026E+02  0.45400782220E+02  0.00000000000E+00 0. -1.
         -1    1    3    3    0  502 -0.29684715561E+03  0.45682683970E+03 -0.76464193230E+03  0.93887500760E+03  0.00000000000E+00 0.  1.
         13    1    5    5    0    0  0.76306263595E+02 -0.11049259739E+02 -0.81856996933E+02  0.11245132259E+03  0.00000000000E+00 0.  1.
        -13    1    5    5    0    0  0.44378251523E+03 -0.33415761246E+02 -0.20865669338E+03  0.49152532958E+03  0.00000000000E+00 0. -1.
          1    1    6    6  503    0 -0.19832604619E+03 -0.43842670524E+03 -0.54801628298E+03  0.72929626550E+03  0.00000000000E+00 0. -1.
         -1    1    6    6    0  503 -0.23331721914E+02 -0.64192960673E+01 -0.27240189563E+02  0.36436307948E+02  0.00000000000E+00 0.  1.
<mgrwt>
<rscale>  0 0.16669438E+04</rscale>
<asrwt>0</asrwt>
<pdfrwt beam="1">  1        2 0.30892886E+00 0.16669438E+04</pdfrwt>
<pdfrwt beam="2">  1       -1 0.53222681E-01 0.16669438E+04</pdfrwt>
<totfact> 0.25587946E+01</totfact>
</mgrwt>
</event>
<event>
12    7  0.1572140E-007  0.2518860E+04  0.7818608E-02  0.8396297E-01
          2   -1    0    0  501    0  0.00000000000E+00  0.00000000000E+00  0.33430513954E+04  0.33430513954E+04  0.00000000000E+00 0. -1.
         -1   -1    0    0    0  501 -0.00000000000E+00 -0.00000000000E+00 -0.47446606315E+03  0.47446606315E+03  0.00000000000E+00 0.  1.
         24    2    1    2    0    0 -0.65733036005E+03 -0.94647846272E+02  0.25867325384E+04  0.26718119761E+04  0.79703160207E+02 0.  0.
        254    2    1    2    0    0  0.65733036005E+03  0.94647846272E+02  0.28185279392E+03  0.11457054825E+04  0.89003294210E+03 0.  0.
         23    2    4    4    0    0  0.51844059399E+03  0.38264502309E+03  0.43022101969E+03  0.78054307156E+03  0.94654622648E+02 0.  0.
         23    2    4    4    0    0  0.13888976606E+03 -0.28799717682E+03 -0.14836822577E+03  0.36516241089E+03  0.95381942379E+02 0.  0.
          4    1    3    3  502    0 -0.27142808322E+03 -0.18317141557E+02  0.11932381978E+04  0.12238570663E+04  0.00000000000E+00 0. -1.
         -3    1    3    3    0  502 -0.38590227683E+03 -0.76330704715E+02  0.13934943405E+04  0.14479549098E+04  0.00000000000E+00 0.  1.
         13    1    5    5    0    0  0.98657899034E+02  0.11866576751E+03  0.12149339506E+03  0.19640669658E+03  0.00000000000E+00 0. -1.
        -13    1    5    5    0    0  0.41978269496E+03  0.26397925558E+03  0.30872762463E+03  0.58413637498E+03  0.00000000000E+00 0.  1.
          1    1    6    6  503    0  0.49724844506E+02 -0.24687966941E+02 -0.20671492471E+02  0.59239906092E+02  0.00000000000E+00 0. -1.
         -1    1    6    6    0  503  0.89164921555E+02 -0.26330920988E+03 -0.12769673330E+03  0.30592250479E+03  0.00000000000E+00 0.  1.
<mgrwt>
<rscale>  0 0.25188604E+04</rscale>
<asrwt>0</asrwt>
<pdfrwt beam="1">  1        2 0.51431558E+00 0.25188604E+04</pdfrwt>
<pdfrwt beam="2">  1       -1 0.72994781E-01 0.25188604E+04</pdfrwt>
<totfact> 0.19982115E+00</totfact>
</mgrwt>
</event>
<event>
12    7  0.1572140E-007  0.1467064E+04  0.7818608E-02  0.8906655E-01
          2   -1    0    0  501    0  0.00000000000E+00  0.00000000000E+00  0.99832737251E+03  0.99832737251E+03  0.00000000000E+00 0. -1.
         -1   -1    0    0    0  501 -0.00000000000E+00 -0.00000000000E+00 -0.53897084274E+03  0.53897084274E+03  0.00000000000E+00 0.  1.
         24    2    1    2    0    0 -0.13205387459E+03  0.27616803403E+03  0.49612759038E+03  0.58848993853E+03  0.80441363712E+02 0.  0.
        254    2    1    2    0    0  0.13205387459E+03 -0.27616803403E+03 -0.36771060613E+02  0.94880827673E+03  0.89731712693E+03 0.  0.
         23    2    4    4    0    0 -0.68572429402E+02 -0.29000740347E+03  0.37220654069E+03  0.48391961546E+03  0.82668090302E+02 0.  0.
         23    2    4    4    0    0  0.20062630399E+03  0.13839369443E+02 -0.40897760131E+03  0.46488866127E+03  0.91740650777E+02 0.  0.
          4    1    3    3  502    0 -0.87408976179E+02  0.21463242715E+03  0.30697615781E+03  0.38463199212E+03  0.00000000000E+00 0. -1.
         -3    1    3    3    0  502 -0.44644898408E+02  0.61535606879E+02  0.18915143257E+03  0.20385794640E+03  0.00000000000E+00 0.  1.
         13    1    5    5    0    0 -0.76540178116E+02 -0.28706662577E+03  0.37106963305E+03  0.47535073269E+03  0.00000000000E+00 0.  1.
        -13    1    5    5    0    0  0.79677487135E+01 -0.29407777026E+01  0.11369076459E+01  0.85688827774E+01  0.00000000000E+00 0. -1.
          4    1    6    6  503    0  0.37414973562E+02 -0.11204253086E+02 -0.23617069491E+02  0.45641883235E+02  0.00000000000E+00 0. -1.
         -4    1    6    6    0  503  0.16321133043E+03  0.25043622528E+02 -0.38536053182E+03  0.41924677803E+03  0.00000000000E+00 0.  1.
<mgrwt>
<rscale>  0 0.14670642E+04</rscale>
<asrwt>0</asrwt>
<pdfrwt beam="1">  1        2 0.15358883E+00 0.14670642E+04</pdfrwt>
<pdfrwt beam="2">  1       -1 0.82918591E-01 0.14670642E+04</pdfrwt>
<totfact> 0.40317726E+01</totfact>
</mgrwt>
</event>
<event>
12    7  0.1572140E-007  0.1491779E+04  0.7818608E-02  0.8889938E-01
          2   -1    0    0  501    0  0.00000000000E+00  0.00000000000E+00  0.23252629011E+04  0.23252629011E+04  0.00000000000E+00 0. -1.
         -1   -1    0    0    0  501 -0.00000000000E+00 -0.00000000000E+00 -0.23926377815E+03  0.23926377815E+03  0.00000000000E+00 0.  1.
         24    2    1    2    0    0  0.21837992938E+03  0.40755991415E+03  0.80974751683E+03  0.93587842846E+03  0.79890641955E+02 0.  0.
        254    2    1    2    0    0 -0.21837992938E+03 -0.40755991415E+03  0.12762516061E+04  0.16286482508E+04  0.89993448954E+03 0.  0.
         23    2    4    4    0    0  0.29990047043E+03 -0.28317022356E+03  0.81434135990E+03  0.91743390929E+03  0.91692201405E+02 0.  0.
         23    2    4    4    0    0 -0.51828039980E+03 -0.12438969059E+03  0.46191024619E+03  0.71121434147E+03  0.91528116061E+02 0.  0.
          2    1    3    3  502    0  0.18360473073E+03  0.36101168298E+03  0.75098550232E+03  0.85324050366E+03  0.00000000000E+00 0. -1.
         -1    1    3    3    0  502  0.34775198644E+02  0.46548231168E+02  0.58762014503E+02  0.82637924792E+02  0.00000000000E+00 0.  1.
         13    1    5    5    0    0  0.12714197967E+02 -0.17812700335E+02  0.12175929303E+02  0.25043889026E+02  0.00000000000E+00 0. -1.
        -13    1    5    5    0    0  0.28718627246E+03 -0.26535752322E+03  0.80216543059E+03  0.89239002026E+03  0.00000000000E+00 0.  1.
          1    1    6    6  503    0 -0.12455724771E+03  0.56009395188E+01  0.85204307897E+02  0.15101540506E+03  0.00000000000E+00 0. -1.
         -1    1    6    6    0  503 -0.39372315209E+03 -0.12999063011E+03  0.37670593830E+03  0.56019893641E+03  0.00000000000E+00 0.  1.
<mgrwt>
<rscale>  0 0.14917791E+04</rscale>
<asrwt>0</asrwt>
<pdfrwt beam="1">  1        2 0.35773274E+00 0.14917791E+04</pdfrwt>
<pdfrwt beam="2">  1       -1 0.36809814E-01 0.14917791E+04</pdfrwt>
<totfact> 0.34281971E+01</totfact>
</mgrwt>
</event>
<event>
12    7  0.1572140E-007  0.1512576E+04  0.7818608E-02  0.8876133E-01
         -1   -1    0    0    0  501 -0.00000000000E+00  0.00000000000E+00  0.26375805441E+03  0.26375805441E+03  0.00000000000E+00 0.  1.
          2   -1    0    0  501    0  0.00000000000E+00 -0.00000000000E+00 -0.21685457009E+04  0.21685457009E+04  0.00000000000E+00 0. -1.
         24    2    1    2    0    0 -0.10459508370E+03 -0.35970216808E+03 -0.12733980644E+03  0.40340751312E+03  0.78717304841E+02 0.  0.
        254    2    1    2    0    0  0.10459508370E+03  0.35970216808E+03 -0.17774478400E+04  0.20288962421E+04  0.90375514172E+03 0.  0.
         23    2    4    4    0    0  0.27975399166E+03 -0.11166671563E+03 -0.20606134899E+03  0.37643781449E+03  0.92262654418E+02 0.  0.
         23    2    4    4    0    0 -0.17515890796E+03  0.47136888371E+03 -0.15713864910E+04  0.16524584277E+04  0.92163351773E+02 0.  0.
          4    1    3    3  502    0  0.10573669417E+02 -0.98117024306E+01 -0.48448828298E+01  0.15216598804E+02  0.00000000000E+00 0. -1.
         -3    1    3    3    0  502 -0.11516875312E+03 -0.34989046565E+03 -0.12249492361E+03  0.38819091432E+03  0.00000000000E+00 0.  1.
         13    1    5    5    0    0  0.19598749289E+03 -0.34623502665E+02 -0.10933213537E+03  0.22707575857E+03  0.00000000000E+00 0. -1.
        -13    1    5    5    0    0  0.83766498774E+02 -0.77043212967E+02 -0.96729213629E+02  0.14936205593E+03  0.00000000000E+00 0.  1.
          4    1    6    6  503    0 -0.11284265904E+03  0.17898861753E+03 -0.60904954153E+03  0.64475711314E+03  0.00000000000E+00 0. -1.
         -4    1    6    6    0  503 -0.62316248920E+02  0.29238026619E+03 -0.96233694949E+03  0.10077013145E+04  0.00000000000E+00 0.  1.
<mgrwt>
<rscale>  0 0.15125758E+04</rscale>
<asrwt>0</asrwt>
<pdfrwt beam="1">  1        2 0.33362241E+00 0.15125758E+04</pdfrwt>
<pdfrwt beam="2">  1       -1 0.40578163E-01 0.15125758E+04</pdfrwt>
<totfact> 0.35112921E+01</totfact>
</mgrwt>
</event>
<event>
12    7  0.1572140E-007  0.1385752E+04  0.7818608E-02  0.8964197E-01
          2   -1    0    0  501    0  0.00000000000E+00  0.00000000000E+00  0.10923656508E+04  0.10923656508E+04  0.00000000000E+00 0. -1.
         -1   -1    0    0    0  501 -0.00000000000E+00 -0.00000000000E+00 -0.43948394539E+03  0.43948394539E+03  0.00000000000E+00 0.  1.
         24    2    1    2    0    0  0.17567273705E+03  0.84870673563E+02  0.55884389512E+03  0.59712022439E+03  0.78626468133E+02 0.  0.
        254    2    1    2    0    0 -0.17567273705E+03 -0.84870673563E+02  0.94037810294E+02  0.93472937179E+03  0.90929200313E+03 0.  0.
         23    2    4    4    0    0 -0.49582104409E+03  0.14056016126E+03  0.10079605320E+03  0.53325583425E+03  0.92770004411E+02 0.  0.
         23    2    4    4    0    0  0.32014830704E+03 -0.22543083482E+03 -0.67582429046E+01  0.40147353755E+03  0.88438270654E+02 0.  0.
          4    1    3    3  502    0  0.17063371048E+03  0.69265836961E+02  0.43757760534E+03  0.47475022909E+03  0.00000000000E+00 0. -1.
         -3    1    3    3    0  502  0.50390265706E+01  0.15604836602E+02  0.12126628978E+03  0.12236999530E+03  0.00000000000E+00 0.  1.
         13    1    5    5    0    0 -0.52349829511E+02 -0.12651845877E+02  0.18204890138E+02  0.56850610188E+02  0.00000000000E+00 0.  1.
        -13    1    5    5    0    0 -0.44347121458E+03  0.15321200713E+03  0.82591163060E+02  0.47640522406E+03  0.00000000000E+00 0. -1.
          1    1    6    6  503    0  0.27389766038E+03 -0.22243728489E+03  0.76880260958E+01  0.35292687602E+03  0.00000000000E+00 0. -1.
         -1    1    6    6    0  503  0.46250646657E+02 -0.29935499286E+01 -0.14446269000E+02  0.48546661527E+02  0.00000000000E+00 0.  1.
<mgrwt>
<rscale>  0 0.13857520E+04</rscale>
<asrwt>0</asrwt>
<pdfrwt beam="1">  1        2 0.16805625E+00 0.13857520E+04</pdfrwt>
<pdfrwt beam="2">  1       -1 0.67612915E-01 0.13857520E+04</pdfrwt>
<totfact> 0.54221332E+01</totfact>
</mgrwt>
</event>
<event>
12    7  0.1572140E-007  0.2082642E+04  0.7818608E-02  0.8568928E-01
          2   -1    0    0  501    0  0.00000000000E+00  0.00000000000E+00  0.25277846289E+04  0.25277846289E+04  0.00000000000E+00 0. -1.
         -1   -1    0    0    0  501 -0.00000000000E+00 -0.00000000000E+00 -0.42897240886E+03  0.42897240886E+03  0.00000000000E+00 0.  1.
         24    2    1    2    0    0  0.76613748387E+03  0.18259352436E+03  0.11840130383E+04  0.14242822492E+04  0.79912522025E+02 0.  0.
        254    2    1    2    0    0 -0.76613748387E+03 -0.18259352436E+03  0.91479918171E+03  0.15324747886E+04  0.94409448434E+03 0.  0.
         23    2    4    4    0    0  0.13950788940E+03  0.17191148080E+03  0.27428686232E+03  0.36384112567E+03  0.90172465079E+02 0.  0.
         23    2    4    4    0    0 -0.90564537327E+03 -0.35450500516E+03  0.64051231939E+03  0.11686336629E+04  0.97883941063E+02 0.  0.
          4    1    3    3  502    0  0.51948511181E+03  0.89600207580E+02  0.75716144236E+03  0.92259765249E+03  0.00000000000E+00 0. -1.
         -1    1    3    3    0  502  0.24665237206E+03  0.92993316784E+02  0.42685159599E+03  0.50168459674E+03  0.00000000000E+00 0.  1.
         13    1    5    5    0    0  0.67099712896E+02  0.77977985536E+02  0.19710708507E+03  0.22233789754E+03  0.00000000000E+00 0.  1.
        -13    1    5    5    0    0  0.72408176502E+02  0.93933495259E+02  0.77179777251E+02  0.14150322813E+03  0.00000000000E+00 0. -1.
          2    1    6    6  503    0 -0.80787174193E+03 -0.28352342857E+03  0.54914522431E+03  0.10171542476E+04  0.00000000000E+00 0. -1.
         -2    1    6    6    0  503 -0.97773631335E+02 -0.70981576589E+02  0.91367095089E+02  0.15147941532E+03  0.00000000000E+00 0.  1.
<mgrwt>
<rscale>  0 0.20826424E+04</rscale>
<asrwt>0</asrwt>
<pdfrwt beam="1">  1        2 0.38888993E+00 0.20826424E+04</pdfrwt>
<pdfrwt beam="2">  1       -1 0.65995757E-01 0.20826424E+04</pdfrwt>
<totfact> 0.82013134E+00</totfact>
</mgrwt>
</event>
<event>
12    7  0.1572140E-007  0.1298194E+04  0.7818608E-02  0.9030998E-01
         -1   -1    0    0    0  501 -0.00000000000E+00  0.00000000000E+00  0.36826781793E+03  0.36826781793E+03  0.00000000000E+00 0.  1.
          2   -1    0    0  501    0  0.00000000000E+00 -0.00000000000E+00 -0.11440780036E+04  0.11440780036E+04  0.00000000000E+00 0. -1.
         24    2    1    2    0    0 -0.33748261449E+02 -0.23699628323E+03  0.12448576412E+02  0.25784243674E+03  0.94981954669E+02 0.  0.
        254    2    1    2    0    0  0.33748261449E+02  0.23699628323E+03 -0.78825876206E+03  0.12545033848E+04  0.94610817721E+03 0.  0.
         23    2    4    4    0    0 -0.45502348306E+02  0.57640771041E+03 -0.63439612785E+03  0.86295444789E+03  0.88969768956E+02 0.  0.
         23    2    4    4    0    0  0.79250609755E+02 -0.33941142717E+03 -0.15386263421E+03  0.39154893686E+03  0.90311038703E+02 0.  0.
          2    1    3    3  502    0 -0.16802957103E+02 -0.11740974281E+03 -0.41369229887E+02  0.12561369454E+03  0.00000000000E+00 0. -1.
         -1    1    3    3    0  502 -0.16945304346E+02 -0.11958654042E+03  0.53817806299E+02  0.13222874220E+03  0.00000000000E+00 0.  1.
         13    1    5    5    0    0 -0.51095859574E+02  0.37688940624E+03 -0.36042780401E+03  0.52398913472E+03  0.00000000000E+00 0.  1.
        -13    1    5    5    0    0  0.55935112678E+01  0.19951830416E+03 -0.27396832384E+03  0.33896531317E+03  0.00000000000E+00 0. -1.
          3    1    6    6  503    0 -0.11406031619E+02 -0.95626364456E+02 -0.17523094298E+02  0.97885432880E+02  0.00000000000E+00 0. -1.
         -3    1    6    6    0  503  0.90656641374E+02 -0.24378506272E+03 -0.13633953991E+03  0.29366350398E+03  0.00000000000E+00 0.  1.
<mgrwt>
<rscale>  0 0.12981943E+04</rscale>
<asrwt>0</asrwt>
<pdfrwt beam="1">  1        2 0.17601200E+00 0.12981943E+04</pdfrwt>
<pdfrwt beam="2">  1       -1 0.56656588E-01 0.12981943E+04</pdfrwt>
<totfact> 0.72151171E+01</totfact>
</mgrwt>
</event>
<event>
12    7  0.1572140E-007  0.1345980E+04  0.7818608E-02  0.8993877E-01
          2   -1    0    0  501    0  0.00000000000E+00  0.00000000000E+00  0.30377886043E+04  0.30377886043E+04  0.00000000000E+00 0. -1.
         -1   -1    0    0    0  501 -0.00000000000E+00 -0.00000000000E+00 -0.14909374078E+03  0.14909374078E+03  0.00000000000E+00 0.  1.
         24    2    1    2    0    0  0.34417027132E+03  0.93829477879E+02  0.55302800944E+03  0.66237235088E+03  0.75099969395E+02 0.  0.
        254    2    1    2    0    0 -0.34417027132E+03 -0.93829477879E+02  0.23356668541E+04  0.25245099942E+04  0.88913098639E+03 0.  0.
         23    2    4    4    0    0 -0.12264154230E+03 -0.10244416371E+03  0.74989228132E+01  0.18401364621E+03  0.90934226626E+02 0.  0.
         23    2    4    4    0    0 -0.22152872902E+03  0.86146858299E+01  0.23281679312E+04  0.23404963480E+04  0.91695409783E+02 0.  0.
          4    1    3    3  502    0  0.17278612528E+02  0.25163923694E+02  0.46231106452E+02  0.55399356588E+02  0.00000000000E+00 0. -1.
         -1    1    3    3    0  502  0.32689165879E+03  0.68665554185E+02  0.50679690299E+03  0.60697299429E+03  0.00000000000E+00 0.  1.
         13    1    5    5    0    0 -0.11838265002E+02 -0.66237550355E+02  0.21002131752E+01  0.67319896692E+02  0.00000000000E+00 0.  1.
        -13    1    5    5    0    0 -0.11080327730E+03 -0.36206613354E+02  0.53987096379E+01  0.11669374952E+03  0.00000000000E+00 0. -1.
          1    1    6    6  503    0 -0.87042645010E+02 -0.37424553912E+02  0.11182930023E+04  0.11222995403E+04  0.00000000000E+00 0. -1.
         -1    1    6    6    0  503 -0.13448608401E+03  0.46039239742E+02  0.12098749290E+04  0.12181968077E+04  0.00000000000E+00 0.  1.
<mgrwt>
<rscale>  0 0.13459796E+04</rscale>
<asrwt>0</asrwt>
<pdfrwt beam="1">  1        2 0.46735205E+00 0.13459796E+04</pdfrwt>
<pdfrwt beam="2">  1       -1 0.22937501E-01 0.13459796E+04</pdfrwt>
<totfact> 0.30091442E+01</totfact>
</mgrwt>
</event>
<event>
12    7  0.1572140E-007  0.1157415E+04  0.7818608E-02  0.9150970E-01
          2   -1    0    0  501    0  0.00000000000E+00  0.00000000000E+00  0.96105080162E+03  0.96105080162E+03  0.00000000000E+00 0. -1.
         -1   -1    0    0    0  501 -0.00000000000E+00 -0.00000000000E+00 -0.34847493352E+03  0.34847493352E+03  0.00000000000E+00 0.  1.
         24    2    1    2    0    0 -0.14317876754E+03  0.18416583836E+03  0.28320001280E+02  0.24809331785E+03  0.79567935734E+02 0.  0.
        254    2    1    2    0    0  0.14317876754E+03 -0.18416583836E+03  0.58425586682E+03  0.10614324173E+04  0.85490738859E+03 0.  0.
         23    2    4    4    0    0 -0.20783326267E+03  0.66748898807E+02 -0.92645100661E+02  0.25398804938E+03  0.90976557373E+02 0.  0.
         23    2    4    4    0    0  0.35101203020E+03 -0.25091473717E+03  0.67690096748E+03  0.80744436790E+03  0.87199981718E+02 0.  0.
          4    1    3    3  502    0 -0.38271843273E+02  0.86594227570E+02  0.43180215291E+02  0.10405683653E+03  0.00000000000E+00 0. -1.
         -3    1    3    3    0  502 -0.10490692426E+03  0.97571610792E+02 -0.14860214011E+02  0.14403648132E+03  0.00000000000E+00 0.  1.
         13    1    5    5    0    0 -0.43134796991E+02  0.30465307125E+02 -0.63917905798E+02  0.82911062780E+02  0.00000000000E+00 0. -1.
        -13    1    5    5    0    0 -0.16469846567E+03  0.36283591681E+02 -0.28727194862E+02  0.17107698660E+03  0.00000000000E+00 0.  1.
          3    1    6    6  503    0  0.47375665972E+02 -0.71053840838E+02  0.16329919292E+03  0.18428165517E+03  0.00000000000E+00 0. -1.
         -3    1    6    6    0  503  0.30363636423E+03 -0.17986089633E+03  0.51360177456E+03  0.62316271273E+03  0.00000000000E+00 0.  1.
<mgrwt>
<rscale>  0 0.11574146E+04</rscale>
<asrwt>0</asrwt>
<pdfrwt beam="1">  1        2 0.14785397E+00 0.11574146E+04</pdfrwt>
<pdfrwt beam="2">  1       -1 0.53611529E-01 0.11574146E+04</pdfrwt>
<totfact> 0.10578350E+02</totfact>
</mgrwt>
</event>
<event>
12    7  0.1572140E-007  0.1628747E+04  0.7818608E-02  0.8803080E-01
         -1   -1    0    0    0  501 -0.00000000000E+00  0.00000000000E+00  0.72342401500E+03  0.72342401500E+03  0.00000000000E+00 0.  1.
          2   -1    0    0  501    0  0.00000000000E+00 -0.00000000000E+00 -0.91675742393E+03  0.91675742393E+03  0.00000000000E+00 0. -1.
         24    2    1    2    0    0  0.12989379711E+03  0.48525865271E+03  0.18448914206E+03  0.54087532755E+03  0.78495336526E+02 0.  0.
        254    2    1    2    0    0 -0.12989379711E+03 -0.48525865271E+03 -0.37782255099E+03  0.10993061114E+04  0.90187343233E+03 0.  0.
         23    2    4    4    0    0 -0.39057842851E+03  0.71864999409E+02 -0.11793284860E+03  0.42526879881E+03  0.96069284892E+02 0.  0.
         23    2    4    4    0    0  0.26068463141E+03 -0.55712365212E+03 -0.25988970239E+03  0.67403731258E+03  0.91871652513E+02 0.  0.
          4    1    3    3  502    0  0.79647261461E+02  0.28395414657E+03  0.14887771389E+03  0.33036073814E+03  0.00000000000E+00 0. -1.
         -3    1    3    3    0  502  0.50246535645E+02  0.20130450614E+03  0.35611428170E+02  0.21051458941E+03  0.00000000000E+00 0.  1.
         13    1    5    5    0    0 -0.93471206977E+02  0.58170558218E+02 -0.45688074269E+02  0.11919765311E+03  0.00000000000E+00 0.  1.
        -13    1    5    5    0    0 -0.29710722154E+03  0.13694441191E+02 -0.72244774331E+02  0.30607114570E+03  0.00000000000E+00 0. -1.
          3    1    6    6  503    0  0.23971849628E+03 -0.42818019590E+03 -0.21682638010E+03  0.53648570972E+03  0.00000000000E+00 0. -1.
         -3    1    6    6    0  503  0.20966135127E+02 -0.12894345621E+03 -0.43063322296E+02  0.13755160286E+03  0.00000000000E+00 0.  1.
<mgrwt>
<rscale>  0 0.16287472E+04</rscale>
<asrwt>0</asrwt>
<pdfrwt beam="1">  1        2 0.14103960E+00 0.16287472E+04</pdfrwt>
<pdfrwt beam="2">  1       -1 0.11129600E+00 0.16287472E+04</pdfrwt>
<totfact> 0.23160262E+01</totfact>
</mgrwt>
</event>
<event>
12    7  0.1572140E-007  0.2216431E+04  0.7818608E-02  0.8511620E-01
          2   -1    0    0  501    0  0.00000000000E+00  0.00000000000E+00  0.18124014969E+04  0.18124014969E+04  0.00000000000E+00 0. -1.
         -1   -1    0    0    0  501 -0.00000000000E+00 -0.00000000000E+00 -0.67763207854E+03  0.67763207854E+03  0.00000000000E+00 0.  1.
         24    2    1    2    0    0  0.99431971363E+02 -0.81714449664E+03  0.90536044522E+03  0.12263094039E+04  0.80903479642E+02 0.  0.
        254    2    1    2    0    0 -0.99431971363E+02  0.81714449664E+03  0.22940897319E+03  0.12637241716E+04  0.93099863563E+03 0.  0.
         23    2    4    4    0    0  0.31385453685E+02  0.18903192764E+01 -0.27395188419E+03  0.29235494272E+03  0.97124444265E+02 0.  0.
         23    2    4    4    0    0 -0.13081742505E+03  0.81525417737E+03  0.50336085738E+03  0.97136922887E+03  0.91833837110E+02 0.  0.
          2    1    3    3  502    0  0.69116158478E+02 -0.25706672359E+03  0.28547583532E+03  0.39032908717E+03  0.00000000000E+00 0. -1.
         -1    1    3    3    0  502  0.30315812885E+02 -0.56007777305E+03  0.61988460990E+03  0.83598031673E+03  0.00000000000E+00 0.  1.
         13    1    5    5    0    0 -0.22373569858E+02 -0.12240003179E+02 -0.18977882444E+03  0.19148471614E+03  0.00000000000E+00 0.  1.
        -13    1    5    5    0    0  0.53759023543E+02  0.14130322455E+02 -0.84173059741E+02  0.10087022658E+03  0.00000000000E+00 0. -1.
          1    1    6    6  503    0 -0.13512732295E+03  0.59292509180E+03  0.37958417125E+03  0.71687077006E+03  0.00000000000E+00 0. -1.
         -1    1    6    6    0  503  0.43098979074E+01  0.22232908556E+03  0.12377668613E+03  0.25449845881E+03  0.00000000000E+00 0.  1.
<mgrwt>
<rscale>  0 0.22164308E+04</rscale>
<asrwt>0</asrwt>
<pdfrwt beam="1">  1        2 0.27883100E+00 0.22164308E+04</pdfrwt>
<pdfrwt beam="2">  1       -1 0.10425109E+00 0.22164308E+04</pdfrwt>
<totfact> 0.76405252E+00</totfact>
</mgrwt>
</event>
<event>
12    7  0.1572140E-007  0.1373593E+04  0.7818608E-02  0.8973158E-01
          2   -1    0    0  501    0  0.00000000000E+00  0.00000000000E+00  0.13157003696E+04  0.13157003696E+04  0.00000000000E+00 0. -1.
         -1   -1    0    0    0  501 -0.00000000000E+00 -0.00000000000E+00 -0.35850811142E+03  0.35850811142E+03  0.00000000000E+00 0.  1.
         24    2    1    2    0    0 -0.67823834730E+02  0.18661992359E+03  0.67342962866E+03  0.70652957725E+03  0.79053844490E+02 0.  0.
        254    2    1    2    0    0  0.67823834730E+02 -0.18661992359E+03  0.28376262953E+03  0.96767890378E+03  0.90357853144E+03 0.  0.
         23    2    4    4    0    0  0.56560553511E+02 -0.19963541987E+03  0.59885310701E+03  0.64007481977E+03  0.89539566912E+02 0.  0.
         23    2    4    4    0    0  0.11263281219E+02  0.13015496280E+02 -0.31509047749E+03  0.32760408401E+03  0.88012284431E+02 0.  0.
          2    1    3    3  502    0 -0.32981250669E+02  0.17212693618E+03  0.53037323139E+03  0.55857963589E+03  0.00000000000E+00 0. -1.
         -1    1    3    3    0  502 -0.34842584061E+02  0.14492987413E+02  0.14305639727E+03  0.14794994136E+03  0.00000000000E+00 0.  1.
         13    1    5    5    0    0  0.22362737285E+02 -0.42561908698E+01  0.30179190043E+02  0.37801993218E+02  0.00000000000E+00 0.  1.
        -13    1    5    5    0    0  0.34197816226E+02 -0.19537922900E+03  0.56867391697E+03  0.60227282655E+03  0.00000000000E+00 0. -1.
          2    1    6    6  503    0  0.24281154900E+02 -0.28095311200E+02 -0.22105788575E+03  0.22415510222E+03  0.00000000000E+00 0. -1.
         -2    1    6    6    0  503 -0.13017873680E+02  0.41110807481E+02 -0.94032591734E+02  0.10344898180E+03  0.00000000000E+00 0.  1.
<mgrwt>
<rscale>  0 0.13735927E+04</rscale>
<asrwt>0</asrwt>
<pdfrwt beam="1">  1        2 0.20241544E+00 0.13735927E+04</pdfrwt>
<pdfrwt beam="2">  1       -1 0.55155095E-01 0.13735927E+04</pdfrwt>
<totfact> 0.59778065E+01</totfact>
</mgrwt>
</event>
<event>
12    7  0.1572140E-007  0.1712203E+04  0.7818608E-02  0.8754435E-01
          2   -1    0    0  501    0  0.00000000000E+00  0.00000000000E+00  0.13552953733E+04  0.13552953733E+04  0.00000000000E+00 0. -1.
         -3   -1    0    0    0  501 -0.00000000000E+00 -0.00000000000E+00 -0.54077507706E+03  0.54077507706E+03  0.00000000000E+00 0.  1.
         24    2    1    2    0    0  0.11460178857E+03  0.30553515719E+03  0.88853892068E+03  0.94992370218E+03  0.79801780557E+02 0.  0.
        254    2    1    2    0    0 -0.11460178857E+03 -0.30553515719E+03 -0.74018624432E+02  0.94614674820E+03  0.88500260459E+03 0.  0.
         23    2    4    4    0    0 -0.45727439292E+02 -0.58142763851E+03 -0.19850505749E+03  0.62293779852E+03  0.92185386293E+02 0.  0.
         23    2    4    4    0    0 -0.68874349279E+02  0.27589248132E+03  0.12448643305E+03  0.32320894968E+03  0.90037858131E+02 0.  0.
          4    1    3    3  502    0  0.12056519290E+03  0.28629968196E+03  0.86417148213E+03  0.91831139825E+03  0.00000000000E+00 0. -1.
         -3    1    3    3    0  502 -0.59634043298E+01  0.19235475225E+02  0.24367438558E+02  0.31612303937E+02  0.00000000000E+00 0.  1.
         13    1    5    5    0    0 -0.22415727765E+02 -0.53403318901E+03 -0.16122764602E+03  0.55829048501E+03  0.00000000000E+00 0.  1.
        -13    1    5    5    0    0 -0.23311711527E+02 -0.47394449502E+02 -0.37277411464E+02  0.64647313505E+02  0.00000000000E+00 0. -1.
          4    1    6    6  503    0 -0.68403209330E+02  0.15485698981E+03  0.10860854202E+03  0.20113553077E+03  0.00000000000E+00 0. -1.
         -4    1    6    6    0  503 -0.47113994910E+00  0.12103549152E+03  0.15877891034E+02  0.12207341891E+03  0.00000000000E+00 0.  1.
<mgrwt>
<rscale>  0 0.17122032E+04</rscale>
<asrwt>0</asrwt>
<pdfrwt beam="1">  1        2 0.20850698E+00 0.17122032E+04</pdfrwt>
<pdfrwt beam="2">  1       -3 0.83196166E-01 0.17122032E+04</pdfrwt>
<totfact> 0.12379439E+01</totfact>
</mgrwt>
</event>
<event>
12    7  0.1572140E-007  0.1751738E+04  0.7818608E-02  0.8732394E-01
          2   -1    0    0  501    0  0.00000000000E+00  0.00000000000E+00  0.79725369611E+03  0.79725369611E+03  0.00000000000E+00 0. -1.
         -1   -1    0    0    0  501 -0.00000000000E+00 -0.00000000000E+00 -0.96223627958E+03  0.96223627958E+03  0.00000000000E+00 0.  1.
         24    2    1    2    0    0  0.20032443775E+03  0.34687260363E+03  0.44231007384E+03  0.60095114379E+03  0.71088622790E+02 0.  0.
        254    2    1    2    0    0 -0.20032443775E+03 -0.34687260363E+03 -0.60729265731E+03  0.11585388319E+04  0.90164148635E+03 0.  0.
         23    2    4    4    0    0 -0.74637487087E+02 -0.60914343412E+03 -0.57961171530E+03  0.84895472744E+03  0.90265779366E+02 0.  0.
         23    2    4    4    0    0 -0.12568695066E+03  0.26227083050E+03 -0.27680942011E+02  0.30958410447E+03  0.10243478458E+03 0.  0.
          2    1    3    3  502    0  0.12519185489E+03  0.14769526251E+03  0.19860909763E+03  0.27736702176E+03  0.00000000000E+00 0. -1.
         -1    1    3    3    0  502  0.75132582860E+02  0.19917734112E+03  0.24370097621E+03  0.32358412202E+03  0.00000000000E+00 0.  1.
         13    1    5    5    0    0  0.19918322908E+02 -0.91343974219E+02 -0.99283848679E+02  0.13637354517E+03  0.00000000000E+00 0.  1.
        -13    1    5    5    0    0 -0.94555809994E+02 -0.51779945990E+03 -0.48032786662E+03  0.71258118227E+03  0.00000000000E+00 0. -1.
          4    1    6    6  503    0 -0.13166417557E+03  0.25996038500E+03 -0.10882286020E+02  0.29160466568E+03  0.00000000000E+00 0. -1.
         -4    1    6    6    0  503  0.59772249059E+01  0.23104454963E+01 -0.16798655991E+02  0.17979438787E+02  0.00000000000E+00 0.  1.
<mgrwt>
<rscale>  0 0.17517379E+04</rscale>
<asrwt>0</asrwt>
<pdfrwt beam="1">  1        2 0.12265441E+00 0.17517379E+04</pdfrwt>
<pdfrwt beam="2">  1       -1 0.14803635E+00 0.17517379E+04</pdfrwt>
<totfact> 0.13534254E+01</totfact>
</mgrwt>
</event>
<event>
12    7  0.1572140E-007  0.1868303E+04  0.7818608E-02  0.8670797E-01
          2   -1    0    0  501    0  0.00000000000E+00  0.00000000000E+00  0.84365080522E+03  0.84365080522E+03  0.00000000000E+00 0. -1.
         -1   -1    0    0    0  501 -0.00000000000E+00 -0.00000000000E+00 -0.10343603677E+04  0.10343603677E+04  0.00000000000E+00 0.  1.
         24    2    1    2    0    0  0.10440626270E+03  0.61128103667E+03  0.28319719026E+03  0.68685560042E+03  0.83694646019E+02 0.  0.
        254    2    1    2    0    0 -0.10440626270E+03 -0.61128103667E+03 -0.47390675271E+03  0.11911555725E+04  0.89983265893E+03 0.  0.
         23    2    4    4    0    0 -0.31534470659E+03 -0.70977121571E+03 -0.51873647507E+03  0.93758320279E+03  0.82202609219E+02 0.  0.
         23    2    4    4    0    0  0.21093844389E+03  0.98490179039E+02  0.44829722363E+02  0.25357236968E+03  0.89966105727E+02 0.  0.
          4    1    3    3  502    0  0.84108496649E+02  0.50627027367E+03  0.19786420152E+03  0.55003097318E+03  0.00000000000E+00 0. -1.
         -3    1    3    3    0  502  0.20297766054E+02  0.10501076299E+03  0.85332988740E+02  0.13682462724E+03  0.00000000000E+00 0.  1.
         13    1    5    5    0    0 -0.37787590114E+02 -0.12872959059E+03 -0.60044220591E+02  0.14698475393E+03  0.00000000000E+00 0.  1.
        -13    1    5    5    0    0 -0.27755711647E+03 -0.58104162511E+03 -0.45869225448E+03  0.79059844886E+03  0.00000000000E+00 0. -1.
          1    1    6    6  503    0  0.19564476277E+03  0.10960730724E+03  0.56616280008E+02  0.23129210571E+03  0.00000000000E+00 0. -1.
         -1    1    6    6    0  503  0.15293681113E+02 -0.11117128199E+02 -0.11786557645E+02  0.22280263969E+02  0.00000000000E+00 0.  1.
<mgrwt>
<rscale>  0 0.18683029E+04</rscale>
<asrwt>0</asrwt>
<pdfrwt beam="1">  1        2 0.12979243E+00 0.18683029E+04</pdfrwt>
<pdfrwt beam="2">  1       -1 0.15913236E+00 0.18683029E+04</pdfrwt>
<totfact> 0.10195404E+01</totfact>
</mgrwt>
</event>
<event>
12    7  0.1572140E-007  0.2062674E+04  0.7818608E-02  0.8577867E-01
         -3   -1    0    0    0  501 -0.00000000000E+00  0.00000000000E+00  0.17139111531E+04  0.17139111531E+04  0.00000000000E+00 0.  1.
          4   -1    0    0  501    0  0.00000000000E+00 -0.00000000000E+00 -0.62060135117E+03  0.62060135117E+03  0.00000000000E+00 0. -1.
         24    2    1    2    0    0 -0.75174457966E+02 -0.66413519781E+03 -0.11836787325E+03  0.68321869450E+03  0.77782202266E+02 0.  0.
        254    2    1    2    0    0  0.75174457966E+02  0.66413519781E+03  0.12116776751E+04  0.16512938097E+04  0.90104478109E+03 0.  0.
         23    2    4    4    0    0  0.46382007552E+03  0.24957476699E+03  0.47216436476E+03  0.71305297587E+03  0.89937379686E+02 0.  0.
         23    2    4    4    0    0 -0.38864561756E+03  0.41456043082E+03  0.73951331038E+03  0.93824083387E+03  0.10251906777E+03 0.  0.
          2    1    3    3  502    0 -0.30670307642E+01 -0.86786245766E+02  0.99319207464E+01  0.87406533976E+02  0.00000000000E+00 0. -1.
         -1    1    3    3    0  502 -0.72107427202E+02 -0.57734895205E+03 -0.12829979399E+03  0.59581216052E+03  0.00000000000E+00 0.  1.
         13    1    5    5    0    0  0.17137099876E+03  0.11269316938E+03  0.13130501003E+03  0.24353393048E+03  0.00000000000E+00 0.  1.
        -13    1    5    5    0    0  0.29244907677E+03  0.13688159762E+03  0.34085935473E+03  0.46951904538E+03  0.00000000000E+00 0. -1.
          3    1    6    6  503    0 -0.96926143945E+02  0.79451424036E+02  0.10421142978E+03  0.16299456512E+03  0.00000000000E+00 0. -1.
         -3    1    6    6    0  503 -0.29171947361E+03  0.33510900679E+03  0.63530188060E+03  0.77524626875E+03  0.00000000000E+00 0.  1.
<mgrwt>
<rscale>  0 0.20626736E+04</rscale>
<asrwt>0</asrwt>
<pdfrwt beam="1">  1        4 0.95477132E-01 0.20626736E+04</pdfrwt>
<pdfrwt beam="2">  1       -3 0.26367864E+00 0.20626736E+04</pdfrwt>
<totfact> 0.11892170E-01</totfact>
</mgrwt>
</event>
<event>
12    7  0.1679027E-007  0.2100209E+04  0.7818608E-02  0.8561151E-01
         -1   -1    0    0    0  501 -0.00000000000E+00  0.00000000000E+00  0.41306391107E+03  0.41306391107E+03  0.00000000000E+00 0.  1.
          2   -1    0    0  501    0  0.00000000000E+00 -0.00000000000E+00 -0.26696100277E+04  0.26696100277E+04  0.00000000000E+00 0. -1.
         24    2    1    2    0    0 -0.63740031806E+03  0.11730773091E+03 -0.10230446608E+03  0.66098791020E+03  0.79990902333E+02 0.  0.
        254    2    1    2    0    0  0.63740031806E+03 -0.11730773091E+03 -0.21542416506E+04  0.24216860286E+04  0.89652990070E+03 0.  0.
         23    2    4    4    0    0  0.23826713690E+03  0.36789054867E+03 -0.65229543860E+03  0.79111856148E+03  0.90909596752E+02 0.  0.
         23    2    4    4    0    0  0.39913318115E+03 -0.48519827959E+03 -0.15019462120E+04  0.16305674671E+04  0.90460899390E+02 0.  0.
          2    1    3    3  502    0 -0.76432212370E+02 -0.66430633972E+01  0.36193640311E+01  0.76805684524E+02  0.00000000000E+00 0. -1.
         -1    1    3    3    0  502 -0.56096810569E+03  0.12395079431E+03 -0.10592383011E+03  0.58418222567E+03  0.00000000000E+00 0.  1.
         13    1    5    5    0    0  0.18044340706E+03  0.29683021985E+03 -0.44538010466E+03  0.56482868217E+03  0.00000000000E+00 0.  1.
        -13    1    5    5    0    0  0.57823729842E+02  0.71060328823E+02 -0.20691533393E+03  0.22628987932E+03  0.00000000000E+00 0. -1.
          2    1    6    6  503    0  0.73667738896E+02 -0.14179611649E+03 -0.32754762878E+03  0.36444550144E+03  0.00000000000E+00 0. -1.
         -2    1    6    6    0  503  0.32546544226E+03 -0.34340216310E+03 -0.11743985832E+04  0.12661219657E+04  0.00000000000E+00 0.  1.
<mgrwt>
<rscale>  0 0.21002091E+04</rscale>
<asrwt>0</asrwt>
<pdfrwt beam="1">  1        2 0.41070924E+00 0.21002091E+04</pdfrwt>
<pdfrwt beam="2">  1       -1 0.63548293E-01 0.21002091E+04</pdfrwt>
<totfact> 0.72967761E+00</totfact>
</mgrwt>
</event>
<event>
12    7  0.1572140E-007  0.1575164E+04  0.7818608E-02  0.8835953E-01
          2   -1    0    0  501    0  0.00000000000E+00  0.00000000000E+00  0.32010287042E+04  0.32010287042E+04  0.00000000000E+00 0. -1.
         -1   -1    0    0    0  501 -0.00000000000E+00 -0.00000000000E+00 -0.19377684782E+03  0.19377684782E+03  0.00000000000E+00 0.  1.
         24    2    1    2    0    0  0.12323016052E+03 -0.10477902117E+03  0.21096862415E+04  0.21173617692E+04  0.79249657173E+02 0.  0.
        254    2    1    2    0    0 -0.12323016052E+03  0.10477902117E+03  0.89756561485E+03  0.12774437828E+04  0.89446870800E+03 0.  0.
         23    2    4    4    0    0  0.72394560248E+02 -0.36156188819E+03  0.26679928116E+03  0.46405459088E+03  0.90536376939E+02 0.  0.
         23    2    4    4    0    0 -0.19562472076E+03  0.46634090935E+03  0.63076633369E+03  0.81338919194E+03  0.89403214370E+02 0.  0.
          4    1    3    3  502    0  0.22687848644E+02 -0.67966669259E+02  0.71981872971E+03  0.72337625773E+03  0.00000000000E+00 0. -1.
         -3    1    3    3    0  502  0.10054231187E+03 -0.36812351906E+02  0.13898675118E+04  0.13939855115E+04  0.00000000000E+00 0.  1.
         13    1    5    5    0    0  0.71240918134E+02 -0.26040672583E+03  0.14751021082E+03  0.30764621494E+03  0.00000000000E+00 0. -1.
        -13    1    5    5    0    0  0.11536421146E+01 -0.10115516236E+03  0.11928907033E+03  0.15640837594E+03  0.00000000000E+00 0.  1.
          4    1    6    6  503    0 -0.62541897686E+01  0.42403722617E+02  0.96295285731E+02  0.10540385494E+03  0.00000000000E+00 0. -1.
         -4    1    6    6    0  503 -0.18937053099E+03  0.42393718674E+03  0.53447104796E+03  0.70798533701E+03  0.00000000000E+00 0.  1.
<mgrwt>
<rscale>  0 0.15751638E+04</rscale>
<asrwt>0</asrwt>
<pdfrwt beam="1">  1        2 0.49246592E+00 0.15751638E+04</pdfrwt>
<pdfrwt beam="2">  1       -1 0.29811825E-01 0.15751638E+04</pdfrwt>
<totfact> 0.14738176E+01</totfact>
</mgrwt>
</event>
<event>
12    7  0.1572140E-007  0.1958713E+04  0.7818608E-02  0.8626171E-01
         -1   -1    0    0    0  501 -0.00000000000E+00  0.00000000000E+00  0.33549228133E+03  0.33549228133E+03  0.00000000000E+00 0.  1.
          2   -1    0    0  501    0  0.00000000000E+00 -0.00000000000E+00 -0.28589003062E+04  0.28589003062E+04  0.00000000000E+00 0. -1.
         24    2    1    2    0    0 -0.31555458663E+03  0.54897171514E+03 -0.17020823480E+04  0.18177443973E+04  0.78522182836E+02 0.  0.
        254    2    1    2    0    0  0.31555458663E+03 -0.54897171514E+03 -0.82132567686E+03  0.13766481903E+04  0.90533956677E+03 0.  0.
         23    2    4    4    0    0 -0.26816371292E+03  0.13873913741E+01 -0.31447037028E+03  0.42326123732E+03  0.91349654904E+02 0.  0.
         23    2    4    4    0    0  0.58371829954E+03 -0.55035910651E+03 -0.50685530658E+03  0.95338695296E+03  0.91772440964E+02 0.  0.
          2    1    3    3  502    0 -0.17099772689E+03  0.27093970369E+03 -0.75504093873E+03  0.82020446524E+03  0.00000000000E+00 0. -1.
         -1    1    3    3    0  502 -0.14455685973E+03  0.27803201145E+03 -0.94704140929E+03  0.99753993203E+03  0.00000000000E+00 0.  1.
         13    1    5    5    0    0  0.68347632543E+01  0.18566564208E+01 -0.28053970213E+01  0.76178352735E+01  0.00000000000E+00 0. -1.
        -13    1    5    5    0    0 -0.27499847617E+03 -0.46926504672E+00 -0.31166497326E+03  0.41564340205E+03  0.00000000000E+00 0.  1.
          2    1    6    6  503    0  0.15118582689E+03 -0.10209055838E+03 -0.86441922615E+02  0.20187085562E+03  0.00000000000E+00 0. -1.
         -2    1    6    6    0  503  0.43253247265E+03 -0.44826854813E+03 -0.42041338396E+03  0.75151609734E+03  0.00000000000E+00 0.  1.
<mgrwt>
<rscale>  0 0.19587128E+04</rscale>
<asrwt>0</asrwt>
<pdfrwt beam="1">  1        2 0.43983080E+00 0.19587128E+04</pdfrwt>
<pdfrwt beam="2">  1       -1 0.51614199E-01 0.19587128E+04</pdfrwt>
<totfact> 0.85504818E+00</totfact>
</mgrwt>
</event>
<event>
12    7  0.1572140E-007  0.2005469E+04  0.7818608E-02  0.8604068E-01
          2   -1    0    0  501    0  0.00000000000E+00  0.00000000000E+00  0.79177886740E+03  0.79177886740E+03  0.00000000000E+00 0. -1.
         -1   -1    0    0    0  501 -0.00000000000E+00 -0.00000000000E+00 -0.12698949618E+04  0.12698949618E+04  0.00000000000E+00 0.  1.
         24    2    1    2    0    0 -0.53995345665E+03 -0.17920682366E+02 -0.79936203995E+03  0.96860469818E+03  0.85700082988E+02 0.  0.
        254    2    1    2    0    0  0.53995345665E+03  0.17920682366E+02  0.32124594554E+03  0.10930691310E+04  0.89427640105E+03 0.  0.
         23    2    4    4    0    0  0.28587805634E+03  0.36000898696E+03  0.43818191787E+03  0.64203409416E+03  0.94189442709E+02 0.  0.
         23    2    4    4    0    0  0.25407540032E+03 -0.34208830460E+03 -0.11693597233E+03  0.45103503687E+03  0.90442609832E+02 0.  0.
          2    1    3    3  502    0 -0.25335561181E+03 -0.41506035036E+02 -0.42530136034E+03  0.49678271315E+03  0.00000000000E+00 0. -1.
         -1    1    3    3    0  502 -0.28659784484E+03  0.23585352669E+02 -0.37406067960E+03  0.47182198503E+03  0.00000000000E+00 0.  1.
         13    1    5    5    0    0  0.30924435997E+02  0.80263564228E+02  0.11954155780E+03  0.14727099010E+03  0.00000000000E+00 0. -1.
        -13    1    5    5    0    0  0.25495362034E+03  0.27974542274E+03  0.31864036007E+03  0.49476310406E+03  0.00000000000E+00 0.  1.
          4    1    6    6  503    0  0.11321452079E+03 -0.15991235350E+03 -0.10040447654E+03  0.22016027668E+03  0.00000000000E+00 0. -1.
         -4    1    6    6    0  503  0.14086087953E+03 -0.18217595110E+03 -0.16531495788E+02  0.23087476019E+03  0.00000000000E+00 0.  1.
<mgrwt>
<rscale>  0 0.20054685E+04</rscale>
<asrwt>0</asrwt>
<pdfrwt beam="1">  1        2 0.12181213E+00 0.20054685E+04</pdfrwt>
<pdfrwt beam="2">  1       -1 0.19536845E+00 0.20054685E+04</pdfrwt>
<totfact> 0.59975969E+00</totfact>
</mgrwt>
</event>
<event>
12    7  0.1572140E-007  0.1231884E+04  0.7818608E-02  0.9085397E-01
         -1   -1    0    0    0  501 -0.00000000000E+00  0.00000000000E+00  0.95045021870E+03  0.95045021870E+03  0.00000000000E+00 0.  1.
          2   -1    0    0  501    0  0.00000000000E+00 -0.00000000000E+00 -0.39916302966E+03  0.39916302966E+03  0.00000000000E+00 0. -1.
         24    2    1    2    0    0  0.27462733117E+02 -0.26293641444E+03  0.88174895556E+02  0.28854617081E+03  0.74795191941E+02 0.  0.
        254    2    1    2    0    0 -0.27462733117E+02  0.26293641444E+03  0.46311229349E+03  0.10610670775E+04  0.91733341099E+03 0.  0.
         23    2    4    4    0    0 -0.18557123818E+03  0.43140408472E+03  0.60759308083E+03  0.77347515359E+03  0.92456976950E+02 0.  0.
         23    2    4    4    0    0  0.15810850506E+03 -0.16846767028E+03 -0.14448078735E+03  0.28759192396E+03  0.91949777100E+02 0.  0.
          2    1    3    3  502    0 -0.10230803537E+02 -0.32885130006E+02 -0.96005227864E+01  0.35752918123E+02  0.00000000000E+00 0. -1.
         -1    1    3    3    0  502  0.37693536654E+02 -0.23005128443E+03  0.97775418343E+02  0.25279325269E+03  0.00000000000E+00 0.  1.
         13    1    5    5    0    0 -0.17358102840E+03  0.30010456164E+03  0.43294429282E+03  0.55464752954E+03  0.00000000000E+00 0. -1.
        -13    1    5    5    0    0 -0.11990209775E+02  0.13129952308E+03  0.17464878801E+03  0.21882762405E+03  0.00000000000E+00 0.  1.
          4    1    6    6  503    0  0.15013227006E+03 -0.17126727490E+03 -0.11157212361E+03  0.25361489848E+03  0.00000000000E+00 0. -1.
         -4    1    6    6    0  503  0.79762350056E+01  0.27996046218E+01 -0.32908663741E+02  0.33977025475E+02  0.00000000000E+00 0.  1.
<mgrwt>
<rscale>  0 0.12318841E+04</rscale>
<asrwt>0</asrwt>
<pdfrwt beam="1">  1        2 0.61409697E-01 0.12318841E+04</pdfrwt>
<pdfrwt beam="2">  1       -1 0.14622311E+00 0.12318841E+04</pdfrwt>
<totfact> 0.33566184E+01</totfact>
</mgrwt>
</event>
<event>
12    7  0.1572140E-007  0.2144907E+04  0.7818608E-02  0.8541715E-01
          2   -1    0    0  501    0  0.00000000000E+00  0.00000000000E+00  0.21944519602E+04  0.21944519602E+04  0.00000000000E+00 0. -1.
         -1   -1    0    0    0  501 -0.00000000000E+00 -0.00000000000E+00 -0.52412018677E+03  0.52412018677E+03  0.00000000000E+00 0.  1.
         24    2    1    2    0    0  0.66821589383E+03 -0.37312375120E+03  0.12444488970E+04  0.14630646154E+04  0.78556966984E+02 0.  0.
        254    2    1    2    0    0 -0.66821589383E+03  0.37312375120E+03  0.42588287642E+03  0.12555075316E+04  0.89954939995E+03 0.  0.
         23    2    4    4    0    0 -0.67379430506E+03  0.32451535249E+01  0.53031603434E+03  0.86204699922E+03  0.88772946467E+02 0.  0.
         23    2    4    4    0    0  0.55784112271E+01  0.36987859768E+03 -0.10443315792E+03  0.39346053236E+03  0.84045287568E+02 0.  0.
          2    1    3    3  502    0  0.45697044567E+03 -0.25252159320E+03  0.77709900918E+03  0.93620084026E+03  0.00000000000E+00 0. -1.
         -1    1    3    3    0  502  0.21124544816E+03 -0.12060215800E+03  0.46734988783E+03  0.52686377513E+03  0.00000000000E+00 0.  1.
         13    1    5    5    0    0 -0.21870940703E+03  0.39776798497E+02  0.19323477091E+03  0.29454316341E+03  0.00000000000E+00 0.  1.
        -13    1    5    5    0    0 -0.45508489803E+03 -0.36531644972E+02  0.33708126344E+03  0.56750383581E+03  0.00000000000E+00 0. -1.
          3    1    6    6  503    0  0.28037911798E+02  0.12366407261E+03 -0.47710900807E+01  0.12689243733E+03  0.00000000000E+00 0. -1.
         -3    1    6    6    0  503 -0.22459500571E+02  0.24621452507E+03 -0.99662067844E+02  0.26656809503E+03  0.00000000000E+00 0.  1.
<mgrwt>
<rscale>  0 0.21449071E+04</rscale>
<asrwt>0</asrwt>
<pdfrwt beam="1">  1        2 0.33760799E+00 0.21449071E+04</pdfrwt>
<pdfrwt beam="2">  1       -1 0.80633876E-01 0.21449071E+04</pdfrwt>
<totfact> 0.83364915E+00</totfact>
</mgrwt>
</event>
<event>
12    7  0.1572140E-007  0.1691035E+04  0.7818608E-02  0.8766494E-01
         -3   -1    0    0    0  501 -0.00000000000E+00  0.00000000000E+00  0.37579698197E+03  0.37579698197E+03  0.00000000000E+00 0.  1.
          2   -1    0    0  501    0  0.00000000000E+00 -0.00000000000E+00 -0.19023563159E+04  0.19023563159E+04  0.00000000000E+00 0. -1.
         24    2    1    2    0    0  0.30645045398E+03 -0.36039504763E+03 -0.10242206486E+04  0.11311725605E+04  0.82018006710E+02 0.  0.
        254    2    1    2    0    0 -0.30645045398E+03  0.36039504763E+03 -0.50233868527E+03  0.11469807374E+04  0.91620095287E+03 0.  0.
         23    2    4    4    0    0 -0.39553640057E+03 -0.14744341551E+03 -0.15357436569E+02  0.43199651636E+03  0.90534713415E+02 0.  0.
         23    2    4    4    0    0  0.89085946598E+02  0.50783846313E+03 -0.48698124870E+03  0.71498422100E+03  0.90639335660E+02 0.  0.
          4    1    3    3  502    0  0.22052445682E+03 -0.29190637568E+03 -0.71794616321E+03  0.80578350783E+03  0.00000000000E+00 0. -1.
         -3    1    3    3    0  502  0.85925997161E+02 -0.68488671946E+02 -0.30627448541E+03  0.32538905265E+03  0.00000000000E+00 0.  1.
         13    1    5    5    0    0 -0.24557162697E+03 -0.58392505806E+02 -0.40944616653E+02  0.25571775523E+03  0.00000000000E+00 0. -1.
        -13    1    5    5    0    0 -0.14996477360E+03 -0.89050909699E+02  0.25587180084E+02  0.17627876113E+03  0.00000000000E+00 0.  1.
          4    1    6    6  503    0  0.87386558702E+01  0.13060028329E+03 -0.17710060503E+03  0.22022130325E+03  0.00000000000E+00 0. -1.
         -4    1    6    6    0  503  0.80347290727E+02  0.37723817984E+03 -0.30988064367E+03  0.49476291775E+03  0.00000000000E+00 0.  1.
<mgrwt>
<rscale>  0 0.16910349E+04</rscale>
<asrwt>0</asrwt>
<pdfrwt beam="1">  1        2 0.29267020E+00 0.16910349E+04</pdfrwt>
<pdfrwt beam="2">  1       -3 0.57814921E-01 0.16910349E+04</pdfrwt>
<totfact> 0.13570633E+01</totfact>
</mgrwt>
</event>
<event>
12    7  0.1572140E-007  0.2719678E+04  0.7818608E-02  0.8328648E-01
          2   -1    0    0  501    0  0.00000000000E+00  0.00000000000E+00  0.24158636602E+04  0.24158636602E+04  0.00000000000E+00 0. -1.
         -1   -1    0    0    0  501 -0.00000000000E+00 -0.00000000000E+00 -0.76542507366E+03  0.76542507366E+03  0.00000000000E+00 0.  1.
         24    2    1    2    0    0 -0.37488797565E+03  0.42217737806E+02  0.20905413962E+04  0.21259512300E+04  0.83558192122E+02 0.  0.
        254    2    1    2    0    0  0.37488797565E+03 -0.42217737806E+02 -0.44010280963E+03  0.10553375039E+04  0.88188629219E+03 0.  0.
         23    2    4    4    0    0  0.61787025566E+03 -0.80829956444E+02 -0.47913402573E+03  0.79104823273E+03  0.88829934184E+02 0.  0.
         23    2    4    4    0    0 -0.24298228001E+03  0.38612218638E+02  0.39031216099E+02  0.26428927114E+03  0.88284150231E+02 0.  0.
          2    1    3    3  502    0 -0.34705140665E+03  0.30161832023E+02  0.17684453824E+04  0.18024298836E+04  0.00000000000E+00 0. -1.
         -1    1    3    3    0  502 -0.27836568996E+02  0.12055905783E+02  0.32209601380E+03  0.32352134635E+03  0.00000000000E+00 0.  1.
         13    1    5    5    0    0  0.50649124640E+03 -0.87537988833E+02 -0.35819131028E+03  0.62649604702E+03  0.00000000000E+00 0. -1.
        -13    1    5    5    0    0  0.11137900926E+03  0.67080323882E+01 -0.12094271546E+03  0.16455218571E+03  0.00000000000E+00 0.  1.
          4    1    6    6  503    0 -0.23700055531E+03  0.55158720686E+02  0.32380123147E+02  0.24547957157E+03  0.00000000000E+00 0. -1.
         -4    1    6    6    0  503 -0.59817247046E+01 -0.16546502047E+02  0.66510929516E+01  0.18809699570E+02  0.00000000000E+00 0.  1.
<mgrwt>
<rscale>  0 0.27196784E+04</rscale>
<asrwt>0</asrwt>
<pdfrwt beam="1">  1        2 0.37167133E+00 0.27196784E+04</pdfrwt>
<pdfrwt beam="2">  1       -1 0.11775770E+00 0.27196784E+04</pdfrwt>
<totfact> 0.25128960E+00</totfact>
</mgrwt>
</event>
<event>
12    7  0.1572140E-007  0.2332324E+04  0.7818608E-02  0.8465284E-01
         -1   -1    0    0    0  501 -0.00000000000E+00  0.00000000000E+00  0.15901621920E+04  0.15901621920E+04  0.00000000000E+00 0.  1.
          2   -1    0    0  501    0  0.00000000000E+00 -0.00000000000E+00 -0.85521723286E+03  0.85521723286E+03  0.00000000000E+00 0. -1.
         24    2    1    2    0    0  0.19528841613E+03  0.40330589603E+03  0.12390240030E+04  0.13199774002E+04  0.79791263040E+02 0.  0.
        254    2    1    2    0    0 -0.19528841613E+03 -0.40330589603E+03 -0.50407904390E+03  0.11254020247E+04  0.90091110738E+03 0.  0.
         23    2    4    4    0    0 -0.32931497015E+03  0.13917379439E+02 -0.57752370946E+03  0.67128236629E+03  0.91893075327E+02 0.  0.
         23    2    4    4    0    0  0.13402655401E+03 -0.41722327547E+03  0.73444665559E+02  0.45411965839E+03  0.93766553006E+02 0.  0.
          4    1    3    3  502    0  0.97882364993E+02  0.21688433621E+03  0.77050667336E+03  0.80641199543E+03  0.00000000000E+00 0. -1.
         -3    1    3    3    0  502  0.97406051140E+02  0.18642155981E+03  0.46851732968E+03  0.51356540476E+03  0.00000000000E+00 0.  1.
         13    1    5    5    0    0 -0.17612054704E+03  0.30095496596E+02 -0.38713992638E+03  0.42638188118E+03  0.00000000000E+00 0.  1.
        -13    1    5    5    0    0 -0.15319442311E+03 -0.16178117157E+02 -0.19038378308E+03  0.24490048511E+03  0.00000000000E+00 0. -1.
          3    1    6    6  503    0  0.22505492211E+02 -0.11148647665E+02  0.14230696508E+02  0.28866975032E+02  0.00000000000E+00 0. -1.
         -3    1    6    6    0  503  0.11152106180E+03 -0.40607462780E+03  0.59213969051E+02  0.42525268335E+03  0.00000000000E+00 0.  1.
<mgrwt>
<rscale>  0 0.23323243E+04</rscale>
<asrwt>0</asrwt>
<pdfrwt beam="1">  1        2 0.13157188E+00 0.23323243E+04</pdfrwt>
<pdfrwt beam="2">  1       -1 0.24464034E+00 0.23323243E+04</pdfrwt>
<totfact> 0.24534580E+00</totfact>
</mgrwt>
</event>
<event>
12    7  0.1572140E-007  0.1822698E+04  0.7818608E-02  0.8694321E-01
          2   -1    0    0  501    0  0.00000000000E+00  0.00000000000E+00  0.74507130020E+03  0.74507130020E+03  0.00000000000E+00 0. -1.
         -1   -1    0    0    0  501 -0.00000000000E+00 -0.00000000000E+00 -0.11147350593E+04  0.11147350593E+04  0.00000000000E+00 0.  1.
         24    2    1    2    0    0 -0.64027137403E+03  0.11997421331E+03 -0.10441042984E+03  0.66445064919E+03  0.79068850256E+02 0.  0.
        254    2    1    2    0    0  0.64027137403E+03 -0.11997421331E+03 -0.26525332925E+03  0.11953557103E+04  0.96652713423E+03 0.  0.
         23    2    4    4    0    0  0.18818521856E+03  0.30545401450E+03  0.19462250031E+03  0.41755471443E+03  0.88080590688E+02 0.  0.
         23    2    4    4    0    0  0.45208615547E+03 -0.42542822781E+03 -0.45987582956E+03  0.77780099587E+03  0.90097400527E+02 0.  0.
          2    1    3    3  502    0  0.60712799753E+00 -0.23939744930E+01  0.22412094292E+01  0.33350769083E+01  0.00000000000E+00 0. -1.
         -1    1    3    3    0  502 -0.64087850203E+03  0.12236818780E+03 -0.10665163927E+03  0.66111557228E+03  0.00000000000E+00 0.  1.
         13    1    5    5    0    0  0.18075456798E+02  0.10319849322E+03  0.46875429279E+02  0.11477785941E+03  0.00000000000E+00 0.  1.
        -13    1    5    5    0    0  0.17010976176E+03  0.20225552128E+03  0.14774707103E+03  0.30277685502E+03  0.00000000000E+00 0. -1.
          1    1    6    6  503    0  0.23724443078E+03 -0.27111913659E+03 -0.29922356696E+03  0.46832173683E+03  0.00000000000E+00 0. -1.
         -1    1    6    6    0  503  0.21484172469E+03 -0.15430909122E+03 -0.16065226260E+03  0.30947925904E+03  0.00000000000E+00 0.  1.
<mgrwt>
<rscale>  0 0.18226981E+04</rscale>
<asrwt>0</asrwt>
<pdfrwt beam="1">  1        2 0.11462635E+00 0.18226981E+04</pdfrwt>
<pdfrwt beam="2">  1       -1 0.17149770E+00 0.18226981E+04</pdfrwt>
<totfact> 0.97617180E+00</totfact>
</mgrwt>
</event>
<event>
12    7  0.1572140E-007  0.1238413E+04  0.7818608E-02  0.9079883E-01
          2   -1    0    0  501    0  0.00000000000E+00  0.00000000000E+00  0.10007086932E+04  0.10007086932E+04  0.00000000000E+00 0. -1.
         -1   -1    0    0    0  501 -0.00000000000E+00 -0.00000000000E+00 -0.38314508026E+03  0.38314508026E+03  0.00000000000E+00 0.  1.
         24    2    1    2    0    0  0.21294066274E+02  0.98357748766E+02 -0.14587243049E+03  0.19607692719E+03  0.83902988025E+02 0.  0.
        254    2    1    2    0    0 -0.21294066274E+02 -0.98357748766E+02  0.76343604339E+03  0.11877768462E+04  0.90435145829E+03 0.  0.
         23    2    4    4    0    0  0.17144029366E+03  0.32364737355E+03  0.55501630590E+03  0.67119956874E+03  0.91248915401E+02 0.  0.
         23    2    4    4    0    0 -0.19273435993E+03 -0.42200512231E+03  0.20841973748E+03  0.51657727750E+03  0.90434727264E+02 0.  0.
          4    1    3    3  502    0  0.28285022602E+02  0.29304627804E+02 -0.76968395486E+01  0.41449307031E+02  0.00000000000E+00 0. -1.
         -3    1    3    3    0  502 -0.69909563279E+01  0.69053120963E+02 -0.13817559094E+03  0.15462762016E+03  0.00000000000E+00 0.  1.
         13    1    5    5    0    0  0.18108116435E+03  0.31609456809E+03  0.54411674637E+03  0.65480470198E+03  0.00000000000E+00 0.  1.
        -13    1    5    5    0    0 -0.96408706904E+01  0.75528054599E+01  0.10899559539E+02  0.16394866761E+02  0.00000000000E+00 0. -1.
          2    1    6    6  503    0 -0.16713265137E+02 -0.20606919059E+02 -0.80661816042E+01  0.27731599852E+02  0.00000000000E+00 0. -1.
         -2    1    6    6    0  503 -0.17602109480E+03 -0.40139820325E+03  0.21648591909E+03  0.48884567764E+03  0.00000000000E+00 0.  1.
<mgrwt>
<rscale>  0 0.12384129E+04</rscale>
<asrwt>0</asrwt>
<pdfrwt beam="1">  1        2 0.15395518E+00 0.12384129E+04</pdfrwt>
<pdfrwt beam="2">  1       -1 0.58945397E-01 0.12384129E+04</pdfrwt>
<totfact> 0.82411493E+01</totfact>
</mgrwt>
</event>
<event>
12    7  0.1572140E-007  0.3713595E+04  0.7818608E-02  0.8064956E-01
          2   -1    0    0  501    0  0.00000000000E+00  0.00000000000E+00  0.32573262933E+04  0.32573262933E+04  0.00000000000E+00 0. -1.
         -1   -1    0    0    0  501 -0.00000000000E+00 -0.00000000000E+00 -0.10584436764E+04  0.10584436764E+04  0.00000000000E+00 0.  1.
         24    2    1    2    0    0  0.62669412968E+03  0.26544368978E+03  0.29091723228E+04  0.29888029123E+04  0.80332808246E+02 0.  0.
        254    2    1    2    0    0 -0.62669412968E+03 -0.26544368978E+03 -0.71028970590E+03  0.13269670573E+04  0.89057521877E+03 0.  0.
         23    2    4    4    0    0 -0.10391572193E+03  0.14160331621E+03  0.14216741280E+03  0.24344834412E+03  0.90584471991E+02 0.  0.
         23    2    4    4    0    0 -0.52277840775E+03 -0.40704700599E+03 -0.85245711870E+03  0.10835187132E+04  0.91351704623E+02 0.  0.
          2    1    3    3  502    0  0.57041868126E+03  0.22431560026E+03  0.26835202044E+04  0.27526306778E+04  0.00000000000E+00 0. -1.
         -1    1    3    3    0  502  0.56275448423E+02  0.41128089519E+02  0.22565211839E+03  0.23617223456E+03  0.00000000000E+00 0.  1.
         13    1    5    5    0    0 -0.51012818528E+02  0.37981033866E+02  0.10230690694E+03  0.12046397717E+03  0.00000000000E+00 0. -1.
        -13    1    5    5    0    0 -0.52902903398E+02  0.10362228235E+03  0.39860505862E+02  0.12298436695E+03  0.00000000000E+00 0.  1.
          4    1    6    6  503    0 -0.28627140193E+03 -0.23338019272E+03 -0.40189066876E+03  0.54583306932E+03  0.00000000000E+00 0.  1.
         -4    1    6    6    0  503 -0.23650700582E+03 -0.17366681327E+03 -0.45056644994E+03  0.53768564389E+03  0.00000000000E+00 0. -1.
<mgrwt>
<rscale>  0 0.37135947E+04</rscale>
<asrwt>0</asrwt>
<pdfrwt beam="1">  1        2 0.50112712E+00 0.37135947E+04</pdfrwt>
<pdfrwt beam="2">  1       -1 0.16283749E+00 0.37135947E+04</pdfrwt>
<totfact> 0.30284518E-01</totfact>
</mgrwt>
</event>
<event>
12    7  0.1572140E-007  0.2401825E+04  0.7818608E-02  0.8438821E-01
         -1   -1    0    0    0  501 -0.00000000000E+00  0.00000000000E+00  0.11908321631E+04  0.11908321631E+04  0.00000000000E+00 0.  1.
          2   -1    0    0  501    0  0.00000000000E+00 -0.00000000000E+00 -0.12110778512E+04  0.12110778512E+04  0.00000000000E+00 0. -1.
         24    2    1    2    0    0 -0.10364816725E+03 -0.10004380318E+04  0.22810759942E+03  0.10344917550E+04  0.80752190482E+02 0.  0.
        254    2    1    2    0    0  0.10364816725E+03  0.10004380318E+04 -0.24835328758E+03  0.13674182592E+04  0.89248761458E+03 0.  0.
         23    2    4    4    0    0 -0.20468700521E+02  0.76429398962E+03  0.23752304549E+03  0.80549888604E+03  0.88583226439E+02 0.  0.
         23    2    4    4    0    0  0.12411686777E+03  0.23614404219E+03 -0.48587633307E+03  0.56191937320E+03  0.92241885325E+02 0.  0.
          2    1    3    3  502    0 -0.17714706632E+02 -0.17052492264E+03  0.70571691230E+02  0.18539936266E+03  0.00000000000E+00 0. -1.
         -1    1    3    3    0  502 -0.85933460621E+02 -0.82991310917E+03  0.15753590819E+03  0.84909239238E+03  0.00000000000E+00 0.  1.
         13    1    5    5    0    0 -0.14114998295E+02  0.72532533334E+03  0.20372374145E+03  0.75352467457E+03  0.00000000000E+00 0.  1.
        -13    1    5    5    0    0 -0.63537022263E+01  0.38968656278E+02  0.33799304037E+02  0.51974211465E+02  0.00000000000E+00 0. -1.
          3    1    6    6  503    0  0.70089354275E+02  0.10966631736E+03 -0.14779090587E+03  0.19692986215E+03  0.00000000000E+00 0. -1.
         -3    1    6    6    0  503  0.54027513499E+02  0.12647772483E+03 -0.33808542720E+03  0.36498951106E+03  0.00000000000E+00 0.  1.
<mgrwt>
<rscale>  0 0.24018247E+04</rscale>
<asrwt>0</asrwt>
<pdfrwt beam="1">  1        2 0.18631967E+00 0.24018247E+04</pdfrwt>
<pdfrwt beam="2">  1       -1 0.18320495E+00 0.24018247E+04</pdfrwt>
<totfact> 0.37735409E+00</totfact>
</mgrwt>
</event>
<event>
12    7  0.1572140E-007  0.1516562E+04  0.7818608E-02  0.8873513E-01
          2   -1    0    0  501    0  0.00000000000E+00  0.00000000000E+00  0.17681597005E+04  0.17681597005E+04  0.00000000000E+00 0. -1.
         -1   -1    0    0    0  501 -0.00000000000E+00 -0.00000000000E+00 -0.32519143533E+03  0.32519143533E+03  0.00000000000E+00 0.  1.
         24    2    1    2    0    0  0.20643420744E+03  0.41184801524E+03  0.68088329059E+03  0.82576524189E+03  0.77796591461E+02 0.  0.
        254    2    1    2    0    0 -0.20643420744E+03 -0.41184801524E+03  0.76208497459E+03  0.12675858940E+04  0.90209013984E+03 0.  0.
         23    2    4    4    0    0 -0.36771973387E+03  0.15770406536E+03  0.36818321286E+03  0.55102631890E+03  0.89346242126E+02 0.  0.
         23    2    4    4    0    0  0.16128552642E+03 -0.56955208059E+03  0.39390176173E+03  0.71655957505E+03  0.88861876891E+02 0.  0.
          2    1    3    3  502    0  0.21321414090E+03  0.40343754930E+03  0.66250392481E+03  0.80444613024E+03  0.00000000000E+00 0. -1.
         -1    1    3    3    0  502 -0.67799334575E+01  0.84104659384E+01  0.18379365780E+02  0.21319111648E+02  0.00000000000E+00 0.  1.
         13    1    5    5    0    0 -0.63995842619E+02  0.67576006849E+02  0.79058644150E+02  0.12211573932E+03  0.00000000000E+00 0.  1.
        -13    1    5    5    0    0 -0.30372389125E+03  0.90128058507E+02  0.28912456871E+03  0.42891057958E+03  0.00000000000E+00 0. -1.
          3    1    6    6  503    0  0.14148511074E+03 -0.48533777023E+03  0.37100831928E+03  0.62707093758E+03  0.00000000000E+00 0. -1.
         -3    1    6    6    0  503  0.19800415685E+02 -0.84214310357E+02  0.22893442451E+02  0.89488637477E+02  0.00000000000E+00 0.  1.
<mgrwt>
<rscale>  0 0.15165624E+04</rscale>
<asrwt>0</asrwt>
<pdfrwt beam="1">  1        2 0.27202456E+00 0.15165624E+04</pdfrwt>
<pdfrwt beam="2">  1       -1 0.50029453E-01 0.15165624E+04</pdfrwt>
<totfact> 0.39612063E+01</totfact>
</mgrwt>
</event>
<event>
12    7  0.1572140E-007  0.1469934E+04  0.7818608E-02  0.8904696E-01
         -1   -1    0    0    0  501 -0.00000000000E+00  0.00000000000E+00  0.22444496137E+03  0.22444496137E+03  0.00000000000E+00 0.  1.
          2   -1    0    0  501    0  0.00000000000E+00 -0.00000000000E+00 -0.24067218295E+04  0.24067218295E+04  0.00000000000E+00 0. -1.
         24    2    1    2    0    0 -0.36217164976E+03 -0.19744326757E+03 -0.10351137630E+04  0.11172665994E+04  0.81682335473E+02 0.  0.
        254    2    1    2    0    0  0.36217164976E+03  0.19744326757E+03 -0.11471631051E+04  0.15139001915E+04  0.89764049165E+03 0.  0.
         23    2    4    4    0    0  0.44080341758E+03  0.62140095179E+02 -0.11839097472E+03  0.46956254032E+03  0.91123608337E+02 0.  0.
         23    2    4    4    0    0 -0.78631767817E+02  0.13530317239E+03 -0.10287721304E+04  0.10443376512E+04  0.88199376492E+02 0.  0.
          2    1    3    3  502    0 -0.35562979853E+03 -0.19482071483E+03 -0.10332595647E+04  0.11099788253E+04  0.00000000000E+00 0. -1.
         -1    1    3    3    0  502 -0.65418512260E+01 -0.26225527368E+01 -0.18541983454E+01  0.72877741337E+01  0.00000000000E+00 0.  1.
         13    1    5    5    0    0  0.39123488877E+03  0.67884591015E+02 -0.13093225803E+03  0.41811040656E+03  0.00000000000E+00 0.  1.
        -13    1    5    5    0    0  0.49568528811E+02 -0.57444958358E+01  0.12541283302E+02  0.51452133754E+02  0.00000000000E+00 0. -1.
          3    1    6    6  503    0 -0.26344010465E+02  0.10687887911E+03 -0.48588323974E+03  0.49819637128E+03  0.00000000000E+00 0. -1.
         -3    1    6    6    0  503 -0.52287757352E+02  0.28424293276E+02 -0.54288889064E+03  0.54614127989E+03  0.00000000000E+00 0.  1.
<mgrwt>
<rscale>  0 0.14699341E+04</rscale>
<asrwt>0</asrwt>
<pdfrwt beam="1">  1        2 0.37026491E+00 0.14699341E+04</pdfrwt>
<pdfrwt beam="2">  1       -1 0.34529993E-01 0.14699341E+04</pdfrwt>
<totfact> 0.34631855E+01</totfact>
</mgrwt>
</event>
<event>
12    7  0.1572140E-007  0.1614626E+04  0.7818608E-02  0.8811613E-01
         -1   -1    0    0    0  501 -0.00000000000E+00  0.00000000000E+00  0.13945403593E+04  0.13945403593E+04  0.00000000000E+00 0.  1.
          2   -1    0    0  501    0  0.00000000000E+00 -0.00000000000E+00 -0.46736145218E+03  0.46736145218E+03  0.00000000000E+00 0. -1.
         24    2    1    2    0    0  0.18536224773E+03  0.44058909835E+03  0.17623855654E+02  0.48708891821E+03  0.92016832615E+02 0.  0.
        254    2    1    2    0    0 -0.18536224773E+03 -0.44058909835E+03  0.90955505148E+03  0.13748128933E+04  0.91342333197E+03 0.  0.
         23    2    4    4    0    0  0.26199520152E+03  0.12539589125E+03  0.27425770272E+03  0.40920352681E+03  0.88682713560E+02 0.  0.
         23    2    4    4    0    0 -0.44735744925E+03 -0.56598498960E+03  0.63529734876E+03  0.96560936647E+03  0.91274483952E+02 0.  0.
          2    1    3    3  502    0  0.13757659724E+03  0.24130223163E+03  0.41185496942E+02  0.28080301326E+03  0.00000000000E+00 0. -1.
         -1    1    3    3    0  502  0.47785650490E+02  0.19928686672E+03 -0.23561641288E+02  0.20628590495E+03  0.00000000000E+00 0.  1.
         13    1    5    5    0    0  0.97440612950E+02  0.13454996141E+02  0.53480786419E+02  0.11196385349E+03  0.00000000000E+00 0. -1.
        -13    1    5    5    0    0  0.16455458857E+03  0.11194089511E+03  0.22077691630E+03  0.29723967331E+03  0.00000000000E+00 0.  1.
          3    1    6    6  503    0 -0.18360997411E+03 -0.21482961194E+03  0.30716764596E+03  0.41739231843E+03  0.00000000000E+00 0. -1.
         -3    1    6    6    0  503 -0.26374747515E+03 -0.35115537766E+03  0.32812970280E+03  0.54821704804E+03  0.00000000000E+00 0.  1.
<mgrwt>
<rscale>  0 0.16146262E+04</rscale>
<asrwt>0</asrwt>
<pdfrwt beam="1">  1        2 0.71901762E-01 0.16146262E+04</pdfrwt>
<pdfrwt beam="2">  1       -1 0.21454467E+00 0.16146262E+04</pdfrwt>
<totfact> 0.87320318E+00</totfact>
</mgrwt>
</event>
<event>
12    7  0.1572140E-007  0.1193140E+04  0.7818608E-02  0.9118882E-01
          2   -1    0    0  501    0  0.00000000000E+00  0.00000000000E+00  0.10422947848E+04  0.10422947848E+04  0.00000000000E+00 0. -1.
         -1   -1    0    0    0  501 -0.00000000000E+00 -0.00000000000E+00 -0.34145406659E+03  0.34145406659E+03  0.00000000000E+00 0.  1.
         24    2    1    2    0    0 -0.23093769346E+03 -0.16803081903E+02  0.26234582537E+03  0.35901832463E+03  0.80338431069E+02 0.  0.
        254    2    1    2    0    0  0.23093769346E+03  0.16803081903E+02  0.43849489286E+03  0.10247305268E+04  0.89676101589E+03 0.  0.
         23    2    4    4    0    0  0.37348668497E+03  0.20804180726E+03 -0.82188367049E+02  0.44479565037E+03  0.91184129613E+02 0.  0.
         23    2    4    4    0    0 -0.14254899151E+03 -0.19123872536E+03  0.52068325990E+03  0.57993487641E+03  0.91219179276E+02 0.  0.
          4    1    3    3  502    0  0.41676326200E+01 -0.81801636834E+01  0.54644336745E+01  0.10683832408E+02  0.00000000000E+00 0. -1.
         -3    1    3    3    0  502 -0.23510532608E+03 -0.86229182196E+01  0.25688139170E+03  0.34833449222E+03  0.00000000000E+00 0.  1.
         13    1    5    5    0    0  0.22642237407E+03  0.92309480464E+02 -0.81217683940E+02  0.25765178798E+03  0.00000000000E+00 0. -1.
        -13    1    5    5    0    0  0.14706431090E+03  0.11573232680E+03 -0.97068310870E+00  0.18714386239E+03  0.00000000000E+00 0.  1.
          3    1    6    6  503    0  0.10531744113E+02 -0.29035107447E+02  0.85889811102E+02  0.91274392629E+02  0.00000000000E+00 0. -1.
         -3    1    6    6    0  503 -0.15308073562E+03 -0.16220361791E+03  0.43479344880E+03  0.48866048378E+03  0.00000000000E+00 0.  1.
<mgrwt>
<rscale>  0 0.11931400E+04</rscale>
<asrwt>0</asrwt>
<pdfrwt beam="1">  1        2 0.16035304E+00 0.11931400E+04</pdfrwt>
<pdfrwt beam="2">  1       -1 0.52531395E-01 0.11931400E+04</pdfrwt>
<totfact> 0.97297174E+01</totfact>
</mgrwt>
</event>
<event>
12    7  0.1572140E-007  0.2098680E+04  0.7818608E-02  0.8561825E-01
         -1   -1    0    0    0  501 -0.00000000000E+00  0.00000000000E+00  0.59130638014E+03  0.59130638014E+03  0.00000000000E+00 0.  1.
          2   -1    0    0  501    0  0.00000000000E+00 -0.00000000000E+00 -0.18621731943E+04  0.18621731943E+04  0.00000000000E+00 0. -1.
         24    2    1    2    0    0  0.37012198228E+03  0.56684942814E+03  0.93403064578E+02  0.68804170210E+03  0.79804106441E+02 0.  0.
        254    2    1    2    0    0 -0.37012198228E+03 -0.56684942814E+03 -0.13642698788E+04  0.17654378724E+04  0.89287738416E+03 0.  0.
         23    2    4    4    0    0 -0.10125693134E+03  0.15589402161E+03 -0.14033346700E+02  0.20782991738E+03  0.91871799928E+02 0.  0.
         23    2    4    4    0    0 -0.26886505095E+03 -0.72274344974E+03 -0.13502365321E+04  0.15576079550E+04  0.91418483755E+02 0.  0.
          4    1    3    3  502    0  0.20484921838E+03  0.25856148259E+03  0.71681435336E+02  0.33757291171E+03  0.00000000000E+00 0. -1.
         -3    1    3    3    0  502  0.16527276391E+03  0.30828794555E+03  0.21721629241E+02  0.35046879039E+03  0.00000000000E+00 0.  1.
         13    1    5    5    0    0 -0.36253995326E+02  0.74126567311E+02 -0.51021952598E+02  0.97017213964E+02  0.00000000000E+00 0.  1.
        -13    1    5    5    0    0 -0.65002936009E+02  0.81767454295E+02  0.36988605898E+02  0.11081270341E+03  0.00000000000E+00 0. -1.
          3    1    6    6  503    0 -0.11970750872E+03 -0.44931719783E+03 -0.79769220276E+03  0.92332479781E+03  0.00000000000E+00 0. -1.
         -3    1    6    6    0  503 -0.14915754223E+03 -0.27342625191E+03 -0.55254432930E+03  0.63428315718E+03  0.00000000000E+00 0.  1.
<mgrwt>
<rscale>  0 0.20986804E+04</rscale>
<asrwt>0</asrwt>
<pdfrwt beam="1">  1        2 0.28648818E+00 0.20986804E+04</pdfrwt>
<pdfrwt beam="2">  1       -1 0.90970212E-01 0.20986804E+04</pdfrwt>
<totfact> 0.98645866E+00</totfact>
</mgrwt>
</event>
<event>
12    7  0.1572140E-007  0.1183903E+04  0.7818608E-02  0.9127064E-01
          2   -1    0    0  501    0  0.00000000000E+00  0.00000000000E+00  0.74458507407E+03  0.74458507407E+03  0.00000000000E+00 0. -1.
         -1   -1    0    0    0  501 -0.00000000000E+00 -0.00000000000E+00 -0.47060613059E+03  0.47060613059E+03  0.00000000000E+00 0.  1.
         24    2    1    2    0    0 -0.17585298569E+03 -0.13973841036E+03 -0.41475997431E+02  0.24148491664E+03  0.78381188423E+02 0.  0.
        254    2    1    2    0    0  0.17585298569E+03  0.13973841036E+03  0.31545494091E+03  0.97370628801E+03  0.89338738499E+03 0.  0.
         23    2    4    4    0    0 -0.25357986175E+03 -0.20578275555E+03  0.15786626784E+02  0.34017175584E+03  0.93905895010E+02 0.  0.
         23    2    4    4    0    0  0.42943284744E+03  0.34552116591E+03  0.29966831413E+03  0.63353453217E+03  0.88133185631E+02 0.  0.
          4    1    3    3  502    0 -0.85415512204E+02 -0.10304480382E+03  0.37982045813E+01  0.13389722804E+03  0.00000000000E+00 0. -1.
         -3    1    3    3    0  502 -0.90437473482E+02 -0.36693606542E+02 -0.45274202012E+02  0.10758768860E+03  0.00000000000E+00 0.  1.
         13    1    5    5    0    0 -0.23126672999E+03 -0.14000393535E+03  0.12105943376E+02  0.27061403544E+03  0.00000000000E+00 0.  1.
        -13    1    5    5    0    0 -0.22313131761E+02 -0.65778820206E+02  0.36806834084E+01  0.69557720398E+02  0.00000000000E+00 0. -1.
          3    1    6    6  503    0  0.53957651121E+02  0.84736643893E+02  0.43193645657E+02  0.10934997923E+03  0.00000000000E+00 0. -1.
         -3    1    6    6    0  503  0.37547519632E+03  0.26078452202E+03  0.25647466847E+03  0.52418455294E+03  0.00000000000E+00 0.  1.
<mgrwt>
<rscale>  0 0.11839025E+04</rscale>
<asrwt>0</asrwt>
<pdfrwt beam="1">  1        2 0.11455155E+00 0.11839025E+04</pdfrwt>
<pdfrwt beam="2">  1       -1 0.72400943E-01 0.11839025E+04</pdfrwt>
<totfact> 0.82196001E+01</totfact>
</mgrwt>
</event>
<event>
12    7  0.1572140E-007  0.1536217E+04  0.7818608E-02  0.8860720E-01
         -1   -1    0    0    0  501 -0.00000000000E+00  0.00000000000E+00  0.18203376256E+03  0.18203376256E+03  0.00000000000E+00 0.  1.
          2   -1    0    0  501    0  0.00000000000E+00 -0.00000000000E+00 -0.32411077075E+04  0.32411077075E+04  0.00000000000E+00 0. -1.
         24    2    1    2    0    0 -0.33466537730E+03 -0.33388522057E+03 -0.13074139554E+04  0.13923721978E+04  0.76738721093E+02 0.  0.
        254    2    1    2    0    0  0.33466537730E+03  0.33388522057E+03 -0.17516599896E+04  0.20307692722E+04  0.91226688128E+03 0.  0.
         23    2    4    4    0    0  0.24097043821E+03 -0.75767759473E+02 -0.46891912661E+02  0.27251302548E+03  0.90867992810E+02 0.  0.
         23    2    4    4    0    0  0.93694939087E+02  0.40965298005E+03 -0.17047680769E+04  0.17582562467E+04  0.92932919344E+02 0.  0.
          4    1    3    3  502    0 -0.20913184322E+03 -0.25765065051E+03 -0.92522710881E+03  0.98293702160E+03  0.00000000000E+00 0. -1.
         -3    1    3    3    0  502 -0.12553353407E+03 -0.76234570062E+02 -0.38218684657E+03  0.40943517623E+03  0.00000000000E+00 0.  1.
         13    1    5    5    0    0  0.91931801169E+02  0.12276137744E+02 -0.34541818168E+02  0.98971191901E+02  0.00000000000E+00 0.  1.
        -13    1    5    5    0    0  0.14903863704E+03 -0.88043897217E+02 -0.12350094493E+02  0.17354183358E+03  0.00000000000E+00 0. -1.
          4    1    6    6  503    0  0.86886020322E+02  0.30804059279E+03 -0.14257690579E+04  0.14612513794E+04  0.00000000000E+00 0. -1.
         -4    1    6    6    0  503  0.68089187656E+01  0.10161238725E+03 -0.27899901901E+03  0.29700486734E+03  0.00000000000E+00 0.  1.
<mgrwt>
<rscale>  0 0.15362175E+04</rscale>
<asrwt>0</asrwt>
<pdfrwt beam="1">  1        2 0.49863195E+00 0.15362175E+04</pdfrwt>
<pdfrwt beam="2">  1       -1 0.28005194E-01 0.15362175E+04</pdfrwt>
<totfact> 0.15539342E+01</totfact>
</mgrwt>
</event>
<event>
12    7  0.1709163E-007  0.2168019E+04  0.7818608E-02  0.8531858E-01
         -1   -1    0    0    0  501 -0.00000000000E+00  0.00000000000E+00  0.45348726440E+03  0.45348726440E+03  0.00000000000E+00 0.  1.
          2   -1    0    0  501    0  0.00000000000E+00 -0.00000000000E+00 -0.25912005220E+04  0.25912005220E+04  0.00000000000E+00 0. -1.
         24    2    1    2    0    0  0.31791674956E+03  0.39074787271E+03  0.13892720997E+03  0.52881702485E+03  0.81189386137E+02 0.  0.
        254    2    1    2    0    0 -0.31791674956E+03 -0.39074787271E+03 -0.22766404675E+04  0.25158707615E+04  0.94485920145E+03 0.  0.
         23    2    4    4    0    0 -0.58995183681E+01  0.10565720321E+03 -0.16388674839E+04  0.16448734715E+04  0.92324745741E+02 0.  0.
         23    2    4    4    0    0 -0.31201723120E+03 -0.49640507591E+03 -0.63777298366E+03  0.87099729001E+03  0.90050810965E+02 0.  0.
          2    1    3    3  502    0  0.66153104656E+02  0.56631761303E+02 -0.27498670360E+01  0.87126066206E+02  0.00000000000E+00 0. -1.
         -1    1    3    3    0  502  0.25176364491E+03  0.33411611140E+03  0.14167707701E+03  0.44169095864E+03  0.00000000000E+00 0.  1.
         13    1    5    5    0    0 -0.11812135457E+02  0.43040231587E+02 -0.21331142364E+03  0.21793061174E+03  0.00000000000E+00 0.  1.
        -13    1    5    5    0    0  0.59126170890E+01  0.62616971620E+02 -0.14255560602E+04  0.14269428598E+04  0.00000000000E+00 0. -1.
          2    1    6    6  503    0 -0.67271621183E+02 -0.16781338901E+03 -0.23451252417E+03  0.29611303339E+03  0.00000000000E+00 0. -1.
         -2    1    6    6    0  503 -0.24474561001E+03 -0.32859168690E+03 -0.40326045949E+03  0.57488425662E+03  0.00000000000E+00 0.  1.
<mgrwt>
<rscale>  0 0.21680189E+04</rscale>
<asrwt>0</asrwt>
<pdfrwt beam="1">  1        2 0.39864623E+00 0.21680189E+04</pdfrwt>
<pdfrwt beam="2">  1       -1 0.69767273E-01 0.21680189E+04</pdfrwt>
<totfact> 0.66743497E+00</totfact>
</mgrwt>
</event>
<event>
12    7  0.1572140E-007  0.1345175E+04  0.7818608E-02  0.8994488E-01
          4   -1    0    0  501    0  0.00000000000E+00  0.00000000000E+00  0.54240590623E+03  0.54240590623E+03  0.00000000000E+00 0. -1.
         -3   -1    0    0    0  501 -0.00000000000E+00 -0.00000000000E+00 -0.83401419522E+03  0.83401419522E+03  0.00000000000E+00 0.  1.
         24    2    1    2    0    0 -0.15160523626E+03 -0.24121319992E+03 -0.28234032497E+03  0.40860742806E+03  0.77948801687E+02 0.  0.
        254    2    1    2    0    0  0.15160523626E+03  0.24121319992E+03 -0.92679640127E+01  0.96781267339E+03  0.92488243585E+03 0.  0.
         23    2    4    4    0    0 -0.91166586257E+02  0.54858864858E+03 -0.35063060341E+02  0.56482065821E+03  0.92369399358E+02 0.  0.
         23    2    4    4    0    0  0.24277182252E+03 -0.30737544866E+03  0.25795096328E+02  0.40299201518E+03  0.91210487655E+02 0.  0.
          4    1    3    3  502    0 -0.62810449018E+02 -0.13252927866E+03 -0.19237184647E+03  0.24190099115E+03  0.00000000000E+00 0. -1.
         -3    1    3    3    0  502 -0.88794787244E+02 -0.10868392126E+03 -0.89968478507E+02  0.16670643691E+03  0.00000000000E+00 0.  1.
         13    1    5    5    0    0 -0.90116280672E+02  0.52501098707E+03 -0.13511766037E+02  0.53286025223E+03  0.00000000000E+00 0.  1.
        -13    1    5    5    0    0 -0.10503055849E+01  0.23577661514E+02 -0.21551294304E+02  0.31960405981E+02  0.00000000000E+00 0. -1.
          2    1    6    6  503    0  0.12229283998E+03 -0.91880497930E+02 -0.11092891007E+02  0.15336432715E+03  0.00000000000E+00 0. -1.
         -2    1    6    6    0  503  0.12047898253E+03 -0.21549495073E+03  0.36887987335E+02  0.24962768803E+03  0.00000000000E+00 0.  1.
<mgrwt>
<rscale>  0 0.13451754E+04</rscale>
<asrwt>0</asrwt>
<pdfrwt beam="1">  1        4 0.83447063E-01 0.13451754E+04</pdfrwt>
<pdfrwt beam="2">  1       -3 0.12830988E+00 0.13451754E+04</pdfrwt>
<totfact> 0.13504018E+00</totfact>
</mgrwt>
</event>
<event>
12    7  0.1572140E-007  0.1261284E+04  0.7818608E-02  0.9060843E-01
         -1   -1    0    0    0  501 -0.00000000000E+00  0.00000000000E+00  0.14710912271E+03  0.14710912271E+03  0.00000000000E+00 0.  1.
          2   -1    0    0  501    0  0.00000000000E+00 -0.00000000000E+00 -0.27034993704E+04  0.27034993704E+04  0.00000000000E+00 0. -1.
         24    2    1    2    0    0 -0.27033321766E+03  0.11056101553E+03 -0.45662152089E+03  0.54774398177E+03  0.78844590769E+02 0.  0.
        254    2    1    2    0    0  0.27033321766E+03 -0.11056101553E+03 -0.20997687268E+04  0.23028645113E+04  0.89936225453E+03 0.  0.
         23    2    4    4    0    0  0.52878210856E+03 -0.12323627894E+03 -0.18547360473E+04  0.19348784276E+04  0.94398227546E+02 0.  0.
         23    2    4    4    0    0 -0.25844889090E+03  0.12675263413E+02 -0.24503267945E+03  0.36798608378E+03  0.91740134891E+02 0.  0.
          4    1    3    3  502    0 -0.57083626442E+01  0.34953179099E+01 -0.52743654994E+02  0.53166679353E+02  0.00000000000E+00 0. -1.
         -3    1    3    3    0  502 -0.26462485502E+03  0.10706569762E+03 -0.40387786590E+03  0.49457730242E+03  0.00000000000E+00 0.  1.
         13    1    5    5    0    0  0.95861819467E+02  0.86597315554E+01 -0.26320480645E+03  0.28025211778E+03  0.00000000000E+00 0. -1.
        -13    1    5    5    0    0  0.43292028909E+03 -0.13189601050E+03 -0.15915312409E+04  0.16546263098E+04  0.00000000000E+00 0.  1.
          2    1    6    6  503    0 -0.23327416494E+02  0.12976477836E+02 -0.69852406961E+02  0.74779115370E+02  0.00000000000E+00 0. -1.
         -2    1    6    6    0  503 -0.23512147440E+03 -0.30121442309E+00 -0.17518027249E+03  0.29320696841E+03  0.00000000000E+00 0.  1.
<mgrwt>
<rscale>  0 0.12612841E+04</rscale>
<asrwt>0</asrwt>
<pdfrwt beam="1">  1        2 0.41592291E+00 0.12612841E+04</pdfrwt>
<pdfrwt beam="2">  1       -1 0.22632176E-01 0.12612841E+04</pdfrwt>
<totfact> 0.49500919E+01</totfact>
</mgrwt>
</event>
<event>
12    7  0.1572140E-007  0.2611014E+04  0.7818608E-02  0.8364470E-01
         -1   -1    0    0    0  501 -0.00000000000E+00  0.00000000000E+00  0.19712771851E+04  0.19712771851E+04  0.00000000000E+00 0.  1.
          2   -1    0    0  501    0  0.00000000000E+00 -0.00000000000E+00 -0.86459111678E+03  0.86459111678E+03  0.00000000000E+00 0. -1.
         24    2    1    2    0    0  0.69980194716E+03  0.88648121862E+03  0.25809074103E+03  0.11612705051E+04  0.79791221953E+02 0.  0.
        254    2    1    2    0    0 -0.69980194716E+03 -0.88648121862E+03  0.84859532731E+03  0.16745977968E+04  0.89921745724E+03 0.  0.
         23    2    4    4    0    0  0.36320867962E+02  0.20472131773E+02  0.41279465744E+03  0.42450963600E+03  0.89837009133E+02 0.  0.
         23    2    4    4    0    0 -0.73612281512E+03 -0.90695335040E+03  0.43580066987E+03  0.12500881608E+04  0.91416668481E+02 0.  0.
          2    1    3    3  502    0  0.25401497560E+03  0.30109116578E+03  0.12689225126E+03  0.41386125860E+03  0.00000000000E+00 0. -1.
         -1    1    3    3    0  502  0.44578697156E+03  0.58539005284E+03  0.13119848977E+03  0.74740924646E+03  0.00000000000E+00 0.  1.
         13    1    5    5    0    0 -0.49254146752E+00 -0.85609910283E+01 -0.47569201688E+00  0.85883320487E+01  0.00000000000E+00 0. -1.
        -13    1    5    5    0    0  0.36813409430E+02  0.29033122802E+02  0.41327034946E+03  0.41592130395E+03  0.00000000000E+00 0.  1.
          3    1    6    6  503    0 -0.15374376916E+03 -0.24996360694E+03  0.12045162827E+03  0.31721845170E+03  0.00000000000E+00 0. -1.
         -3    1    6    6    0  503 -0.58237904596E+03 -0.65698974346E+03  0.31534904160E+03  0.93286970914E+03  0.00000000000E+00 0.  1.
<mgrwt>
<rscale>  0 0.26110142E+04</rscale>
<asrwt>0</asrwt>
<pdfrwt beam="1">  1        2 0.13301402E+00 0.26110142E+04</pdfrwt>
<pdfrwt beam="2">  1       -1 0.30327341E+00 0.26110142E+04</pdfrwt>
<totfact> 0.98264465E-01</totfact>
</mgrwt>
</event>
<event>
12    7  0.1572140E-007  0.1391036E+04  0.7818608E-02  0.8960333E-01
         -1   -1    0    0    0  501 -0.00000000000E+00  0.00000000000E+00  0.42257855203E+03  0.42257855203E+03  0.00000000000E+00 0.  1.
          2   -1    0    0  501    0  0.00000000000E+00 -0.00000000000E+00 -0.11447467408E+04  0.11447467408E+04  0.00000000000E+00 0. -1.
         24    2    1    2    0    0 -0.47665730000E+02  0.14941272134E+03  0.15527629192E+03  0.23303458760E+03  0.74821180643E+02 0.  0.
        254    2    1    2    0    0  0.47665730000E+02 -0.14941272134E+03 -0.87744448072E+03  0.13342907053E+04  0.99288805325E+03 0.  0.
         23    2    4    4    0    0  0.37057868298E+02  0.84999553494E+02 -0.10314402548E+04  0.10395490414E+04  0.90526241433E+02 0.  0.
         23    2    4    4    0    0  0.10607861701E+02 -0.23441227484E+03  0.15399577411E+03  0.29474166391E+03  0.89979490322E+02 0.  0.
          4    1    3    3  502    0  0.17671263358E+02  0.11308773260E+02  0.19364204744E+02  0.28550557379E+02  0.00000000000E+00 0. -1.
         -3    1    3    3    0  502 -0.65336993358E+02  0.13810394808E+03  0.13591208717E+03  0.20448403022E+03  0.00000000000E+00 0.  1.
         13    1    5    5    0    0 -0.13538544407E+02 -0.52569460625E+00 -0.27034080390E+02  0.30239213647E+02  0.00000000000E+00 0. -1.
        -13    1    5    5    0    0  0.50596412705E+02  0.85525248100E+02 -0.10044061744E+04  0.10093098277E+04  0.00000000000E+00 0.  1.
          4    1    6    6  503    0  0.43227486009E+01 -0.10182148207E+02  0.43122536531E+02  0.44518709039E+02  0.00000000000E+00 0. -1.
         -4    1    6    6    0  503  0.62851131006E+01 -0.22423012663E+03  0.11087323758E+03  0.25022295488E+03  0.00000000000E+00 0.  1.
<mgrwt>
<rscale>  0 0.13910362E+04</rscale>
<asrwt>0</asrwt>
<pdfrwt beam="1">  1        2 0.17611488E+00 0.13910362E+04</pdfrwt>
<pdfrwt beam="2">  1       -1 0.65012086E-01 0.13910362E+04</pdfrwt>
<totfact> 0.54491968E+01</totfact>
</mgrwt>
</event>
<event>
12    7  0.1572140E-007  0.2389987E+04  0.7818608E-02  0.8443262E-01
         -1   -1    0    0    0  501 -0.00000000000E+00  0.00000000000E+00  0.20383108829E+04  0.20383108829E+04  0.00000000000E+00 0.  1.
          2   -1    0    0  501    0  0.00000000000E+00 -0.00000000000E+00 -0.70058486297E+03  0.70058486297E+03  0.00000000000E+00 0. -1.
         24    2    1    2    0    0 -0.26104374403E+02 -0.10045511043E+04  0.77388581467E+03  0.12708950388E+04  0.80439952720E+02 0.  0.
        254    2    1    2    0    0  0.26104374403E+02  0.10045511043E+04  0.56384020526E+03  0.14680007071E+04  0.90956359841E+03 0.  0.
         23    2    4    4    0    0  0.39076919681E+03  0.24521271869E+03  0.42402607393E+02  0.47220929007E+03  0.91399069654E+02 0.  0.
         23    2    4    4    0    0 -0.36466482240E+03  0.75933838557E+03  0.52143759786E+03  0.99579141703E+03  0.10063876621E+03 0.  0.
          2    1    3    3  502    0 -0.37227636728E+02 -0.53618083606E+03  0.45455496065E+03  0.70391476625E+03  0.00000000000E+00 0. -1.
         -1    1    3    3    0  502  0.11123262326E+02 -0.46837026820E+03  0.31933085402E+03  0.56698027252E+03  0.00000000000E+00 0.  1.
         13    1    5    5    0    0  0.19808927458E+02  0.36777710923E+02 -0.11433417767E+02  0.43309544787E+02  0.00000000000E+00 0.  1.
        -13    1    5    5    0    0  0.37096026935E+03  0.20843500777E+03  0.53836025160E+02  0.42889974528E+03  0.00000000000E+00 0. -1.
          4    1    6    6  503    0 -0.25603422025E+03  0.42293067923E+03  0.31996139003E+03  0.58889657197E+03  0.00000000000E+00 0. -1.
         -4    1    6    6    0  503 -0.10863060215E+03  0.33640770634E+03  0.20147620784E+03  0.40689484506E+03  0.00000000000E+00 0.  1.
<mgrwt>
<rscale>  0 0.23899872E+04</rscale>
<asrwt>0</asrwt>
<pdfrwt beam="1">  1        2 0.10778229E+00 0.23899872E+04</pdfrwt>
<pdfrwt beam="2">  1       -1 0.31358629E+00 0.23899872E+04</pdfrwt>
<totfact> 0.11328955E+00</totfact>
</mgrwt>
</event>
<event>
12    7  0.1572140E-007  0.1626462E+04  0.7818608E-02  0.8804454E-01
          2   -1    0    0  501    0  0.00000000000E+00  0.00000000000E+00  0.78190335335E+03  0.78190335335E+03  0.00000000000E+00 0. -1.
         -1   -1    0    0    0  501 -0.00000000000E+00 -0.00000000000E+00 -0.84581381953E+03  0.84581381953E+03  0.00000000000E+00 0.  1.
         24    2    1    2    0    0  0.85753314514E+02  0.32320056295E+03 -0.47577582945E+03  0.58732726683E+03  0.82331304116E+02 0.  0.
        254    2    1    2    0    0 -0.85753314514E+02 -0.32320056295E+03  0.41186536327E+03  0.10403899060E+04  0.89496695151E+03 0.  0.
         23    2    4    4    0    0  0.20432691758E+03 -0.81366568070E+02  0.57240490839E+03  0.61989721609E+03  0.90857975505E+02 0.  0.
         23    2    4    4    0    0 -0.29008023210E+03 -0.24183399488E+03 -0.16053954513E+03  0.42049268995E+03  0.91711147757E+02 0.  0.
          2    1    3    3  502    0  0.38758972393E+01  0.28584857945E+01  0.28535745065E+01  0.55978931672E+01  0.00000000000E+00 0. -1.
         -1    1    3    3    0  502  0.81877417274E+02  0.32034207715E+03 -0.47862940396E+03  0.58172937367E+03  0.00000000000E+00 0.  1.
         13    1    5    5    0    0 -0.86940495965E+00  0.56012307824E+01  0.34309811792E-01  0.56684061626E+01  0.00000000000E+00 0.  1.
        -13    1    5    5    0    0  0.20519632254E+03 -0.86967798852E+02  0.57237059858E+03  0.61422880993E+03  0.00000000000E+00 0. -1.
          1    1    6    6  503    0 -0.51772948335E+02 -0.11692486313E+02 -0.17377039156E+01  0.53105291925E+02  0.00000000000E+00 0.  1.
         -1    1    6    6    0  503 -0.23830728376E+03 -0.23014150857E+03 -0.15880184121E+03  0.36738739803E+03  0.00000000000E+00 0. -1.
<mgrwt>
<rscale>  0 0.16264620E+04</rscale>
<asrwt>0</asrwt>
<pdfrwt beam="1">  1        2 0.12029282E+00 0.16264620E+04</pdfrwt>
<pdfrwt beam="2">  1       -1 0.13012520E+00 0.16264620E+04</pdfrwt>
<totfact> 0.19631502E+01</totfact>
</mgrwt>
</event>
<event>
12    7  0.1572140E-007  0.1051445E+04  0.7818608E-02  0.9253854E-01
         -3   -1    0    0    0  501 -0.00000000000E+00  0.00000000000E+00  0.15214370377E+03  0.15214370377E+03  0.00000000000E+00 0.  1.
          2   -1    0    0  501    0  0.00000000000E+00 -0.00000000000E+00 -0.18165979503E+04  0.18165979503E+04  0.00000000000E+00 0. -1.
         24    2    1    2    0    0  0.25538739207E+02  0.10814215051E+03 -0.14675125250E+03  0.20103763845E+03  0.80828522487E+02 0.  0.
        254    2    1    2    0    0 -0.25538739207E+02 -0.10814215051E+03 -0.15177029940E+04  0.17677040156E+04  0.89944880722E+03 0.  0.
         23    2    4    4    0    0  0.82158419030E+02 -0.26086317789E+03 -0.15327268683E+04  0.15595670946E+04  0.90544278151E+02 0.  0.
         23    2    4    4    0    0 -0.10769715824E+03  0.15272102738E+03  0.15023874252E+02  0.20813692105E+03  0.90403932491E+02 0.  0.
          4    1    3    3  502    0 -0.17198962091E+02  0.60816821087E+02 -0.11152316154E+03  0.12818699460E+03  0.00000000000E+00 0. -1.
         -3    1    3    3    0  502  0.42737701298E+02  0.47325329423E+02 -0.35228090954E+02  0.72850643850E+02  0.00000000000E+00 0.  1.
         13    1    5    5    0    0  0.29608039646E+02 -0.14447276845E+03 -0.10469084474E+04  0.10572446803E+04  0.00000000000E+00 0. -1.
        -13    1    5    5    0    0  0.52550379384E+02 -0.11639040944E+03 -0.48581842090E+03  0.50232241426E+03  0.00000000000E+00 0.  1.
          1    1    6    6  503    0 -0.16798495929E+02  0.54194154657E+02  0.43006044878E+02  0.71194913867E+02  0.00000000000E+00 0. -1.
         -1    1    6    6    0  503 -0.90898662308E+02  0.98526872723E+02 -0.27982170627E+02  0.13694200718E+03  0.00000000000E+00 0.  1.
<mgrwt>
<rscale>  0 0.10514446E+04</rscale>
<asrwt>0</asrwt>
<pdfrwt beam="1">  1        2 0.27947661E+00 0.10514446E+04</pdfrwt>
<pdfrwt beam="2">  1       -3 0.23406723E-01 0.10514446E+04</pdfrwt>
<totfact> 0.94039682E+01</totfact>
</mgrwt>
</event>
<event>
12    7  0.1572140E-007  0.1411842E+04  0.7818608E-02  0.8945291E-01
          2   -1    0    0  501    0  0.00000000000E+00  0.00000000000E+00  0.48958765557E+03  0.48958765557E+03  0.00000000000E+00 0. -1.
         -1   -1    0    0    0  501 -0.00000000000E+00 -0.00000000000E+00 -0.10178455220E+04  0.10178455220E+04  0.00000000000E+00 0.  1.
         24    2    1    2    0    0 -0.79088075277E+02  0.37683643251E+03 -0.30599631887E+03  0.50005299789E+03  0.90325151645E+02 0.  0.
        254    2    1    2    0    0  0.79088075277E+02 -0.37683643251E+03 -0.22226154752E+03  0.10073801796E+04  0.90396571302E+03 0.  0.
         23    2    4    4    0    0  0.36500768277E+03 -0.44432827479E+03  0.67534122796E+02  0.58623557396E+03  0.91940557822E+02 0.  0.
         23    2    4    4    0    0 -0.28591960749E+03  0.67491842284E+02 -0.28979567032E+03  0.42114460569E+03  0.84119424884E+02 0.  0.
          4    1    3    3  502    0 -0.20535601077E+02  0.12018667473E+02 -0.71716915687E+01  0.24851407191E+02  0.00000000000E+00 0. -1.
         -3    1    3    3    0  502 -0.58552474199E+02  0.36481776504E+03 -0.29882462730E+03  0.47520159070E+03  0.00000000000E+00 0.  1.
         13    1    5    5    0    0  0.18172302094E+02 -0.68720850037E+02  0.79947945980E+01  0.71531143804E+02  0.00000000000E+00 0. -1.
        -13    1    5    5    0    0  0.34683538067E+03 -0.37560742476E+03  0.59539328198E+02  0.51470443015E+03  0.00000000000E+00 0.  1.
          1    1    6    6  503    0 -0.16049678554E+03  0.66128406262E+02 -0.12436384598E+03  0.21353817100E+03  0.00000000000E+00 0. -1.
         -1    1    6    6    0  503 -0.12542282195E+03  0.13634360224E+01 -0.16543182433E+03  0.20760643469E+03  0.00000000000E+00 0.  1.
<mgrwt>
<rscale>  0 0.14118422E+04</rscale>
<asrwt>0</asrwt>
<pdfrwt beam="1">  1        2 0.75321177E-01 0.14118422E+04</pdfrwt>
<pdfrwt beam="2">  1       -1 0.15659162E+00 0.14118422E+04</pdfrwt>
<totfact> 0.21772759E+01</totfact>
</mgrwt>
</event>
<event>
12    7  0.1572140E-007  0.1501341E+04  0.7818608E-02  0.8883562E-01
         -1   -1    0    0    0  501 -0.00000000000E+00  0.00000000000E+00  0.32124727451E+03  0.32124727451E+03  0.00000000000E+00 0.  1.
          2   -1    0    0  501    0  0.00000000000E+00 -0.00000000000E+00 -0.17541197496E+04  0.17541197496E+04  0.00000000000E+00 0. -1.
         24    2    1    2    0    0 -0.74774765845E+02  0.51338473415E+02 -0.11014558299E+04  0.11083131022E+04  0.83223091093E+02 0.  0.
        254    2    1    2    0    0  0.74774765845E+02 -0.51338473415E+02 -0.33141664516E+03  0.96705392186E+03  0.90395209532E+03 0.  0.
         23    2    4    4    0    0  0.42858492128E+03  0.10042558476E+03  0.40322194917E+01  0.44843450575E+03  0.85480490922E+02 0.  0.
         23    2    4    4    0    0 -0.35381015544E+03 -0.15176405817E+03 -0.33544886465E+03  0.51861941611E+03  0.90698415264E+02 0.  0.
          4    1    3    3  502    0 -0.25255052532E+02  0.51548446769E+02 -0.85538588079E+03  0.85730978363E+03  0.00000000000E+00 0. -1.
         -3    1    3    3    0  502 -0.49519713312E+02 -0.20997335426E+00 -0.24606994910E+03  0.25100331859E+03  0.00000000000E+00 0.  1.
         13    1    5    5    0    0  0.66708670579E+02 -0.50015442030E+00 -0.25889748941E+02  0.71558199986E+02  0.00000000000E+00 0.  1.
        -13    1    5    5    0    0  0.36187625070E+03  0.10092573918E+03  0.29921968433E+02  0.37687630576E+03  0.00000000000E+00 0. -1.
          1    1    6    6  503    0 -0.21443119810E+03 -0.11361760352E+03 -0.15713631714E+03  0.28910468815E+03  0.00000000000E+00 0. -1.
         -1    1    6    6    0  503 -0.13937895734E+03 -0.38146454652E+02 -0.17831254751E+03  0.22951472796E+03  0.00000000000E+00 0.  1.
<mgrwt>
<rscale>  0 0.15013410E+04</rscale>
<asrwt>0</asrwt>
<pdfrwt beam="1">  1        2 0.26986458E+00 0.15013410E+04</pdfrwt>
<pdfrwt beam="2">  1       -1 0.49422657E-01 0.15013410E+04</pdfrwt>
<totfact> 0.41325938E+01</totfact>
</mgrwt>
</event>
<event>
12    7  0.1572140E-007  0.1159219E+04  0.7818608E-02  0.9149320E-01
          2   -1    0    0  501    0  0.00000000000E+00  0.00000000000E+00  0.45280946444E+03  0.45280946444E+03  0.00000000000E+00 0. -1.
         -1   -1    0    0    0  501 -0.00000000000E+00 -0.00000000000E+00 -0.74191779464E+03  0.74191779464E+03  0.00000000000E+00 0.  1.
         24    2    1    2    0    0 -0.12746019018E+03 -0.39147185070E+02  0.10842362090E+03  0.18972113048E+03  0.80373027833E+02 0.  0.
        254    2    1    2    0    0  0.12746019018E+03  0.39147185070E+02 -0.39753195110E+03  0.10050061286E+04  0.91336031455E+03 0.  0.
         23    2    4    4    0    0  0.33294192750E+02  0.12139452156E+03 -0.67223500175E+03  0.68895041440E+03  0.83112230098E+02 0.  0.
         23    2    4    4    0    0  0.94165997430E+02 -0.82247336488E+02  0.27470305065E+03  0.31605571420E+03  0.93795463692E+02 0.  0.
          2    1    3    3  502    0 -0.62412352623E+02 -0.20565736028E+02  0.10257494373E+03  0.12181900648E+03  0.00000000000E+00 0. -1.
         -3    1    3    3    0  502 -0.65047837557E+02 -0.18581449043E+02  0.58486771680E+01  0.67902124002E+02  0.00000000000E+00 0.  1.
         13    1    5    5    0    0  0.67472164977E+01  0.92386823496E+02 -0.59616161570E+03  0.60331544164E+03  0.00000000000E+00 0.  1.
        -13    1    5    5    0    0  0.26546976252E+02  0.29007698063E+02 -0.76073386051E+02  0.85634972765E+02  0.00000000000E+00 0. -1.
          4    1    6    6  503    0  0.18356827881E+02  0.75232992157E+01  0.30382647257E+01  0.20069982897E+02  0.00000000000E+00 0. -1.
         -4    1    6    6    0  503  0.75809169549E+02 -0.89770635704E+02  0.27166478593E+03  0.29598573130E+03  0.00000000000E+00 0.  1.
<mgrwt>
<rscale>  0 0.11592194E+04</rscale>
<asrwt>0</asrwt>
<pdfrwt beam="1">  1        2 0.69662994E-01 0.11592194E+04</pdfrwt>
<pdfrwt beam="2">  1       -1 0.11414120E+00 0.11592194E+04</pdfrwt>
<totfact> 0.54645343E+01</totfact>
</mgrwt>
</event>
<event>
12    7  0.1572140E-007  0.1725152E+04  0.7818608E-02  0.8747148E-01
          2   -1    0    0  501    0  0.00000000000E+00  0.00000000000E+00  0.15824301870E+04  0.15824301870E+04  0.00000000000E+00 0. -1.
         -1   -1    0    0    0  501 -0.00000000000E+00 -0.00000000000E+00 -0.47018660911E+03  0.47018660911E+03  0.00000000000E+00 0.  1.
         24    2    1    2    0    0  0.56698813886E+03 -0.22836127924E+03  0.25293562472E+03  0.66646105177E+03  0.81052327626E+02 0.  0.
        254    2    1    2    0    0 -0.56698813886E+03  0.22836127924E+03  0.85930795315E+03  0.13861557443E+04  0.89966280666E+03 0.  0.
         23    2    4    4    0    0  0.13138273720E+03  0.27635296606E+03  0.50193007172E+03  0.59473496466E+03  0.90241319847E+02 0.  0.
         23    2    4    4    0    0 -0.69837087606E+03 -0.47991686823E+02  0.35737788143E+03  0.79142077965E+03  0.92751376265E+02 0.  0.
          4    1    3    3  502    0  0.25802951484E+03 -0.65721224092E+02  0.12990853567E+03  0.29626801627E+03  0.00000000000E+00 0. -1.
         -1    1    3    3    0  502  0.30895862402E+03 -0.16264005514E+03  0.12302708905E+03  0.37019303550E+03  0.00000000000E+00 0.  1.
         13    1    5    5    0    0  0.14249159903E+03  0.23212471037E+03  0.44573031015E+03  0.52236122209E+03  0.00000000000E+00 0. -1.
        -13    1    5    5    0    0 -0.11108861835E+02  0.44228255692E+02  0.56199761572E+02  0.72373742569E+02  0.00000000000E+00 0.  1.
          3    1    6    6  503    0 -0.39580542785E+03  0.18307269340E+02  0.20901243636E+03  0.44797688710E+03  0.00000000000E+00 0. -1.
         -3    1    6    6    0  503 -0.30256544821E+03 -0.66298956163E+02  0.14836544507E+03  0.34344389255E+03  0.00000000000E+00 0.  1.
<mgrwt>
<rscale>  0 0.17251521E+04</rscale>
<asrwt>0</asrwt>
<pdfrwt beam="1">  1        2 0.24345080E+00 0.17251521E+04</pdfrwt>
<pdfrwt beam="2">  1       -1 0.72336402E-01 0.17251521E+04</pdfrwt>
<totfact> 0.23795559E+01</totfact>
</mgrwt>
</event>
<event>
12    7  0.1572140E-007  0.1867934E+04  0.7818608E-02  0.8670984E-01
         -1   -1    0    0    0  501 -0.00000000000E+00  0.00000000000E+00  0.62130475079E+03  0.62130475079E+03  0.00000000000E+00 0.  1.
          2   -1    0    0  501    0  0.00000000000E+00 -0.00000000000E+00 -0.14039723069E+04  0.14039723069E+04  0.00000000000E+00 0. -1.
         24    2    1    2    0    0  0.63866653044E+03  0.32543234348E+03 -0.26090552108E+03  0.76659400657E+03  0.76115259268E+02 0.  0.
        254    2    1    2    0    0 -0.63866653044E+03 -0.32543234348E+03 -0.52176203508E+03  0.12586830512E+04  0.89344627972E+03 0.  0.
         23    2    4    4    0    0 -0.43959220290E+03 -0.37711538623E+03  0.10082984375E+03  0.59566337189E+03  0.95869055652E+02 0.  0.
         23    2    4    4    0    0 -0.19907432754E+03  0.51683042755E+02 -0.62259187883E+03  0.66301967928E+03  0.98350001185E+02 0.  0.
          4    1    3    3  502    0  0.25780639483E+03  0.12287972133E+03 -0.65398632404E+02  0.29298557004E+03  0.00000000000E+00 0. -1.
         -3    1    3    3    0  502  0.38086013561E+03  0.20255262214E+03 -0.19550688868E+03  0.47360843653E+03  0.00000000000E+00 0.  1.
         13    1    5    5    0    0 -0.14982914702E+03 -0.16293798417E+03 -0.52355101069E+00  0.22135454386E+03  0.00000000000E+00 0.  1.
        -13    1    5    5    0    0 -0.28976305589E+03 -0.21417740206E+03  0.10135339476E+03  0.37430882803E+03  0.00000000000E+00 0. -1.
          4    1    6    6  503    0 -0.16631790154E+03  0.42410129203E+02 -0.59480834999E+03  0.61907773070E+03  0.00000000000E+00 0. -1.
         -4    1    6    6    0  503 -0.32756425997E+02  0.92729135518E+01 -0.27783528833E+02  0.43941948572E+02  0.00000000000E+00 0.  1.
<mgrwt>
<rscale>  0 0.18679343E+04</rscale>
<asrwt>0</asrwt>
<pdfrwt beam="1">  1        2 0.21599574E+00 0.18679343E+04</pdfrwt>
<pdfrwt beam="2">  1       -1 0.95585346E-01 0.18679343E+04</pdfrwt>
<totfact> 0.16268309E+01</totfact>
</mgrwt>
</event>
<event>
12    7  0.1572140E-007  0.1600316E+04  0.7818608E-02  0.8820354E-01
          2   -1    0    0  501    0  0.00000000000E+00  0.00000000000E+00  0.19148516815E+04  0.19148516815E+04  0.00000000000E+00 0. -1.
         -1   -1    0    0    0  501 -0.00000000000E+00 -0.00000000000E+00 -0.33436146398E+03  0.33436146398E+03  0.00000000000E+00 0.  1.
         24    2    1    2    0    0 -0.49857880770E+03  0.18343590118E+03  0.70004688085E+03  0.88245498530E+03  0.80197309019E+02 0.  0.
        254    2    1    2    0    0  0.49857880770E+03 -0.18343590118E+03  0.88044333669E+03  0.13667581602E+04  0.90034318014E+03 0.  0.
         23    2    4    4    0    0 -0.91153443769E+02  0.23847472993E+03  0.42982531383E+03  0.50786921624E+03  0.89454978975E+02 0.  0.
         23    2    4    4    0    0  0.58973225147E+03 -0.42191063112E+03  0.45061802286E+03  0.85888894396E+03  0.94026094588E+02 0.  0.
          2    1    3    3  502    0 -0.48640638830E+03  0.18711892298E+03  0.66315723202E+03  0.84343475165E+03  0.00000000000E+00 0. -1.
         -1    1    3    3    0  502 -0.12172419403E+02 -0.36830217959E+01  0.36889648831E+02  0.39020233656E+02  0.00000000000E+00 0.  1.
         13    1    5    5    0    0 -0.70270259776E+02  0.23297889442E+03  0.41683708432E+03  0.48266989705E+03  0.00000000000E+00 0.  1.
        -13    1    5    5    0    0 -0.20883183993E+02  0.54958355144E+01  0.12988229511E+02  0.25199319187E+02  0.00000000000E+00 0. -1.
          2    1    6    6  503    0  0.25934572298E+03 -0.14047369456E+03  0.14965995478E+03  0.33074335210E+03  0.00000000000E+00 0. -1.
         -2    1    6    6    0  503  0.33038652849E+03 -0.28143693655E+03  0.30095806808E+03  0.52814559187E+03  0.00000000000E+00 0.  1.
<mgrwt>
<rscale>  0 0.16003157E+04</rscale>
<asrwt>0</asrwt>
<pdfrwt beam="1">  1        2 0.29459256E+00 0.16003157E+04</pdfrwt>
<pdfrwt beam="2">  1       -1 0.51440226E-01 0.16003157E+04</pdfrwt>
<totfact> 0.30941766E+01</totfact>
</mgrwt>
</event>
<event>
12    7  0.1572140E-007  0.2381119E+04  0.7818608E-02  0.8446606E-01
         -1   -1    0    0    0  501 -0.00000000000E+00  0.00000000000E+00  0.77564482955E+03  0.77564482955E+03  0.00000000000E+00 0.  1.
          2   -1    0    0  501    0  0.00000000000E+00 -0.00000000000E+00 -0.18274241495E+04  0.18274241495E+04  0.00000000000E+00 0. -1.
         24    2    1    2    0    0  0.46521238742E+03 -0.58447625580E+03 -0.12079346659E+04  0.14230011552E+04  0.88267046742E+02 0.  0.
        254    2    1    2    0    0 -0.46521238742E+03  0.58447625580E+03  0.15615534598E+03  0.11800678238E+04  0.90007806205E+03 0.  0.
         23    2    4    4    0    0 -0.61890205907E+03  0.94869772389E+02  0.18094936100E+03  0.65791545559E+03  0.89833418221E+02 0.  0.
         23    2    4    4    0    0  0.15368967164E+03  0.48960648341E+03 -0.24794015022E+02  0.52215236825E+03  0.93238021874E+02 0.  0.
          2    1    3    3  502    0  0.35002929173E+03 -0.43220285989E+03 -0.96766559437E+03  0.11161077545E+04  0.00000000000E+00 0. -1.
         -1    1    3    3    0  502  0.11518309569E+03 -0.15227339590E+03 -0.24026907157E+03  0.30689340069E+03  0.00000000000E+00 0.  1.
         13    1    5    5    0    0 -0.41031825811E+03  0.42538783899E+02  0.15762335986E+03  0.44160587026E+03  0.00000000000E+00 0.  1.
        -13    1    5    5    0    0 -0.20858380095E+03  0.52330988490E+02  0.23326001147E+02  0.21630958533E+03  0.00000000000E+00 0. -1.
          3    1    6    6  503    0  0.72171293096E+02  0.17563853822E+03  0.32801906999E+02  0.19270069216E+03  0.00000000000E+00 0. -1.
         -3    1    6    6    0  503  0.81518378547E+02  0.31396794519E+03 -0.57595922021E+02  0.32945167610E+03  0.00000000000E+00 0.  1.
<mgrwt>
<rscale>  0 0.23811191E+04</rscale>
<asrwt>0</asrwt>
<pdfrwt beam="1">  1        2 0.28114218E+00 0.23811191E+04</pdfrwt>
<pdfrwt beam="2">  1       -1 0.11932997E+00 0.23811191E+04</pdfrwt>
<totfact> 0.53609156E+00</totfact>
</mgrwt>
</event>
<event>
12    7  0.1572140E-007  0.3324944E+04  0.7818608E-02  0.8156577E-01
          2   -1    0    0  501    0  0.00000000000E+00  0.00000000000E+00  0.27044330571E+04  0.27044330571E+04  0.00000000000E+00 0. -1.
         -1   -1    0    0    0  501 -0.00000000000E+00 -0.00000000000E+00 -0.10219563666E+04  0.10219563666E+04  0.00000000000E+00 0.  1.
         24    2    1    2    0    0  0.44586982336E+03  0.24912041647E+03  0.24160936753E+04  0.24707830634E+04  0.79996357917E+02 0.  0.
        254    2    1    2    0    0 -0.44586982336E+03 -0.24912041647E+03 -0.73361698482E+03  0.12556063603E+04  0.88175539148E+03 0.  0.
         23    2    4    4    0    0 -0.65920288501E+03 -0.18047702757E+03 -0.28553532306E+03  0.74639231406E+03  0.91927496939E+02 0.  0.
         23    2    4    4    0    0  0.21333306165E+03 -0.68643388903E+02 -0.44808166176E+03  0.50921404627E+03  0.91098075048E+02 0.  0.
          4    1    3    3  502    0  0.37433575410E+03  0.18976310187E+03  0.18414828097E+04  0.18887022609E+04  0.00000000000E+00 0. -1.
         -3    1    3    3    0  502  0.71534069261E+02  0.59357314605E+02  0.57461086556E+03  0.58208080254E+03  0.00000000000E+00 0.  1.
         13    1    5    5    0    0 -0.38272009978E+03 -0.58726504933E+02 -0.17156166083E+03  0.42350546705E+03  0.00000000000E+00 0.  1.
        -13    1    5    5    0    0 -0.27648278523E+03 -0.12175052263E+03 -0.11397366223E+03  0.32288684701E+03  0.00000000000E+00 0. -1.
          1    1    6    6  503    0  0.67405536841E+02  0.13322275935E+02 -0.18560684164E+03  0.19791636895E+03  0.00000000000E+00 0. -1.
         -1    1    6    6    0  503  0.14592752481E+03 -0.81965664838E+02 -0.26247482012E+03  0.31129767732E+03  0.00000000000E+00 0.  1.
<mgrwt>
<rscale>  0 0.33249437E+04</rscale>
<asrwt>0</asrwt>
<pdfrwt beam="1">  1        2 0.41606662E+00 0.33249437E+04</pdfrwt>
<pdfrwt beam="2">  1       -1 0.15722406E+00 0.33249437E+04</pdfrwt>
<totfact> 0.76659005E-01</totfact>
</mgrwt>
</event>
<event>
12    7  0.1572140E-007  0.1735382E+04  0.7818608E-02  0.8741438E-01
         -1   -1    0    0    0  501 -0.00000000000E+00  0.00000000000E+00  0.82885404985E+03  0.82885404985E+03  0.00000000000E+00 0.  1.
          2   -1    0    0  501    0  0.00000000000E+00 -0.00000000000E+00 -0.90834766180E+03  0.90834766180E+03  0.00000000000E+00 0. -1.
         24    2    1    2    0    0 -0.53008729301E+03 -0.11998116528E+03  0.29188849682E+03  0.62205970260E+03  0.79820804258E+02 0.  0.
        254    2    1    2    0    0  0.53008729301E+03  0.11998116528E+03 -0.37138210877E+03  0.11151420090E+04  0.90012721956E+03 0.  0.
         23    2    4    4    0    0  0.58798764832E+03  0.87315079504E+02 -0.60618547045E+03  0.85413195959E+03  0.93419388381E+02 0.  0.
         23    2    4    4    0    0 -0.57900355303E+02  0.32666085780E+02  0.23480336168E+03  0.26101004946E+03  0.92596452191E+02 0.  0.
          2    1    3    3  502    0 -0.21028440641E+02  0.44440502213E+01  0.28073519841E+02  0.35356292431E+02  0.00000000000E+00 0. -1.
         -1    1    3    3    0  502 -0.50905885237E+03 -0.12442521551E+03  0.26381497697E+03  0.58670341017E+03  0.00000000000E+00 0.  1.
         13    1    5    5    0    0  0.14360035593E+03 -0.18635315374E+02 -0.15203486234E+03  0.20995936886E+03  0.00000000000E+00 0. -1.
        -13    1    5    5    0    0  0.44438729239E+03  0.10595039488E+03 -0.45415060810E+03  0.64417259073E+03  0.00000000000E+00 0.  1.
          4    1    6    6  503    0 -0.51546212115E+02  0.61627177337E+02  0.13709831028E+03  0.15890521593E+03  0.00000000000E+00 0. -1.
         -4    1    6    6    0  503 -0.63541431887E+01 -0.28961091557E+02  0.97705051402E+02  0.10210483353E+03  0.00000000000E+00 0.  1.
<mgrwt>
<rscale>  0 0.17353820E+04</rscale>
<asrwt>0</asrwt>
<pdfrwt beam="1">  1        2 0.13974579E+00 0.17353820E+04</pdfrwt>
<pdfrwt beam="2">  1       -1 0.12751601E+00 0.17353820E+04</pdfrwt>
<totfact> 0.16689550E+01</totfact>
</mgrwt>
</event>
<event>
12    7  0.1572140E-007  0.1084847E+04  0.7818608E-02  0.9220088E-01
          2   -1    0    0  501    0  0.00000000000E+00  0.00000000000E+00  0.23504685827E+04  0.23504685827E+04  0.00000000000E+00 0. -1.
         -1   -1    0    0    0  501 -0.00000000000E+00 -0.00000000000E+00 -0.12517648708E+03  0.12517648708E+03  0.00000000000E+00 0.  1.
         24    2    1    2    0    0  0.73379284002E+02  0.10379996295E+03  0.16459321562E+03  0.22296150759E+03  0.80386289959E+02 0.  0.
        254    2    1    2    0    0 -0.73379284002E+02 -0.10379996295E+03  0.20606988800E+04  0.22526835622E+04  0.90107957785E+03 0.  0.
         23    2    4    4    0    0  0.11998034756E+02  0.17149031328E+03  0.27221095955E+02  0.19685578916E+03  0.91969197428E+02 0.  0.
         23    2    4    4    0    0 -0.85377318758E+02 -0.27529027622E+03  0.20334777841E+04  0.20558277730E+04  0.91224510622E+02 0.  0.
          2    1    3    3  502    0  0.28813715508E+02  0.90369949404E+02  0.14312861849E+03  0.17170544367E+03  0.00000000000E+00 0. -1.
         -3    1    3    3    0  502  0.44565568494E+02  0.13430013542E+02  0.21464597132E+02  0.51256063923E+02  0.00000000000E+00 0.  1.
         13    1    5    5    0    0  0.44073783641E+02  0.12734624084E+03  0.40470501008E+02  0.14070332232E+03  0.00000000000E+00 0.  1.
        -13    1    5    5    0    0 -0.32075748885E+02  0.44144072434E+02 -0.13249405053E+02  0.56152466837E+02  0.00000000000E+00 0. -1.
          1    1    6    6  503    0 -0.64240147753E+02 -0.18442902371E+03  0.16325576413E+04  0.16441974679E+04  0.00000000000E+00 0. -1.
         -1    1    6    6    0  503 -0.21137171005E+02 -0.90861252510E+02  0.40092014280E+03  0.41163030514E+03  0.00000000000E+00 0.  1.
<mgrwt>
<rscale>  0 0.10848473E+04</rscale>
<asrwt>0</asrwt>
<pdfrwt beam="1">  1        2 0.36161052E+00 0.10848473E+04</pdfrwt>
<pdfrwt beam="2">  1       -1 0.19257923E-01 0.10848473E+04</pdfrwt>
<totfact> 0.10538544E+02</totfact>
</mgrwt>
</event>
<event>
12    7  0.1572140E-007  0.2588684E+04  0.7818608E-02  0.8372055E-01
          2   -1    0    0  501    0  0.00000000000E+00  0.00000000000E+00  0.18978903295E+04  0.18978903295E+04  0.00000000000E+00 0. -1.
         -1   -1    0    0    0  501 -0.00000000000E+00 -0.00000000000E+00 -0.88272788510E+03  0.88272788510E+03  0.00000000000E+00 0.  1.
         24    2    1    2    0    0  0.36381969732E+03 -0.63993889309E+03  0.13763876481E+04  0.15627450824E+04  0.76437397137E+02 0.  0.
        254    2    1    2    0    0 -0.36381969732E+03  0.63993889309E+03 -0.36122520371E+03  0.12178731322E+04  0.90046918841E+03 0.  0.
         23    2    4    4    0    0 -0.39900661869E+03 -0.51094777889E+02  0.37157868903E+02  0.41440000822E+03  0.92356383115E+02 0.  0.
         23    2    4    4    0    0  0.35186921377E+02  0.69103367097E+03 -0.39838307262E+03  0.80347312397E+03  0.89968519740E+02 0.  0.
          2    1    3    3  502    0  0.32927386376E+03 -0.53711923984E+03  0.12086075230E+04  0.13629565289E+04  0.00000000000E+00 0. -1.
         -1    1    3    3    0  502  0.34545833552E+02 -0.10281965324E+03  0.16778012509E+03  0.19978855344E+03  0.00000000000E+00 0.  1.
         13    1    5    5    0    0 -0.28092262198E+03 -0.65476757902E+02  0.56350933371E+02  0.29390500686E+03  0.00000000000E+00 0. -1.
        -13    1    5    5    0    0 -0.11808399671E+03  0.14381980013E+02 -0.19193064468E+02  0.12049500136E+03  0.00000000000E+00 0.  1.
          2    1    6    6  503    0  0.60518713968E+01  0.56209157008E+03 -0.28995635605E+03  0.63250157843E+03  0.00000000000E+00 0. -1.
         -2    1    6    6    0  503  0.29135049980E+02  0.12894210090E+03 -0.10842671656E+03  0.17097154554E+03  0.00000000000E+00 0.  1.
<mgrwt>
<rscale>  0 0.25886836E+04</rscale>
<asrwt>0</asrwt>
<pdfrwt beam="1">  1        2 0.29198313E+00 0.25886836E+04</pdfrwt>
<pdfrwt beam="2">  1       -1 0.13580429E+00 0.25886836E+04</pdfrwt>
<totfact> 0.34802748E+00</totfact>
</mgrwt>
</event>
<event>
12    7  0.1572140E-007  0.2959869E+04  0.7818608E-02  0.8255284E-01
         -1   -1    0    0    0  501 -0.00000000000E+00  0.00000000000E+00  0.84978867892E+03  0.84978867892E+03  0.00000000000E+00 0.  1.
          2   -1    0    0  501    0  0.00000000000E+00 -0.00000000000E+00 -0.25773531675E+04  0.25773531675E+04  0.00000000000E+00 0. -1.
         24    2    1    2    0    0 -0.85691403180E+03 -0.10220371552E+04 -0.95850348060E+03  0.16443701443E+04  0.79766187041E+02 0.  0.
        254    2    1    2    0    0  0.85691403180E+03  0.10220371552E+04 -0.76906100795E+03  0.17827717021E+04  0.89886511969E+03 0.  0.
         23    2    4    4    0    0 -0.17212301213E+03  0.16104435453E+03 -0.55170604789E+02  0.26021984654E+03  0.95440858496E+02 0.  0.
         23    2    4    4    0    0  0.10290370439E+04  0.86099280066E+03 -0.71389040316E+03  0.15225518556E+04  0.91097774903E+02 0.  0.
          2    1    3    3  502    0 -0.63859746994E+03 -0.73030437211E+03 -0.66022246283E+03  0.11734755664E+04  0.00000000000E+00 0. -1.
         -1    1    3    3    0  502 -0.21831656186E+03 -0.29173278308E+03 -0.29828101777E+03  0.47089457787E+03  0.00000000000E+00 0.  1.
         13    1    5    5    0    0 -0.18109125563E+03  0.16093725452E+03 -0.60601770659E+02  0.24973469396E+03  0.00000000000E+00 0.  1.
        -13    1    5    5    0    0  0.89682435030E+01  0.10710000585E+00  0.54311658701E+01  0.10485152581E+02  0.00000000000E+00 0. -1.
          4    1    6    6  503    0  0.74502195453E+02  0.62115077792E+02 -0.26135324251E+02  0.10045852473E+03  0.00000000000E+00 0. -1.
         -4    1    6    6    0  503  0.95453484847E+03  0.79887772287E+03 -0.68775507891E+03  0.14220933308E+04  0.00000000000E+00 0.  1.
<mgrwt>
<rscale>  0 0.29598686E+04</rscale>
<asrwt>0</asrwt>
<pdfrwt beam="1">  1        2 0.39651588E+00 0.29598686E+04</pdfrwt>
<pdfrwt beam="2">  1       -1 0.13073672E+00 0.29598686E+04</pdfrwt>
<totfact> 0.15308228E+00</totfact>
</mgrwt>
</event>
<event>
12    7  0.1572140E-007  0.1554564E+04  0.7818608E-02  0.8848958E-01
          2   -1    0    0  501    0  0.00000000000E+00  0.00000000000E+00  0.64769191204E+03  0.64769191204E+03  0.00000000000E+00 0. -1.
         -1   -1    0    0    0  501 -0.00000000000E+00 -0.00000000000E+00 -0.93280009665E+03  0.93280009665E+03  0.00000000000E+00 0.  1.
         24    2    1    2    0    0 -0.20594652423E+03  0.24121368780E+03 -0.50637790626E+03  0.60240827478E+03  0.76675495080E+02 0.  0.
        254    2    1    2    0    0  0.20594652423E+03 -0.24121368780E+03  0.22126972165E+03  0.97808373391E+03  0.89838159309E+03 0.  0.
         23    2    4    4    0    0  0.88198672429E+02 -0.52729343343E+01 -0.33375109994E+03  0.35703024375E+03  0.90961467589E+02 0.  0.
         23    2    4    4    0    0  0.11774785180E+03 -0.23594075346E+03  0.55502082159E+03  0.62105349017E+03  0.90148374943E+02 0.  0.
          4    1    3    3  502    0 -0.26989289539E+02  0.64182354766E+02 -0.15743906605E+03  0.17214777353E+03  0.00000000000E+00 0. -1.
         -3    1    3    3    0  502 -0.17895723469E+03  0.17703133303E+03 -0.34893884021E+03  0.43026050125E+03  0.00000000000E+00 0.  1.
         13    1    5    5    0    0  0.45212410123E+02  0.42689866053E+01 -0.29469112697E+03  0.29816982843E+03  0.00000000000E+00 0. -1.
        -13    1    5    5    0    0  0.42986262306E+02 -0.95419209396E+01 -0.39059972970E+02  0.58860415312E+02  0.00000000000E+00 0.  1.
          1    1    6    6  503    0  0.12061546005E+03 -0.17224964257E+03  0.37300689232E+03  0.42819641554E+03  0.00000000000E+00 0. -1.
         -1    1    6    6    0  503 -0.28676082496E+01 -0.63691110896E+02  0.18201392927E+03  0.19285707462E+03  0.00000000000E+00 0.  1.
<mgrwt>
<rscale>  0 0.15545637E+04</rscale>
<asrwt>0</asrwt>
<pdfrwt beam="1">  1        2 0.99644910E-01 0.15545637E+04</pdfrwt>
<pdfrwt beam="2">  1       -1 0.14350771E+00 0.15545637E+04</pdfrwt>
<totfact> 0.19497817E+01</totfact>
</mgrwt>
</event>
<event>
12    7  0.1572140E-007  0.2931254E+04  0.7818608E-02  0.8263639E-01
         -1   -1    0    0    0  501 -0.00000000000E+00  0.00000000000E+00  0.11464322445E+04  0.11464322445E+04  0.00000000000E+00 0.  1.
          2   -1    0    0  501    0  0.00000000000E+00 -0.00000000000E+00 -0.18736930231E+04  0.18736930231E+04  0.00000000000E+00 0. -1.
         24    2    1    2    0    0 -0.64850685641E+03 -0.50783801390E+03  0.74258096460E+03  0.11117617453E+04  0.78275783135E+02 0.  0.
        254    2    1    2    0    0  0.64850685641E+03  0.50783801390E+03 -0.14698417432E+04  0.19083635223E+04  0.89607811723E+03 0.  0.
         23    2    4    4    0    0  0.69860937957E+03  0.43389699545E+03 -0.58196245562E+03  0.10114629328E+04  0.89751305320E+02 0.  0.
         23    2    4    4    0    0 -0.50102523159E+02  0.73941018446E+02 -0.88787928755E+03  0.89690058951E+03  0.90130467457E+02 0.  0.
          4    1    3    3  502    0 -0.28444237931E+03 -0.25579051258E+03  0.38341400126E+03  0.54161106879E+03  0.00000000000E+00 0. -1.
         -3    1    3    3    0  502 -0.36406447710E+03 -0.25204750132E+03  0.35916696335E+03  0.57015067655E+03  0.00000000000E+00 0.  1.
         13    1    5    5    0    0  0.54509708118E+03  0.37404112560E+03 -0.44161172526E+03  0.79502107358E+03  0.00000000000E+00 0.  1.
        -13    1    5    5    0    0  0.15351229839E+03  0.59855869852E+02 -0.14035073036E+03  0.21644185922E+03  0.00000000000E+00 0. -1.
          1    1    6    6  503    0 -0.79097383576E+01  0.58123865418E+02 -0.22597968280E+03  0.23346898024E+03  0.00000000000E+00 0. -1.
         -1    1    6    6    0  503 -0.42192784801E+02  0.15817153029E+02 -0.66189960475E+03  0.66343160928E+03  0.00000000000E+00 0.  1.
<mgrwt>
<rscale>  0 0.29312537E+04</rscale>
<asrwt>0</asrwt>
<pdfrwt beam="1">  1        2 0.28826046E+00 0.29312537E+04</pdfrwt>
<pdfrwt beam="2">  1       -1 0.17637419E+00 0.29312537E+04</pdfrwt>
<totfact> 0.17003962E+00</totfact>
</mgrwt>
</event>
<event>
12    7  0.1572140E-007  0.2250190E+04  0.7818608E-02  0.8497824E-01
          2   -1    0    0  501    0  0.00000000000E+00  0.00000000000E+00  0.18428732452E+04  0.18428732452E+04  0.00000000000E+00 0. -1.
         -1   -1    0    0    0  501 -0.00000000000E+00 -0.00000000000E+00 -0.68688304958E+03  0.68688304958E+03  0.00000000000E+00 0.  1.
         24    2    1    2    0    0  0.14727926365E+03 -0.61227996737E+03 -0.30391548775E+03  0.70338987374E+03  0.76254513638E+02 0.  0.
        254    2    1    2    0    0 -0.14727926365E+03  0.61227996737E+03  0.14599056833E+04  0.18263664210E+04  0.89872785627E+03 0.  0.
         23    2    4    4    0    0 -0.25755153361E+03  0.37291204295E+03  0.15101987952E+03  0.48752362657E+03  0.97345252653E+02 0.  0.
         23    2    4    4    0    0  0.11027226996E+03  0.23936792441E+03  0.13088858038E+04  0.13388427944E+04  0.99302588279E+02 0.  0.
          4    1    3    3  502    0  0.66243567945E+02 -0.14868035639E+03 -0.61535776272E+02  0.17401353520E+03  0.00000000000E+00 0. -1.
         -1    1    3    3    0  502  0.81035695702E+02 -0.46359961098E+03 -0.24237971148E+03  0.52937633854E+03  0.00000000000E+00 0.  1.
         13    1    5    5    0    0 -0.23352035538E+03  0.31476139933E+03  0.94993800072E+02  0.40327449329E+03  0.00000000000E+00 0.  1.
        -13    1    5    5    0    0 -0.24031178225E+02  0.58150643627E+02  0.56026079450E+02  0.84249133288E+02  0.00000000000E+00 0. -1.
          2    1    6    6  503    0  0.68368100197E+02  0.81896468562E+02  0.33983387939E+03  0.35618575809E+03  0.00000000000E+00 0. -1.
         -2    1    6    6    0  503  0.41904169763E+02  0.15747145585E+03  0.96905192443E+03  0.98265703635E+03  0.00000000000E+00 0.  1.
<mgrwt>
<rscale>  0 0.22501897E+04</rscale>
<asrwt>0</asrwt>
<pdfrwt beam="1">  1        2 0.28351896E+00 0.22501897E+04</pdfrwt>
<pdfrwt beam="2">  1       -1 0.10567432E+00 0.22501897E+04</pdfrwt>
<totfact> 0.70997179E+00</totfact>
</mgrwt>
</event>
<event>
12    7  0.1572140E-007  0.2288663E+04  0.7818608E-02  0.8482405E-01
         -1   -1    0    0    0  501 -0.00000000000E+00  0.00000000000E+00  0.51098256385E+03  0.51098256385E+03  0.00000000000E+00 0.  1.
          2   -1    0    0  501    0  0.00000000000E+00 -0.00000000000E+00 -0.25626988419E+04  0.25626988419E+04  0.00000000000E+00 0. -1.
         24    2    1    2    0    0 -0.21606509861E+02 -0.87970041271E+03 -0.14020136152E+04  0.16570926560E+04  0.77293181852E+02 0.  0.
        254    2    1    2    0    0  0.21606509861E+02  0.87970041271E+03 -0.64970266286E+03  0.14165887498E+04  0.90015025326E+03 0.  0.
         23    2    4    4    0    0  0.15797097817E+03  0.10050522285E+04 -0.40932157102E+03  0.11003698421E+04  0.90470044450E+02 0.  0.
         23    2    4    4    0    0 -0.13636446831E+03 -0.12535181579E+03 -0.24038109184E+03  0.31621890767E+03  0.88898719433E+02 0.  0.
          4    1    3    3  502    0  0.12840330147E+01 -0.74134061049E+03 -0.12154999241E+04  0.14237372001E+04  0.00000000000E+00 0. -1.
         -3    1    3    3    0  502 -0.22890542876E+02 -0.13835980222E+03 -0.18651369116E+03  0.23335545593E+03  0.00000000000E+00 0.  1.
         13    1    5    5    0    0  0.70843976836E+02  0.58279466979E+03 -0.27860248668E+03  0.64983678087E+03  0.00000000000E+00 0. -1.
        -13    1    5    5    0    0  0.87127001333E+02  0.42225755870E+03 -0.13071908434E+03  0.45053306122E+03  0.00000000000E+00 0.  1.
          1    1    6    6  503    0 -0.96498449030E+02 -0.84937354285E+02 -0.94116771602E+02  0.15932442222E+03  0.00000000000E+00 0. -1.
         -1    1    6    6    0  503 -0.39866019278E+02 -0.40414461502E+02 -0.14626432023E+03  0.15689448545E+03  0.00000000000E+00 0.  1.
<mgrwt>
<rscale>  0 0.22886629E+04</rscale>
<asrwt>0</asrwt>
<pdfrwt beam="1">  1        2 0.39426136E+00 0.22886629E+04</pdfrwt>
<pdfrwt beam="2">  1       -1 0.78612703E-01 0.22886629E+04</pdfrwt>
<totfact> 0.53501041E+00</totfact>
</mgrwt>
</event>
<event>
12    7  0.1572140E-007  0.1993240E+04  0.7818608E-02  0.8609788E-01
          2   -1    0    0  501    0  0.00000000000E+00  0.00000000000E+00  0.16904252981E+04  0.16904252981E+04  0.00000000000E+00 0. -1.
         -1   -1    0    0    0  501 -0.00000000000E+00 -0.00000000000E+00 -0.58757461848E+03  0.58757461848E+03  0.00000000000E+00 0.  1.
         24    2    1    2    0    0 -0.24046566534E+03 -0.56081966714E+03  0.10087087589E+04  0.11815732240E+04  0.79243220765E+02 0.  0.
        254    2    1    2    0    0  0.24046566534E+03  0.56081966714E+03  0.94141920716E+02  0.10964266926E+04  0.90606090070E+03 0.  0.
         23    2    4    4    0    0  0.57327577269E+02  0.26805084070E+03  0.48788918313E+03  0.56513288729E+03  0.78750371225E+02 0.  0.
         23    2    4    4    0    0  0.18313808807E+03  0.29276882645E+03 -0.39374726241E+03  0.53129380532E+03  0.89347948355E+02 0.  0.
          2    1    3    3  502    0 -0.24265843835E+03 -0.54681380485E+03  0.96276800317E+03  0.11334948976E+04  0.00000000000E+00 0. -1.
         -3    1    3    3    0  502  0.21927730058E+01 -0.14005862298E+02  0.45940755745E+02  0.48078326412E+02  0.00000000000E+00 0.  1.
         13    1    5    5    0    0  0.30178390467E+02  0.23038354812E+03  0.35419393623E+03  0.42360436607E+03  0.00000000000E+00 0.  1.
        -13    1    5    5    0    0  0.27149186803E+02  0.37667292582E+02  0.13369524690E+03  0.14152852122E+03  0.00000000000E+00 0. -1.
          1    1    6    6  503    0  0.26352602718E+01  0.68743388530E+02 -0.68888789825E+02  0.97356373324E+02  0.00000000000E+00 0. -1.
         -1    1    6    6    0  503  0.18050282780E+03  0.22402543792E+03 -0.32485847259E+03  0.43393743200E+03  0.00000000000E+00 0.  1.
<mgrwt>
<rscale>  0 0.19932396E+04</rscale>
<asrwt>0</asrwt>
<pdfrwt beam="1">  1        2 0.26006543E+00 0.19932396E+04</pdfrwt>
<pdfrwt beam="2">  1       -1 0.90396095E-01 0.19932396E+04</pdfrwt>
<totfact> 0.12573989E+01</totfact>
</mgrwt>
</event>
<event>
12    7  0.1572140E-007  0.1474185E+04  0.7818608E-02  0.8901803E-01
         -1   -1    0    0    0  501 -0.00000000000E+00  0.00000000000E+00  0.14944907664E+03  0.14944907664E+03  0.00000000000E+00 0.  1.
          2   -1    0    0  501    0  0.00000000000E+00 -0.00000000000E+00 -0.36353899562E+04  0.36353899562E+04  0.00000000000E+00 0. -1.
         24    2    1    2    0    0  0.26663771797E+03 -0.14235480480E+03 -0.21418983444E+03  0.37845656942E+03  0.77404952442E+02 0.  0.
        254    2    1    2    0    0 -0.26663771797E+03  0.14235480480E+03 -0.32717510451E+04  0.34063824634E+04  0.89873579141E+03 0.  0.
         23    2    4    4    0    0 -0.64337587807E+02  0.29910566000E+03 -0.30168017737E+04  0.30336446271E+04  0.91122227958E+02 0.  0.
         23    2    4    4    0    0 -0.20230013017E+03 -0.15675085520E+03 -0.25494927139E+03  0.37273783634E+03  0.91859623254E+02 0.  0.
          2    1    3    3  502    0  0.11999929606E+01 -0.13229344842E+02 -0.23640117687E+02  0.27116613216E+02  0.00000000000E+00 0. -1.
         -1    1    3    3    0  502  0.26543772501E+03 -0.12912545996E+03 -0.19054971675E+03  0.35133995620E+03  0.00000000000E+00 0.  1.
         13    1    5    5    0    0 -0.63411003515E+02  0.92833165335E+02 -0.98210973338E+03  0.98852338382E+03  0.00000000000E+00 0. -1.
        -13    1    5    5    0    0 -0.92658429153E+00  0.20627249467E+03 -0.20346920403E+04  0.20451212432E+04  0.00000000000E+00 0.  1.
          4    1    6    6  503    0 -0.10315422200E+03 -0.10866909194E+03 -0.91328338843E+02  0.17547259198E+03  0.00000000000E+00 0. -1.
         -4    1    6    6    0  503 -0.99145908165E+02 -0.48081763256E+02 -0.16362093255E+03  0.19726524436E+03  0.00000000000E+00 0.  1.
<mgrwt>
<rscale>  0 0.14741854E+04</rscale>
<asrwt>0</asrwt>
<pdfrwt beam="1">  1        2 0.55929077E+00 0.14741854E+04</pdfrwt>
<pdfrwt beam="2">  1       -1 0.22992165E-01 0.14741854E+04</pdfrwt>
<totfact> 0.11800471E+01</totfact>
</mgrwt>
</event>
<event>
12    7  0.1572140E-007  0.1370210E+04  0.7818608E-02  0.8975669E-01
          2   -1    0    0  501    0  0.00000000000E+00  0.00000000000E+00  0.19952492011E+04  0.19952492011E+04  0.00000000000E+00 0. -1.
         -1   -1    0    0    0  501 -0.00000000000E+00 -0.00000000000E+00 -0.23524331005E+03  0.23524331005E+03  0.00000000000E+00 0.  1.
         24    2    1    2    0    0 -0.41964964006E+02 -0.22568357718E+02 -0.12261928291E+03  0.15371824726E+03  0.79519947346E+02 0.  0.
        254    2    1    2    0    0  0.41964964006E+02  0.22568357718E+02  0.18826251739E+04  0.20767742639E+04  0.87546753713E+03 0.  0.
         23    2    4    4    0    0  0.16167453076E+03 -0.35745969251E+03  0.54360447304E+03  0.67705908015E+03  0.94800259697E+02 0.  0.
         23    2    4    4    0    0 -0.11970956676E+03  0.38002805023E+03  0.13390207009E+04  0.13997151837E+04  0.86454952282E+02 0.  0.
          2    1    3    3  502    0  0.20369128627E+02 -0.18815143355E+02 -0.22449818403E+02  0.35677799355E+02  0.00000000000E+00 0. -1.
         -1    1    3    3    0  502 -0.62334092634E+02 -0.37532143632E+01 -0.10016946450E+03  0.11804044791E+03  0.00000000000E+00 0.  1.
         13    1    5    5    0    0  0.39601113462E+02 -0.83618959265E+02  0.67933988303E+02  0.11478416835E+03  0.00000000000E+00 0.  1.
        -13    1    5    5    0    0  0.12207341730E+03 -0.27384073325E+03  0.47567048474E+03  0.56227491181E+03  0.00000000000E+00 0. -1.
          4    1    6    6  503    0 -0.11977168879E+03  0.38129889593E+03  0.12858771702E+04  0.13465564238E+04  0.00000000000E+00 0. -1.
         -4    1    6    6    0  503  0.62122035437E-01 -0.12708456994E+01  0.53143530671E+02  0.53158759957E+02  0.00000000000E+00 0.  1.
<mgrwt>
<rscale>  0 0.13702102E+04</rscale>
<asrwt>0</asrwt>
<pdfrwt beam="1">  1        2 0.30696140E+00 0.13702102E+04</pdfrwt>
<pdfrwt beam="2">  1       -1 0.36191280E-01 0.13702102E+04</pdfrwt>
<totfact> 0.54604363E+01</totfact>
</mgrwt>
</event>
<event>
12    7  0.1572140E-007  0.2475787E+04  0.7818608E-02  0.8411663E-01
         -1   -1    0    0    0  501 -0.00000000000E+00  0.00000000000E+00  0.84396531573E+03  0.84396531573E+03  0.00000000000E+00 0.  1.
          2   -1    0    0  501    0  0.00000000000E+00 -0.00000000000E+00 -0.18156908273E+04  0.18156908273E+04  0.00000000000E+00 0. -1.
         24    2    1    2    0    0 -0.33686972497E+03 -0.71913175016E+03  0.35353587570E+03  0.87310699094E+03  0.81832246229E+02 0.  0.
        254    2    1    2    0    0  0.33686972497E+03  0.71913175016E+03 -0.13252613872E+04  0.17865491520E+04  0.89711116507E+03 0.  0.
         23    2    4    4    0    0  0.48881975884E+03  0.16323814106E+03 -0.97452044155E+03  0.11060635636E+04  0.89972597729E+02 0.  0.
         23    2    4    4    0    0 -0.15195003387E+03  0.55589360911E+03 -0.35074094567E+03  0.68048558846E+03  0.89078098866E+02 0.  0.
          2    1    3    3  502    0 -0.19937073716E+02 -0.97822174245E+02  0.29980337637E+02  0.10423763873E+03  0.00000000000E+00 0. -1.
         -1    1    3    3    0  502 -0.31693265125E+03 -0.62130957592E+03  0.32355553806E+03  0.76886935221E+03  0.00000000000E+00 0.  1.
         13    1    5    5    0    0  0.37654353119E+02  0.29171490683E+02 -0.14113055441E+03  0.14895186996E+03  0.00000000000E+00 0. -1.
        -13    1    5    5    0    0  0.45116540572E+03  0.13406665037E+03 -0.83338988714E+03  0.95711169361E+03  0.00000000000E+00 0.  1.
          1    1    6    6  503    0 -0.21019898209E+02  0.13614625295E+02 -0.11347784818E+02  0.27494842479E+02  0.00000000000E+00 0. -1.
         -1    1    6    6    0  503 -0.13093013566E+03  0.54227898381E+03 -0.33939316085E+03  0.65299074598E+03  0.00000000000E+00 0.  1.
<mgrwt>
<rscale>  0 0.24757868E+04</rscale>
<asrwt>0</asrwt>
<pdfrwt beam="1">  1        2 0.27933705E+00 0.24757868E+04</pdfrwt>
<pdfrwt beam="2">  1       -1 0.12984082E+00 0.24757868E+04</pdfrwt>
<totfact> 0.43765221E+00</totfact>
</mgrwt>
</event>
<event>
12    7  0.1572140E-007  0.2000113E+04  0.7818608E-02  0.8606568E-01
          2   -1    0    0  501    0  0.00000000000E+00  0.00000000000E+00  0.12152478659E+04  0.12152478659E+04  0.00000000000E+00 0. -1.
         -1   -1    0    0    0  501 -0.00000000000E+00 -0.00000000000E+00 -0.82297026688E+03  0.82297026688E+03  0.00000000000E+00 0.  1.
         24    2    1    2    0    0  0.28610904361E+03 -0.48843854691E+02  0.91151382728E+03  0.95986427354E+03  0.78980119761E+02 0.  0.
        254    2    1    2    0    0 -0.28610904361E+03  0.48843854691E+02 -0.51923622830E+03  0.10783538592E+04  0.89944242611E+03 0.  0.
         23    2    4    4    0    0 -0.44033657297E+03 -0.27950873616E+03 -0.45356932501E+03  0.69844651384E+03  0.10040402889E+03 0.  0.
         23    2    4    4    0    0  0.15422752936E+03  0.32835259085E+03 -0.65666903294E+02  0.37990734536E+03  0.91738182587E+02 0.  0.
          4    1    3    3  502    0  0.16983181096E+03 -0.51568891426E+02  0.64710868645E+03  0.67100808241E+03  0.00000000000E+00 0. -1.
         -3    1    3    3    0  502  0.11627723265E+03  0.27250367354E+01  0.26440514083E+03  0.28885619113E+03  0.00000000000E+00 0.  1.
         13    1    5    5    0    0 -0.36745172090E+03 -0.27164350449E+03 -0.40412090460E+03  0.61002021791E+03  0.00000000000E+00 0.  1.
        -13    1    5    5    0    0 -0.72884852068E+02 -0.78652316687E+01 -0.49448420410E+02  0.88426295926E+02  0.00000000000E+00 0. -1.
          2    1    6    6  503    0  0.59609464562E+02  0.18010762468E+03  0.64575418951E+01  0.18982556356E+03  0.00000000000E+00 0.  1.
         -2    1    6    6    0  503  0.94618064800E+02  0.14824496617E+03 -0.72124445189E+02  0.19008178181E+03  0.00000000000E+00 0. -1.
<mgrwt>
<rscale>  0 0.20001129E+04</rscale>
<asrwt>0</asrwt>
<pdfrwt beam="1">  1        2 0.18696121E+00 0.20001129E+04</pdfrwt>
<pdfrwt beam="2">  1       -1 0.12661081E+00 0.20001129E+04</pdfrwt>
<totfact> 0.10649399E+01</totfact>
</mgrwt>
</event>
<event>
12    7  0.1572140E-007  0.1863909E+04  0.7818608E-02  0.8673033E-01
         -1   -1    0    0    0  501 -0.00000000000E+00  0.00000000000E+00  0.55343100622E+03  0.55343100622E+03  0.00000000000E+00 0.  1.
          2   -1    0    0  501    0  0.00000000000E+00 -0.00000000000E+00 -0.15693724524E+04  0.15693724524E+04  0.00000000000E+00 0. -1.
         24    2    1    2    0    0 -0.58121693482E+03 -0.17784430767E+03 -0.81955880337E+03  0.10235408024E+04  0.80730532417E+02 0.  0.
        254    2    1    2    0    0  0.58121693482E+03  0.17784430767E+03 -0.19638264285E+03  0.10992626563E+04  0.89463429510E+03 0.  0.
         23    2    4    4    0    0  0.37723521796E+03  0.51106678695E+03  0.21965160825E+02  0.64244226008E+03  0.93562379476E+02 0.  0.
         23    2    4    4    0    0  0.20398171686E+03 -0.33322247928E+03 -0.21834780367E+03  0.45682039619E+03  0.91451350447E+02 0.  0.
          4    1    3    3  502    0 -0.51530697260E+03 -0.15777174937E+03 -0.67789459708E+03  0.86601055748E+03  0.00000000000E+00 0. -1.
         -3    1    3    3    0  502 -0.65909962225E+02 -0.20072558306E+02 -0.14166420628E+03  0.15753024490E+03  0.00000000000E+00 0.  1.
         13    1    5    5    0    0  0.92240198086E+02  0.17436910845E+03  0.38615328899E+02  0.20100742213E+03  0.00000000000E+00 0. -1.
        -13    1    5    5    0    0  0.28499501987E+03  0.33669767850E+03 -0.16650168075E+02  0.44143483795E+03  0.00000000000E+00 0.  1.
          2    1    6    6  503    0  0.11772645419E+03 -0.14542902871E+03 -0.14784900150E+03  0.23847106250E+03  0.00000000000E+00 0. -1.
         -2    1    6    6    0  503  0.86255262671E+02 -0.18779345057E+03 -0.70498802177E+02  0.21834933369E+03  0.00000000000E+00 0.  1.
<mgrwt>
<rscale>  0 0.18639092E+04</rscale>
<asrwt>0</asrwt>
<pdfrwt beam="1">  1        2 0.24144192E+00 0.18639092E+04</pdfrwt>
<pdfrwt beam="2">  1       -1 0.85143231E-01 0.18639092E+04</pdfrwt>
<totfact> 0.16934797E+01</totfact>
</mgrwt>
</event>
<event>
12    7  0.1572140E-007  0.2640952E+04  0.7818608E-02  0.8354422E-01
         -1   -1    0    0    0  501 -0.00000000000E+00  0.00000000000E+00  0.16782548739E+04  0.16782548739E+04  0.00000000000E+00 0.  1.
          2   -1    0    0  501    0  0.00000000000E+00 -0.00000000000E+00 -0.10389699682E+04  0.10389699682E+04  0.00000000000E+00 0. -1.
         24    2    1    2    0    0  0.22977272270E+03 -0.36634339066E+03 -0.82682850205E+03  0.93645475687E+03  0.79367221718E+02 0.  0.
        254    2    1    2    0    0 -0.22977272270E+03  0.36634339066E+03  0.14661134077E+04  0.17807700853E+04  0.91359213459E+03 0.  0.
         23    2    4    4    0    0 -0.30611469442E+03  0.72686791080E+02  0.14251758869E+04  0.14624743426E+04  0.93355869806E+02 0.  0.
         23    2    4    4    0    0  0.76341971715E+02  0.29365659958E+03  0.40937520783E+02  0.31829574265E+03  0.87028754200E+02 0.  0.
          4    1    3    3  502    0  0.15553789130E+03 -0.28267504224E+03 -0.54647794045E+03  0.63461433527E+03  0.00000000000E+00 0. -1.
         -3    1    3    3    0  502  0.74234831407E+02 -0.83668348426E+02 -0.28035056160E+03  0.30184042160E+03  0.00000000000E+00 0.  1.
         13    1    5    5    0    0 -0.72014679349E+02 -0.11798309674E+02  0.21734481423E+03  0.22926858142E+03  0.00000000000E+00 0. -1.
        -13    1    5    5    0    0 -0.23410001507E+03  0.84485100754E+02  0.12078310727E+04  0.12332057612E+04  0.00000000000E+00 0.  1.
          4    1    6    6  503    0  0.47058321071E+02  0.15658021310E+03  0.65241390122E+02  0.17603490478E+03  0.00000000000E+00 0.  1.
         -4    1    6    6    0  503  0.29283650645E+02  0.13707638648E+03 -0.24303869340E+02  0.14226083787E+03  0.00000000000E+00 0. -1.
<mgrwt>
<rscale>  0 0.26409517E+04</rscale>
<asrwt>0</asrwt>
<pdfrwt beam="1">  1        2 0.15984153E+00 0.26409517E+04</pdfrwt>
<pdfrwt beam="2">  1       -1 0.25819306E+00 0.26409517E+04</pdfrwt>
<totfact> 0.14734893E+00</totfact>
</mgrwt>
</event>
<event>
12    7  0.1572140E-007  0.1365410E+04  0.7818608E-02  0.8979244E-01
         -1   -1    0    0    0  501 -0.00000000000E+00  0.00000000000E+00  0.36077905949E+03  0.36077905949E+03  0.00000000000E+00 0.  1.
          2   -1    0    0  501    0  0.00000000000E+00 -0.00000000000E+00 -0.12918887459E+04  0.12918887459E+04  0.00000000000E+00 0. -1.
         24    2    1    2    0    0 -0.18737447055E+03 -0.10583658959E+03  0.11006358213E+03  0.25758847693E+03  0.89035135905E+02 0.  0.
        254    2    1    2    0    0  0.18737447055E+03  0.10583658959E+03 -0.10411732685E+04  0.13950793284E+04  0.90326849921E+03 0.  0.
         23    2    4    4    0    0 -0.95456552556E+02  0.41555588471E+03 -0.77474048572E+03  0.88953477613E+03  0.96180304609E+02 0.  0.
         23    2    4    4    0    0  0.28283102310E+03 -0.30971929512E+03 -0.26643278279E+03  0.50554455231E+03  0.93109812727E+02 0.  0.
          2    1    3    3  502    0 -0.25213673538E+02 -0.53456677765E+02  0.99209519799E+01  0.59931385927E+02  0.00000000000E+00 0. -1.
         -1    1    3    3    0  502 -0.16216079701E+03 -0.52379911824E+02  0.10014263015E+03  0.19765709100E+03  0.00000000000E+00 0.  1.
         13    1    5    5    0    0 -0.59058510468E+02  0.29025829256E+03 -0.62002999395E+03  0.68714989446E+03  0.00000000000E+00 0.  1.
        -13    1    5    5    0    0 -0.36398042089E+02  0.12529759215E+03 -0.15471049177E+03  0.20238488167E+03  0.00000000000E+00 0. -1.
          3    1    6    6  503    0  0.12003896455E+03 -0.13033231683E+03 -0.16766610959E+03  0.24394218602E+03  0.00000000000E+00 0. -1.
         -3    1    6    6    0  503  0.16279205856E+03 -0.17938697829E+03 -0.98766673202E+02  0.26160236628E+03  0.00000000000E+00 0.  1.
<mgrwt>
<rscale>  0 0.13654104E+04</rscale>
<asrwt>0</asrwt>
<pdfrwt beam="1">  1        2 0.19875212E+00 0.13654104E+04</pdfrwt>
<pdfrwt beam="2">  1       -1 0.55504469E-01 0.13654104E+04</pdfrwt>
<totfact> 0.61006104E+01</totfact>
</mgrwt>
</event>
<event>
12    7  0.1572140E-007  0.1802554E+04  0.7818608E-02  0.8704943E-01
         -1   -1    0    0    0  501 -0.00000000000E+00  0.00000000000E+00  0.84786729068E+03  0.84786729068E+03  0.00000000000E+00 0.  1.
          2   -1    0    0  501    0  0.00000000000E+00 -0.00000000000E+00 -0.95805084784E+03  0.95805084784E+03  0.00000000000E+00 0. -1.
         24    2    1    2    0    0  0.33068605806E+03 -0.75764119135E+02  0.54267268834E+03  0.64482621171E+03  0.78827190095E+02 0.  0.
        254    2    1    2    0    0 -0.33068605806E+03  0.75764119135E+02 -0.65285624550E+03  0.11610919268E+04  0.89823143703E+03 0.  0.
         23    2    4    4    0    0 -0.31867440351E+03  0.39108485416E+03 -0.10727696855E+03  0.52400431408E+03  0.92582042466E+02 0.  0.
         23    2    4    4    0    0 -0.12011654550E+02 -0.31532073503E+03 -0.54557927695E+03  0.63708761273E+03  0.93018455509E+02 0.  0.
          2    1    3    3  502    0  0.30708857010E+02 -0.22428890661E+02  0.29942508469E+02  0.48400855866E+02  0.00000000000E+00 0. -1.
         -1    1    3    3    0  502  0.29997720105E+03 -0.53335228473E+02  0.51273017988E+03  0.59642535585E+03  0.00000000000E+00 0.  1.
         13    1    5    5    0    0 -0.11041277998E+03  0.72744347759E+02 -0.35149367336E+02  0.13681447342E+03  0.00000000000E+00 0. -1.
        -13    1    5    5    0    0 -0.20826162353E+03  0.31834050640E+03 -0.72127601211E+02  0.38718984066E+03  0.00000000000E+00 0.  1.
          2    1    6    6  503    0 -0.19813063080E+02 -0.38317200774E+02 -0.32691843243E+02  0.54125058506E+02  0.00000000000E+00 0. -1.
         -2    1    6    6    0  503  0.78014085299E+01 -0.27700353425E+03 -0.51288743371E+03  0.58296255422E+03  0.00000000000E+00 0.  1.
<mgrwt>
<rscale>  0 0.18025537E+04</rscale>
<asrwt>0</asrwt>
<pdfrwt beam="1">  1        2 0.14739244E+00 0.18025537E+04</pdfrwt>
<pdfrwt beam="2">  1       -1 0.13044112E+00 0.18025537E+04</pdfrwt>
<totfact> 0.14525401E+01</totfact>
</mgrwt>
</event>
<event>
12    7  0.1572140E-007  0.1511534E+04  0.7818608E-02  0.8876819E-01
         -1   -1    0    0    0  501 -0.00000000000E+00  0.00000000000E+00  0.71908696200E+03  0.71908696200E+03  0.00000000000E+00 0.  1.
          2   -1    0    0  501    0  0.00000000000E+00 -0.00000000000E+00 -0.79431793187E+03  0.79431793187E+03  0.00000000000E+00 0. -1.
         24    2    1    2    0    0 -0.12095783396E+03  0.35030688644E+03 -0.33783421858E+03  0.50763907664E+03  0.78865458881E+02 0.  0.
        254    2    1    2    0    0  0.12095783396E+03 -0.35030688644E+03  0.26260324871E+03  0.10057658172E+04  0.89736207887E+03 0.  0.
         23    2    4    4    0    0  0.48585765052E+03 -0.31974082277E+03  0.11028231539E+03  0.59891665968E+03  0.90813687546E+02 0.  0.
         23    2    4    4    0    0 -0.36489981656E+03 -0.30566063676E+02  0.15232093332E+03  0.40684915755E+03  0.90765686806E+02 0.  0.
          4    1    3    3  502    0 -0.86900229819E+02  0.19063159989E+03 -0.14406808068E+03  0.25425905823E+03  0.00000000000E+00 0. -1.
         -3    1    3    3    0  502 -0.34057604141E+02  0.15967528655E+03 -0.19376613790E+03  0.25338001841E+03  0.00000000000E+00 0.  1.
         13    1    5    5    0    0  0.45178214294E+03 -0.32138914437E+03  0.10097899721E+03  0.56355553824E+03  0.00000000000E+00 0.  1.
        -13    1    5    5    0    0  0.34075507571E+02  0.16483216043E+01  0.93033181767E+01  0.35361121439E+02  0.00000000000E+00 0. -1.
          4    1    6    6  503    0  0.41700570792E+01  0.31509226570E+01  0.70760316440E+01  0.87970400398E+01  0.00000000000E+00 0. -1.
         -4    1    6    6    0  503 -0.36906987363E+03 -0.33716986333E+02  0.14524490168E+03  0.39805211751E+03  0.00000000000E+00 0.  1.
<mgrwt>
<rscale>  0 0.15115339E+04</rscale>
<asrwt>0</asrwt>
<pdfrwt beam="1">  1        2 0.12220276E+00 0.15115339E+04</pdfrwt>
<pdfrwt beam="2">  1       -1 0.11062876E+00 0.15115339E+04</pdfrwt>
<totfact> 0.28868076E+01</totfact>
</mgrwt>
</event>
<event>
12    7  0.1572140E-007  0.1163909E+04  0.7818608E-02  0.9145047E-01
          2   -1    0    0  501    0  0.00000000000E+00  0.00000000000E+00  0.16467960612E+04  0.16467960612E+04  0.00000000000E+00 0. -1.
         -1   -1    0    0    0  501 -0.00000000000E+00 -0.00000000000E+00 -0.20565449067E+03  0.20565449067E+03  0.00000000000E+00 0.  1.
         24    2    1    2    0    0 -0.97176786708E+02 -0.12800806541E+03  0.49975113635E+02  0.18634316365E+03  0.79980434918E+02 0.  0.
        254    2    1    2    0    0  0.97176786708E+02  0.12800806541E+03  0.13911664569E+04  0.16661073882E+04  0.90262967244E+03 0.  0.
         23    2    4    4    0    0 -0.56152379977E+02  0.49595215260E+03  0.80197500425E+03  0.94890077818E+03  0.90150717881E+02 0.  0.
         23    2    4    4    0    0  0.15332916668E+03 -0.36794408719E+03  0.58919145260E+03  0.71720660999E+03  0.91356822116E+02 0.  0.
          4    1    3    3  502    0 -0.14868605053E+01 -0.62888577470E+02  0.89387408298E+01  0.63538059602E+02  0.00000000000E+00 0. -1.
         -3    1    3    3    0  502 -0.95689926203E+02 -0.65119487943E+02  0.41036372805E+02  0.12280510405E+03  0.00000000000E+00 0.  1.
         13    1    5    5    0    0 -0.69616801085E+02  0.37121541258E+03  0.54689753993E+03  0.66463847369E+03  0.00000000000E+00 0. -1.
        -13    1    5    5    0    0  0.13464421108E+02  0.12473674003E+03  0.25507746432E+03  0.28426230449E+03  0.00000000000E+00 0.  1.
          2    1    6    6  503    0  0.29828632412E+02 -0.16866123438E+03  0.20506549497E+03  0.26718573413E+03  0.00000000000E+00 0.  1.
         -2    1    6    6    0  503  0.12350053427E+03 -0.19928285281E+03  0.38412595763E+03  0.45002087586E+03  0.00000000000E+00 0. -1.
<mgrwt>
<rscale>  0 0.11639089E+04</rscale>
<asrwt>0</asrwt>
<pdfrwt beam="1">  1        2 0.25335323E+00 0.11639089E+04</pdfrwt>
<pdfrwt beam="2">  1       -1 0.31639153E-01 0.11639089E+04</pdfrwt>
<totfact> 0.10988047E+02</totfact>
</mgrwt>
</event>
<event>
12    7  0.1572140E-007  0.1177520E+04  0.7818608E-02  0.9132764E-01
          2   -1    0    0  501    0  0.00000000000E+00  0.00000000000E+00  0.24315950086E+04  0.24315950086E+04  0.00000000000E+00 0. -1.
         -1   -1    0    0    0  501 -0.00000000000E+00 -0.00000000000E+00 -0.14255594186E+03  0.14255594186E+03  0.00000000000E+00 0.  1.
         24    2    1    2    0    0  0.91768872817E+02 -0.15703611167E+03  0.16106805052E+03  0.25576759544E+03  0.79951732902E+02 0.  0.
        254    2    1    2    0    0 -0.91768872817E+02  0.15703611167E+03  0.21279710162E+04  0.23183833550E+04  0.90197498220E+03 0.  0.
         23    2    4    4    0    0 -0.38869726299E+03  0.36885721984E+03  0.13065123359E+04  0.14150097525E+04  0.90204793224E+02 0.  0.
         23    2    4    4    0    0  0.29692839017E+03 -0.21182110817E+03  0.82145868025E+03  0.90337360252E+03  0.90856213911E+02 0.  0.
          2    1    3    3  502    0  0.75681815312E+01 -0.50685356817E+02  0.90709657668E+01  0.52043877520E+02  0.00000000000E+00 0. -1.
         -1    1    3    3    0  502  0.84200691286E+02 -0.10635075485E+03  0.15199708476E+03  0.20372371792E+03  0.00000000000E+00 0.  1.
         13    1    5    5    0    0 -0.31811850024E+03  0.29241183259E+03  0.11342375262E+04  0.12137540219E+04  0.00000000000E+00 0.  1.
        -13    1    5    5    0    0 -0.70578762744E+02  0.76445387248E+02  0.17227480978E+03  0.20125573052E+03  0.00000000000E+00 0. -1.
          3    1    6    6  503    0  0.18546937186E+03 -0.17640816252E+03  0.61407642712E+03  0.66528834804E+03  0.00000000000E+00 0.  1.
         -3    1    6    6    0  503  0.11145901831E+03 -0.35412945658E+02  0.20738225313E+03  0.23808525447E+03  0.00000000000E+00 0. -1.
<mgrwt>
<rscale>  0 0.11775200E+04</rscale>
<asrwt>0</asrwt>
<pdfrwt beam="1">  1        2 0.37409151E+00 0.11775200E+04</pdfrwt>
<pdfrwt beam="2">  1       -1 0.21931685E-01 0.11775200E+04</pdfrwt>
<totfact> 0.75600438E+01</totfact>
</mgrwt>
</event>
<event>
12    7  0.1572140E-007  0.1305475E+04  0.7818608E-02  0.9025235E-01
          2   -1    0    0  501    0  0.00000000000E+00  0.00000000000E+00  0.11456534999E+04  0.11456534999E+04  0.00000000000E+00 0. -1.
         -1   -1    0    0    0  501 -0.00000000000E+00 -0.00000000000E+00 -0.37189788386E+03  0.37189788386E+03  0.00000000000E+00 0.  1.
         24    2    1    2    0    0 -0.18724488051E+03 -0.15159923250E+03  0.48467418199E+03  0.54713222579E+03  0.80010232084E+02 0.  0.
        254    2    1    2    0    0  0.18724488051E+03  0.15159923250E+03  0.28908143403E+03  0.97041915795E+03  0.89448437327E+03 0.  0.
         23    2    4    4    0    0 -0.23748710220E+03  0.33975216139E+03  0.25810683073E+03  0.49571205945E+03  0.85320893890E+02 0.  0.
         23    2    4    4    0    0  0.42473198271E+03 -0.18815292889E+03  0.30974603307E+02  0.47470709850E+03  0.92674816031E+02 0.  0.
          4    1    3    3  502    0 -0.12330841572E+03 -0.76965045744E+02  0.36100288918E+03  0.38916791961E+03  0.00000000000E+00 0. -1.
         -3    1    3    3    0  502 -0.63936464788E+02 -0.74634186758E+02  0.12367129280E+03  0.15796430618E+03  0.00000000000E+00 0.  1.
         13    1    5    5    0    0 -0.12655109708E+02 -0.23286520266E+01  0.14380956739E+02  0.19297314288E+02  0.00000000000E+00 0.  1.
        -13    1    5    5    0    0 -0.22483199249E+03  0.34208081341E+03  0.24372587399E+03  0.47641474516E+03  0.00000000000E+00 0. -1.
          1    1    6    6  503    0  0.38703185735E+03 -0.15427393535E+03  0.51910006045E+02  0.41986754395E+03  0.00000000000E+00 0. -1.
         -1    1    6    6    0  503  0.37700125358E+02 -0.33878993536E+02 -0.20935402739E+02  0.54839554546E+02  0.00000000000E+00 0.  1.
<mgrwt>
<rscale>  0 0.13054748E+04</rscale>
<asrwt>0</asrwt>
<pdfrwt beam="1">  1        2 0.17625438E+00 0.13054748E+04</pdfrwt>
<pdfrwt beam="2">  1       -1 0.57215059E-01 0.13054748E+04</pdfrwt>
<totfact> 0.70588477E+01</totfact>
</mgrwt>
</event>
<event>
12    7  0.1572140E-007  0.2015002E+04  0.7818608E-02  0.8599639E-01
         -1   -1    0    0    0  501 -0.00000000000E+00  0.00000000000E+00  0.63081153512E+03  0.63081153512E+03  0.00000000000E+00 0.  1.
          2   -1    0    0  501    0  0.00000000000E+00 -0.00000000000E+00 -0.16091311805E+04  0.16091311805E+04  0.00000000000E+00 0. -1.
         24    2    1    2    0    0 -0.29669425118E+03  0.70990988941E+03 -0.13168280951E+03  0.78516471376E+03  0.84520622712E+02 0.  0.
        254    2    1    2    0    0  0.29669425118E+03 -0.70990988941E+03 -0.84663683589E+03  0.14547780019E+04  0.89865765068E+03 0.  0.
         23    2    4    4    0    0  0.22502687210E+03  0.14588753144E+03 -0.64317153964E+02  0.28946285790E+03  0.87930568117E+02 0.  0.
         23    2    4    4    0    0  0.71667379071E+02 -0.85579742084E+03 -0.78231968193E+03  0.11653151440E+04  0.91705296109E+02 0.  0.
          2    1    3    3  502    0 -0.23637901774E+03  0.62537863235E+03 -0.13123990299E+03  0.68132032552E+03  0.00000000000E+00 0. -1.
         -1    1    3    3    0  502 -0.60315233440E+02  0.84531257054E+02 -0.44290652096E+00  0.10384438825E+03  0.00000000000E+00 0.  1.
         13    1    5    5    0    0  0.21262594131E+03  0.14670023823E+03 -0.79088817104E+02  0.27015882700E+03  0.00000000000E+00 0. -1.
        -13    1    5    5    0    0  0.12400930791E+02 -0.81270679520E+00  0.14771663139E+02  0.19304030893E+02  0.00000000000E+00 0.  1.
          1    1    6    6  503    0  0.75506173811E+02 -0.52105825132E+03 -0.52019999619E+03  0.74014249952E+03  0.00000000000E+00 0. -1.
         -1    1    6    6    0  503 -0.38387947394E+01 -0.33473916952E+03 -0.26211968574E+03  0.42517264447E+03  0.00000000000E+00 0.  1.
<mgrwt>
<rscale>  0 0.20150022E+04</rscale>
<asrwt>0</asrwt>
<pdfrwt beam="1">  1        2 0.24755864E+00 0.20150022E+04</pdfrwt>
<pdfrwt beam="2">  1       -1 0.97047929E-01 0.20150022E+04</pdfrwt>
<totfact> 0.11887821E+01</totfact>
</mgrwt>
</event>
<event>
12    7  0.1572140E-007  0.1902996E+04  0.7818608E-02  0.8653367E-01
         -1   -1    0    0    0  501 -0.00000000000E+00  0.00000000000E+00  0.53730265821E+03  0.53730265821E+03  0.00000000000E+00 0.  1.
          2   -1    0    0  501    0  0.00000000000E+00 -0.00000000000E+00 -0.16849875697E+04  0.16849875697E+04  0.00000000000E+00 0. -1.
         24    2    1    2    0    0 -0.35729226667E+03 -0.63720853608E+03 -0.40735169419E+03  0.84035115450E+03  0.81007270151E+02 0.  0.
        254    2    1    2    0    0  0.35729226667E+03  0.63720853608E+03 -0.74033321725E+03  0.13819390734E+04  0.90992848492E+03 0.  0.
         23    2    4    4    0    0  0.32552208766E+03  0.85861044047E+03 -0.54341918721E+03  0.10708429607E+04  0.90684702975E+02 0.  0.
         23    2    4    4    0    0  0.31770179011E+02 -0.22140190439E+03 -0.19691403004E+03  0.31109611270E+03  0.89316899696E+02 0.  0.
          4    1    3    3  502    0 -0.30027766964E+02 -0.24119224271E+02 -0.34369236036E+02  0.51620230085E+02  0.00000000000E+00 0. -1.
         -3    1    3    3    0  502 -0.32726449971E+03 -0.61308931181E+03 -0.37298245816E+03  0.78873092441E+03  0.00000000000E+00 0.  1.
         13    1    5    5    0    0  0.26260482160E+03  0.76117158189E+03 -0.45383786003E+03  0.92429014525E+03  0.00000000000E+00 0. -1.
        -13    1    5    5    0    0  0.62917266060E+02  0.97438858581E+02 -0.89581327173E+02  0.14655281542E+03  0.00000000000E+00 0.  1.
          3    1    6    6  503    0  0.28826529955E+02 -0.22166466679E+03 -0.16201150367E+03  0.27606868829E+03  0.00000000000E+00 0. -1.
         -3    1    6    6    0  503  0.29436490566E+01  0.26276240258E+00 -0.34902526377E+02  0.35027424418E+02  0.00000000000E+00 0.  1.
<mgrwt>
<rscale>  0 0.19029958E+04</rscale>
<asrwt>0</asrwt>
<pdfrwt beam="1">  1        2 0.25922885E+00 0.19029958E+04</pdfrwt>
<pdfrwt beam="2">  1       -1 0.82661949E-01 0.19029958E+04</pdfrwt>
<totfact> 0.15505378E+01</totfact>
</mgrwt>
</event>
<event>
12    7  0.1572140E-007  0.1332844E+04  0.7818608E-02  0.9003917E-01
          2   -1    0    0  501    0  0.00000000000E+00  0.00000000000E+00  0.99922573941E+03  0.99922573941E+03  0.00000000000E+00 0. -1.
         -1   -1    0    0    0  501 -0.00000000000E+00 -0.00000000000E+00 -0.44446250364E+03  0.44446250364E+03  0.00000000000E+00 0.  1.
         24    2    1    2    0    0  0.34722303105E+03  0.12025803655E+03  0.12108458748E+03  0.39535397112E+03  0.81347750486E+02 0.  0.
        254    2    1    2    0    0 -0.34722303105E+03 -0.12025803655E+03  0.43367864829E+03  0.10483342719E+04  0.88085285212E+03 0.  0.
         23    2    4    4    0    0 -0.19079788882E+03 -0.46402841181E+03  0.41651415344E+03  0.65835144897E+03  0.90644299353E+02 0.  0.
         23    2    4    4    0    0 -0.15642514223E+03  0.34377037526E+03  0.17164494849E+02  0.38998282296E+03  0.95629944533E+02 0.  0.
          4    1    3    3  502    0  0.79243786201E+02  0.44341129435E+02  0.63855624175E+02  0.11101015336E+03  0.00000000000E+00 0. -1.
         -3    1    3    3    0  502  0.26797924484E+03  0.75916907112E+02  0.57228963306E+02  0.28434381775E+03  0.00000000000E+00 0.  1.
         13    1    5    5    0    0 -0.98110363076E+02 -0.18095928480E+03  0.22123681431E+03  0.30218807737E+03  0.00000000000E+00 0. -1.
        -13    1    5    5    0    0 -0.92687525741E+02 -0.28306912701E+03  0.19527733913E+03  0.35616337160E+03  0.00000000000E+00 0.  1.
          2    1    6    6  503    0 -0.14362354770E+03  0.33327717005E+03 -0.42313907395E+01  0.36293153652E+03  0.00000000000E+00 0. -1.
         -2    1    6    6    0  503 -0.12801594527E+02  0.10493205210E+02  0.21395885588E+02  0.27051286441E+02  0.00000000000E+00 0.  1.
<mgrwt>
<rscale>  0 0.13328441E+04</rscale>
<asrwt>0</asrwt>
<pdfrwt beam="1">  1        2 0.15372704E+00 0.13328441E+04</pdfrwt>
<pdfrwt beam="2">  1       -1 0.68378847E-01 0.13328441E+04</pdfrwt>
<totfact> 0.60916594E+01</totfact>
</mgrwt>
</event>
<event>
12    7  0.1572140E-007  0.1031998E+04  0.7818608E-02  0.9274130E-01
         -3   -1    0    0    0  501 -0.00000000000E+00  0.00000000000E+00  0.13672511492E+03  0.13672511492E+03  0.00000000000E+00 0.  1.
          2   -1    0    0  501    0  0.00000000000E+00 -0.00000000000E+00 -0.19473747225E+04  0.19473747225E+04  0.00000000000E+00 0. -1.
         24    2    1    2    0    0  0.66627835064E+02 -0.63238136193E+02 -0.34988588944E+03  0.37053258055E+03  0.80224231648E+02 0.  0.
        254    2    1    2    0    0 -0.66627835064E+02  0.63238136193E+02 -0.14607637182E+04  0.17135672569E+04  0.89109133839E+03 0.  0.
         23    2    4    4    0    0  0.78431693705E+01  0.30049746172E+02 -0.15550449003E+04  0.15580070993E+04  0.90867908587E+02 0.  0.
         23    2    4    4    0    0 -0.74471004434E+02  0.33188390021E+02  0.94281182162E+02  0.15556015763E+03  0.93073205580E+02 0.  0.
          4    1    3    3  502    0  0.28147062270E+02  0.37955805460E+01 -0.19884744104E+03  0.20086554795E+03  0.00000000000E+00 0. -1.
         -3    1    3    3    0  502  0.38480772794E+02 -0.67033716739E+02 -0.15103844841E+03  0.16966703260E+03  0.00000000000E+00 0.  1.
         13    1    5    5    0    0 -0.29551705644E+02 -0.15026855400E+02 -0.35850576703E+03  0.36003540754E+03  0.00000000000E+00 0. -1.
        -13    1    5    5    0    0  0.37394875015E+02  0.45076601572E+02 -0.11965391333E+04  0.11979716917E+04  0.00000000000E+00 0.  1.
          4    1    6    6  503    0 -0.84800157940E+01  0.50995589729E+02  0.59657207129E+02  0.78939490765E+02  0.00000000000E+00 0. -1.
         -4    1    6    6    0  503 -0.65990988640E+02 -0.17807199708E+02  0.34623975033E+02  0.76620666861E+02  0.00000000000E+00 0.  1.
<mgrwt>
<rscale>  0 0.10319981E+04</rscale>
<asrwt>0</asrwt>
<pdfrwt beam="1">  1        2 0.29959607E+00 0.10319981E+04</pdfrwt>
<pdfrwt beam="2">  1       -3 0.21034636E-01 0.10319981E+04</pdfrwt>
<totfact> 0.97158354E+01</totfact>
</mgrwt>
</event>
<event>
12    7  0.1572140E-007  0.1519565E+04  0.7818608E-02  0.8871546E-01
         -3   -1    0    0    0  501 -0.00000000000E+00  0.00000000000E+00  0.54128469597E+03  0.54128469597E+03  0.00000000000E+00 0.  1.
          4   -1    0    0  501    0  0.00000000000E+00 -0.00000000000E+00 -0.10664799944E+04  0.10664799944E+04  0.00000000000E+00 0. -1.
         24    2    1    2    0    0  0.33085219036E+03  0.17373988521E+03  0.17064030142E+03  0.41850116347E+03  0.79852312247E+02 0.  0.
        254    2    1    2    0    0 -0.33085219036E+03 -0.17373988521E+03 -0.69583559989E+03  0.11892635269E+04  0.88910732472E+03 0.  0.
         23    2    4    4    0    0 -0.53156852584E+03 -0.30579140719E+03 -0.23735616566E+03  0.66384508138E+03  0.90988242798E+02 0.  0.
         23    2    4    4    0    0  0.20071633547E+03  0.13205152198E+03 -0.45847943423E+03  0.52541844557E+03  0.90202547329E+02 0.  0.
          2    1    3    3  502    0  0.36318434141E+02  0.51779323345E+02  0.24724855312E+02  0.67907624423E+02  0.00000000000E+00 0. -1.
         -1    1    3    3    0  502  0.29453375622E+03  0.12196056187E+03  0.14591544611E+03  0.35059353904E+03  0.00000000000E+00 0.  1.
         13    1    5    5    0    0 -0.23824687328E+03 -0.16312560170E+03 -0.15374646265E+03  0.32712307979E+03  0.00000000000E+00 0. -1.
        -13    1    5    5    0    0 -0.29332165256E+03 -0.14266580549E+03 -0.83609703008E+02  0.33672200159E+03  0.00000000000E+00 0.  1.
          2    1    6    6  503    0  0.11195622345E+03  0.64640707180E+02 -0.33498606775E+03  0.35906584714E+03  0.00000000000E+00 0. -1.
         -2    1    6    6    0  503  0.88760112028E+02  0.67410814802E+02 -0.12349336648E+03  0.16635259843E+03  0.00000000000E+00 0.  1.
<mgrwt>
<rscale>  0 0.15195648E+04</rscale>
<asrwt>0</asrwt>
<pdfrwt beam="1">  1        4 0.16407384E+00 0.15195648E+04</pdfrwt>
<pdfrwt beam="2">  1       -3 0.83274569E-01 0.15195648E+04</pdfrwt>
<totfact> 0.68440165E-01</totfact>
</mgrwt>
</event>
<event>
12    7  0.1572140E-007  0.1709178E+04  0.7818608E-02  0.8756147E-01
         -1   -1    0    0    0  501 -0.00000000000E+00  0.00000000000E+00  0.58300041376E+03  0.58300041376E+03  0.00000000000E+00 0.  1.
          2   -1    0    0  501    0  0.00000000000E+00 -0.00000000000E+00 -0.12526960509E+04  0.12526960509E+04  0.00000000000E+00 0. -1.
         24    2    1    2    0    0  0.35597341734E+03  0.48219909433E+03 -0.89156909687E+02  0.61108583315E+03  0.79018355536E+02 0.  0.
        254    2    1    2    0    0 -0.35597341734E+03 -0.48219909433E+03 -0.58053872747E+03  0.12246106315E+04  0.89633305436E+03 0.  0.
         23    2    4    4    0    0 -0.32805290396E+03 -0.20289435242E+03  0.16135318750E+03  0.42627064145E+03  0.82987846114E+02 0.  0.
         23    2    4    4    0    0 -0.27920513377E+02 -0.27930474191E+03 -0.74189191498E+03  0.79833999008E+03  0.90290820907E+02 0.  0.
          2    1    3    3  502    0  0.35678430682E+03  0.46866196283E+03 -0.94427272405E+02  0.59653632477E+03  0.00000000000E+00 0. -1.
         -1    1    3    3    0  502 -0.81088948211E+00  0.13537131498E+02  0.52703627182E+01  0.14549508381E+02  0.00000000000E+00 0.  1.
         13    1    5    5    0    0 -0.25509041768E+03 -0.13436072667E+03  0.15147722743E+03  0.32568278507E+03  0.00000000000E+00 0.  1.
        -13    1    5    5    0    0 -0.72962486288E+02 -0.68533625749E+02  0.98759600704E+01  0.10058785638E+03  0.00000000000E+00 0. -1.
          3    1    6    6  503    0  0.24125472304E+02 -0.23061459050E+02 -0.86190624919E+02  0.92426690578E+02  0.00000000000E+00 0. -1.
         -3    1    6    6    0  503 -0.52045985680E+02 -0.25624328286E+03 -0.65570129006E+03  0.70591329950E+03  0.00000000000E+00 0.  1.
<mgrwt>
<rscale>  0 0.17091779E+04</rscale>
<asrwt>0</asrwt>
<pdfrwt beam="1">  1        2 0.19272247E+00 0.17091779E+04</pdfrwt>
<pdfrwt beam="2">  1       -1 0.89692371E-01 0.17091779E+04</pdfrwt>
<totfact> 0.23255349E+01</totfact>
</mgrwt>
</event>
<event>
12    7  0.1572140E-007  0.1457039E+04  0.7818608E-02  0.8913535E-01
          2   -1    0    0  501    0  0.00000000000E+00  0.00000000000E+00  0.20021232185E+04  0.20021232185E+04  0.00000000000E+00 0. -1.
         -1   -1    0    0    0  501 -0.00000000000E+00 -0.00000000000E+00 -0.26508887805E+03  0.26508887805E+03  0.00000000000E+00 0.  1.
         24    2    1    2    0    0  0.10502709927E+03 -0.65403922174E+02 -0.12619684717E+03  0.19447081326E+03  0.81147325014E+02 0.  0.
        254    2    1    2    0    0 -0.10502709927E+03  0.65403922174E+02  0.18632311876E+04  0.20727412833E+04  0.89962081143E+03 0.  0.
         23    2    4    4    0    0  0.23249955773E+03  0.21234166496E+03  0.24138478461E+03  0.40708516652E+03  0.91141052995E+02 0.  0.
         23    2    4    4    0    0 -0.33752665700E+03 -0.14693774278E+03  0.16218464030E+04  0.16656561168E+04  0.92247492935E+02 0.  0.
          4    1    3    3  502    0  0.47460267771E+02  0.10110926307E+02 -0.21343598986E+02  0.53011857781E+02  0.00000000000E+00 0. -1.
         -3    1    3    3    0  502  0.57566831494E+02 -0.75514848481E+02 -0.10485324818E+03  0.14145895548E+03  0.00000000000E+00 0.  1.
         13    1    5    5    0    0  0.22797418825E+03  0.22114985224E+03  0.23099201587E+03  0.39272993144E+03  0.00000000000E+00 0. -1.
        -13    1    5    5    0    0  0.45253694807E+01 -0.88081872849E+01  0.10392768738E+02  0.14355235081E+02  0.00000000000E+00 0.  1.
          4    1    6    6  503    0 -0.31998801824E+03 -0.12352735986E+03  0.15596858782E+04  0.15969569121E+04  0.00000000000E+00 0. -1.
         -4    1    6    6    0  503 -0.17538638764E+02 -0.23410382918E+02  0.62160524799E+02  0.68699204663E+02  0.00000000000E+00 0.  1.
<mgrwt>
<rscale>  0 0.14570389E+04</rscale>
<asrwt>0</asrwt>
<pdfrwt beam="1">  1        2 0.30801895E+00 0.14570389E+04</pdfrwt>
<pdfrwt beam="2">  1       -1 0.40782906E-01 0.14570389E+04</pdfrwt>
<totfact> 0.43263001E+01</totfact>
</mgrwt>
</event>
<event>
12    7  0.1572140E-007  0.1156100E+04  0.7818608E-02  0.9152175E-01
          2   -1    0    0  501    0  0.00000000000E+00  0.00000000000E+00  0.43031942705E+03  0.43031942705E+03  0.00000000000E+00 0. -1.
         -1   -1    0    0    0  501 -0.00000000000E+00 -0.00000000000E+00 -0.77649656986E+03  0.77649656986E+03  0.00000000000E+00 0.  1.
         24    2    1    2    0    0 -0.19585483582E+03 -0.72667357553E+02 -0.13908866256E+03  0.26355096915E+03  0.80459901319E+02 0.  0.
        254    2    1    2    0    0  0.19585483582E+03  0.72667357553E+02 -0.20708848026E+03  0.94326502775E+03  0.89622743339E+03 0.  0.
         23    2    4    4    0    0  0.15232615176E+03 -0.37379621036E+03 -0.24986027897E+03  0.48382442461E+03  0.93429392849E+02 0.  0.
         23    2    4    4    0    0  0.43528684062E+02  0.44646356792E+03  0.42771798708E+02  0.45944060315E+03  0.89620183223E+02 0.  0.
          4    1    3    3  502    0 -0.27934721936E+02 -0.42968266082E+02 -0.48013944070E+02  0.70227910441E+02  0.00000000000E+00 0. -1.
         -3    1    3    3    0  502 -0.16792011389E+03 -0.29699091471E+02 -0.91074718487E+02  0.19332305871E+03  0.00000000000E+00 0.  1.
         13    1    5    5    0    0  0.12750630259E+03 -0.30660641610E+03 -0.24377998236E+03  0.41193935402E+03  0.00000000000E+00 0.  1.
        -13    1    5    5    0    0  0.24819849174E+02 -0.67189794266E+02 -0.60802966098E+01  0.71885070587E+02  0.00000000000E+00 0. -1.
          2    1    6    6  503    0 -0.36577560088E+01  0.34907984073E+03  0.37351150620E+02  0.35109147360E+03  0.00000000000E+00 0. -1.
         -2    1    6    6    0  503  0.47186440071E+02  0.97383727191E+02  0.54206480874E+01  0.10834912955E+03  0.00000000000E+00 0.  1.
<mgrwt>
<rscale>  0 0.11560996E+04</rscale>
<asrwt>0</asrwt>
<pdfrwt beam="1">  1        2 0.66202990E-01 0.11560996E+04</pdfrwt>
<pdfrwt beam="2">  1       -1 0.11946101E+00 0.11560996E+04</pdfrwt>
<totfact> 0.51895423E+01</totfact>
</mgrwt>
</event>
<event>
12    7  0.1572140E-007  0.1633740E+04  0.7818608E-02  0.8800084E-01
         -1   -1    0    0    0  501 -0.00000000000E+00  0.00000000000E+00  0.25537515414E+03  0.25537515414E+03  0.00000000000E+00 0.  1.
          2   -1    0    0  501    0  0.00000000000E+00 -0.00000000000E+00 -0.26129255919E+04  0.26129255919E+04  0.00000000000E+00 0. -1.
         24    2    1    2    0    0 -0.16989971394E+03 -0.53807485469E+03 -0.75462292023E+03  0.94573329802E+03  0.81026274765E+02 0.  0.
        254    2    1    2    0    0  0.16989971394E+03  0.53807485469E+03 -0.16029275176E+04  0.19225674480E+04  0.89916544847E+03 0.  0.
         23    2    4    4    0    0  0.32183544328E+03 -0.72270384280E+02 -0.23789646588E+03  0.41680607079E+03  0.91277111993E+02 0.  0.
         23    2    4    4    0    0 -0.15193572934E+03  0.61034523897E+03 -0.13650310517E+04  0.15057613773E+04  0.91661205656E+02 0.  0.
          2    1    3    3  502    0 -0.17757086794E+03 -0.52437880035E+03 -0.74078786258E+03  0.92480873522E+03  0.00000000000E+00 0. -1.
         -1    1    3    3    0  502  0.76711539970E+01 -0.13696054344E+02 -0.13835057648E+02  0.20924562800E+02  0.00000000000E+00 0.  1.
         13    1    5    5    0    0  0.28332316122E+03 -0.39432963519E+02 -0.17223856883E+03  0.33390582038E+03  0.00000000000E+00 0. -1.
        -13    1    5    5    0    0  0.38512282061E+02 -0.32837420761E+02 -0.65657897054E+02  0.82900250406E+02  0.00000000000E+00 0.  1.
          1    1    6    6  503    0 -0.12892073472E+03  0.34143971596E+03 -0.82086298892E+03  0.89834162881E+03  0.00000000000E+00 0. -1.
         -1    1    6    6    0  503 -0.23014994627E+02  0.26890552301E+03 -0.54416806275E+03  0.60741974844E+03  0.00000000000E+00 0.  1.
<mgrwt>
<rscale>  0 0.16337396E+04</rscale>
<asrwt>0</asrwt>
<pdfrwt beam="1">  1        2 0.40198856E+00 0.16337396E+04</pdfrwt>
<pdfrwt beam="2">  1       -1 0.39288485E-01 0.16337396E+04</pdfrwt>
<totfact> 0.20554622E+01</totfact>
</mgrwt>
</event>
<event>
12    7  0.1572140E-007  0.2122331E+04  0.7818608E-02  0.8551470E-01
          2   -1    0    0  501    0  0.00000000000E+00  0.00000000000E+00  0.33522640517E+04  0.33522640517E+04  0.00000000000E+00 0. -1.
         -1   -1    0    0    0  501 -0.00000000000E+00 -0.00000000000E+00 -0.33591384735E+03  0.33591384735E+03  0.00000000000E+00 0.  1.
         24    2    1    2    0    0 -0.85355967468E+03 -0.77254822013E+01  0.96151252645E+03  0.12882045766E+04  0.79629713135E+02 0.  0.
        254    2    1    2    0    0  0.85355967468E+03  0.77254822013E+01  0.20548376779E+04  0.23999733225E+04  0.89938326917E+03 0.  0.
         23    2    4    4    0    0 -0.90710765788E+02 -0.22720248199E+03  0.39079193607E+03  0.47003798743E+03  0.91476562442E+02 0.  0.
         23    2    4    4    0    0  0.94427044047E+03  0.23492796419E+03  0.16640457418E+04  0.19299353351E+04  0.93618126081E+02 0.  0.
          2    1    3    3  502    0 -0.22284334475E+03 -0.36444307904E+02  0.24358142155E+03  0.33214342204E+03  0.00000000000E+00 0. -1.
         -1    1    3    3    0  502 -0.63071632993E+03  0.28718825702E+02  0.71793110490E+03  0.95606115452E+03  0.00000000000E+00 0.  1.
         13    1    5    5    0    0 -0.62790530632E+02 -0.79426609858E+02  0.22180878947E+03  0.24382447821E+03  0.00000000000E+00 0.  1.
        -13    1    5    5    0    0 -0.27920235156E+02 -0.14777587213E+03  0.16898314660E+03  0.22621350921E+03  0.00000000000E+00 0. -1.
          2    1    6    6  503    0  0.90325137955E+03  0.21297784733E+03  0.15473028219E+04  0.18042640164E+04  0.00000000000E+00 0. -1.
         -2    1    6    6    0  503  0.41019060918E+02  0.21950116867E+02  0.11674291991E+03  0.12567131868E+03  0.00000000000E+00 0.  1.
<mgrwt>
<rscale>  0 0.21223307E+04</rscale>
<asrwt>0</asrwt>
<pdfrwt beam="1">  1        2 0.51573291E+00 0.21223307E+04</pdfrwt>
<pdfrwt beam="2">  1       -1 0.51679056E-01 0.21223307E+04</pdfrwt>
<totfact> 0.40660946E+00</totfact>
</mgrwt>
</event>
<event>
12    7  0.1572140E-007  0.3672927E+04  0.7818608E-02  0.8073988E-01
         -1   -1    0    0    0  501 -0.00000000000E+00  0.00000000000E+00  0.14021404782E+04  0.14021404782E+04  0.00000000000E+00 0.  1.
          2   -1    0    0  501    0  0.00000000000E+00 -0.00000000000E+00 -0.24053205327E+04  0.24053205327E+04  0.00000000000E+00 0. -1.
         24    2    1    2    0    0 -0.87917878194E+02 -0.45762325431E+02 -0.22969576174E+04  0.23004826130E+04  0.79888753273E+02 0.  0.
        254    2    1    2    0    0  0.87917878194E+02  0.45762325431E+02  0.12937775629E+04  0.15069783979E+04  0.76635485624E+03 0.  0.
         23    2    4    4    0    0  0.24564034732E+03  0.30476486722E+03  0.98829239466E+03  0.10668403023E+04  0.90584594991E+02 0.  0.
         23    2    4    4    0    0 -0.15772246912E+03 -0.25900254179E+03  0.30548516826E+03  0.44013809555E+03  0.91878513297E+02 0.  0.
          2    1    3    3  502    0 -0.95267143109E+02 -0.33629322113E+02 -0.22152670539E+04  0.22175695885E+04  0.00000000000E+00 0. -1.
         -3    1    3    3    0  502  0.73492649151E+01 -0.12133003318E+02 -0.81690563515E+02  0.82913024499E+02  0.00000000000E+00 0.  1.
         13    1    5    5    0    0  0.11578100665E+03  0.80290008303E+02  0.30428582320E+03  0.33532311155E+03  0.00000000000E+00 0. -1.
        -13    1    5    5    0    0  0.12985934067E+03  0.22447485892E+03  0.68400657145E+03  0.73151719080E+03  0.00000000000E+00 0.  1.
          1    1    6    6  503    0 -0.13455720891E+03 -0.16169170891E+03  0.16335135394E+03  0.26633346773E+03  0.00000000000E+00 0. -1.
         -1    1    6    6    0  503 -0.23165260208E+02 -0.97310832885E+02  0.14213381432E+03  0.17380462782E+03  0.00000000000E+00 0.  1.
<mgrwt>
<rscale>  0 0.36729265E+04</rscale>
<asrwt>0</asrwt>
<pdfrwt beam="1">  1        2 0.37004931E+00 0.36729265E+04</pdfrwt>
<pdfrwt beam="2">  1       -1 0.21571392E+00 0.36729265E+04</pdfrwt>
<totfact> 0.42751547E-01</totfact>
</mgrwt>
</event>
<event>
12    7  0.1572140E-007  0.9808775E+03  0.7818608E-02  0.9329770E-01
          2   -1    0    0  501    0  0.00000000000E+00  0.00000000000E+00  0.15172728113E+04  0.15172728113E+04  0.00000000000E+00 0. -1.
         -1   -1    0    0    0  501 -0.00000000000E+00 -0.00000000000E+00 -0.15852794788E+03  0.15852794788E+03  0.00000000000E+00 0.  1.
         24    2    1    2    0    0 -0.48036103864E+01 -0.15641864911E+01  0.90596023035E+02  0.12189870696E+03  0.81401068891E+02 0.  0.
        254    2    1    2    0    0  0.48036103864E+01  0.15641864911E+01  0.12681488404E+04  0.15539020522E+04  0.89798918989E+03 0.  0.
         23    2    4    4    0    0  0.16769236169E+03 -0.19406044827E+03  0.14946731944E+02  0.27173680476E+03  0.88528529367E+02 0.  0.
         23    2    4    4    0    0 -0.16288875131E+03  0.19562463476E+03  0.12532021085E+04  0.12821652475E+04  0.92900237633E+02 0.  0.
          2    1    3    3  502    0 -0.59824893928E+01 -0.34985997753E+02  0.78820509920E+02  0.86443524929E+02  0.00000000000E+00 0. -1.
         -1    1    3    3    0  502  0.11788790063E+01  0.33421811262E+02  0.11775513115E+02  0.35455182031E+02  0.00000000000E+00 0.  1.
         13    1    5    5    0    0  0.76116301220E+02 -0.69370497502E+02  0.47869719870E+02  0.11356701685E+03  0.00000000000E+00 0. -1.
        -13    1    5    5    0    0  0.91576060475E+02 -0.12468995076E+03 -0.32922987926E+02  0.15816978791E+03  0.00000000000E+00 0.  1.
          2    1    6    6  503    0 -0.73362994037E+02  0.56127733904E+02  0.27712132830E+03  0.29211073586E+03  0.00000000000E+00 0. -1.
         -2    1    6    6    0  503 -0.89525757271E+02  0.13949690085E+03  0.97608078017E+03  0.99005451162E+03  0.00000000000E+00 0.  1.
<mgrwt>
<rscale>  0 0.98087745E+03</rscale>
<asrwt>0</asrwt>
<pdfrwt beam="1">  1        2 0.23342658E+00 0.98087745E+03</pdfrwt>
<pdfrwt beam="2">  1       -1 0.24388916E-01 0.98087745E+03</pdfrwt>
<totfact> 0.20639790E+02</totfact>
</mgrwt>
</event>
<event>
12    7  0.1572140E-007  0.1515943E+04  0.7818608E-02  0.8873920E-01
          2   -1    0    0  501    0  0.00000000000E+00  0.00000000000E+00  0.14092663684E+04  0.14092663684E+04  0.00000000000E+00 0. -1.
         -1   -1    0    0    0  501 -0.00000000000E+00 -0.00000000000E+00 -0.40767340805E+03  0.40767340805E+03  0.00000000000E+00 0.  1.
         24    2    1    2    0    0 -0.22951091369E+03  0.14818017317E+03 -0.15542896967E+03  0.32451024888E+03  0.80722449125E+02 0.  0.
        254    2    1    2    0    0  0.22951091369E+03 -0.14818017317E+03  0.11570219300E+04  0.14924295276E+04  0.90222698087E+03 0.  0.
         23    2    4    4    0    0  0.53587186619E+02  0.17735969105E+03 -0.61150527209E+02  0.21607715460E+03  0.92854203889E+02 0.  0.
         23    2    4    4    0    0  0.17592372707E+03 -0.32553986422E+03  0.12181724572E+04  0.12763523730E+04  0.90586331745E+02 0.  0.
          2    1    3    3  502    0 -0.52490832978E+02  0.78898644908E+02 -0.50636179193E+02  0.10744443382E+03  0.00000000000E+00 0. -1.
         -1    1    3    3    0  502 -0.17702008071E+03  0.69281528263E+02 -0.10479279048E+03  0.21706581506E+03  0.00000000000E+00 0.  1.
         13    1    5    5    0    0  0.63408243037E+01 -0.10936529924E+02 -0.73661684216E+01  0.14631273931E+02  0.00000000000E+00 0.  1.
        -13    1    5    5    0    0  0.47246362315E+02  0.18829622098E+03 -0.53784358788E+02  0.20144588066E+03  0.00000000000E+00 0. -1.
          1    1    6    6  503    0  0.18682223983E+03 -0.30890548102E+03  0.11597633006E+04  0.12146505912E+04  0.00000000000E+00 0. -1.
         -1    1    6    6    0  503 -0.10898512763E+02 -0.16634383204E+02  0.58409156695E+02  0.61701781747E+02  0.00000000000E+00 0.  1.
<mgrwt>
<rscale>  0 0.15159425E+04</rscale>
<asrwt>0</asrwt>
<pdfrwt beam="1">  1        2 0.21681021E+00 0.15159425E+04</pdfrwt>
<pdfrwt beam="2">  1       -1 0.62718987E-01 0.15159425E+04</pdfrwt>
<totfact> 0.40537758E+01</totfact>
</mgrwt>
</event>
<event>
12    7  0.1572140E-007  0.1355100E+04  0.7818608E-02  0.8986976E-01
         -1   -1    0    0    0  501 -0.00000000000E+00  0.00000000000E+00  0.15722303386E+04  0.15722303386E+04  0.00000000000E+00 0.  1.
          2   -1    0    0  501    0  0.00000000000E+00 -0.00000000000E+00 -0.29198911359E+03  0.29198911359E+03  0.00000000000E+00 0. -1.
         24    2    1    2    0    0  0.33192116963E+03 -0.17452967908E+03  0.33532837801E+03  0.50730295557E+03  0.65413270094E+02 0.  0.
        254    2    1    2    0    0 -0.33192116963E+03  0.17452967908E+03  0.94491284697E+03  0.13569164966E+04  0.89873790320E+03 0.  0.
         23    2    4    4    0    0 -0.18892842984E+03  0.61624736703E+02  0.10879475322E+04  0.11097082067E+04  0.91273826558E+02 0.  0.
         23    2    4    4    0    0 -0.14299273978E+03  0.11290494238E+03 -0.14303468527E+03  0.24720828986E+03  0.86362999829E+02 0.  0.
          4    1    3    3  502    0  0.18222030641E+03 -0.91444857958E+02  0.22495977299E+03  0.30360056255E+03  0.00000000000E+00 0. -1.
         -3    1    3    3    0  502  0.14970086322E+03 -0.83084821120E+02  0.11036860502E+03  0.20370239302E+03  0.00000000000E+00 0.  1.
         13    1    5    5    0    0 -0.12320588834E+03  0.79587175575E+02  0.83293354448E+03  0.84574943036E+03  0.00000000000E+00 0.  1.
        -13    1    5    5    0    0 -0.65722541502E+02 -0.17962438873E+02  0.25501398776E+03  0.26395877638E+03  0.00000000000E+00 0. -1.
          4    1    6    6  503    0  0.49296037942E+01  0.29873908338E+02 -0.10880141305E+02  0.32173418652E+02  0.00000000000E+00 0. -1.
         -4    1    6    6    0  503 -0.14792234358E+03  0.83031034037E+02 -0.13215454397E+03  0.21503487121E+03  0.00000000000E+00 0.  1.
<mgrwt>
<rscale>  0 0.13551002E+04</rscale>
<asrwt>0</asrwt>
<pdfrwt beam="1">  1        2 0.44921403E-01 0.13551002E+04</pdfrwt>
<pdfrwt beam="2">  1       -1 0.24188158E+00 0.13551002E+04</pdfrwt>
<totfact> 0.99830165E+00</totfact>
</mgrwt>
</event>
<event>
12    7  0.1572140E-007  0.2106951E+04  0.7818608E-02  0.8558187E-01
         -1   -1    0    0    0  501 -0.00000000000E+00  0.00000000000E+00  0.11354384826E+04  0.11354384826E+04  0.00000000000E+00 0.  1.
          2   -1    0    0  501    0  0.00000000000E+00 -0.00000000000E+00 -0.97742930494E+03  0.97742930494E+03  0.00000000000E+00 0. -1.
         24    2    1    2    0    0  0.48462381132E+03  0.69395853702E+03 -0.98532316138E+02  0.85542186219E+03  0.74828172437E+02 0.  0.
        254    2    1    2    0    0 -0.48462381132E+03 -0.69395853702E+03  0.25654149378E+03  0.12574459253E+04  0.89382214535E+03 0.  0.
         23    2    4    4    0    0  0.23753386414E+03 -0.16299922166E+03 -0.48823989349E+02  0.30624351325E+03  0.91707276711E+02 0.  0.
         23    2    4    4    0    0 -0.72215767546E+03 -0.53095931536E+03  0.30536548312E+03  0.95120241208E+03  0.90046919277E+02 0.  0.
          2    1    3    3  502    0  0.41481541597E+03  0.63258485726E+03 -0.94989757548E+02  0.76240309876E+03  0.00000000000E+00 0. -1.
         -1    1    3    3    0  502  0.69808395352E+02  0.61373679756E+02 -0.35425585908E+01  0.93018763429E+02  0.00000000000E+00 0.  1.
         13    1    5    5    0    0  0.15269418762E+03 -0.61069583820E+02  0.13299088527E+01  0.16445904554E+03  0.00000000000E+00 0. -1.
        -13    1    5    5    0    0  0.84839676513E+02 -0.10192963784E+03 -0.50153898202E+02  0.14178446772E+03  0.00000000000E+00 0.  1.
          3    1    6    6  503    0 -0.70669595363E+03 -0.50267949125E+03  0.28410200986E+03  0.91258960864E+03  0.00000000000E+00 0. -1.
         -3    1    6    6    0  503 -0.15461721825E+02 -0.28279824111E+02  0.21263473270E+02  0.38612803434E+02  0.00000000000E+00 0.  1.
<mgrwt>
<rscale>  0 0.21069512E+04</rscale>
<asrwt>0</asrwt>
<pdfrwt beam="1">  1        2 0.15037374E+00 0.21069512E+04</pdfrwt>
<pdfrwt beam="2">  1       -1 0.17468284E+00 0.21069512E+04</pdfrwt>
<totfact> 0.62230690E+00</totfact>
</mgrwt>
</event>
<event>
12    7  0.1572140E-007  0.2062453E+04  0.7818608E-02  0.8577966E-01
          2   -1    0    0  501    0  0.00000000000E+00  0.00000000000E+00  0.40274245638E+04  0.40274245638E+04  0.00000000000E+00 0. -1.
         -1   -1    0    0    0  501 -0.00000000000E+00 -0.00000000000E+00 -0.26404658479E+03  0.26404658479E+03  0.00000000000E+00 0.  1.
         24    2    1    2    0    0  0.55200642379E+03 -0.25815752160E+03  0.26986532860E+04  0.27677549580E+04  0.79884617447E+02 0.  0.
        254    2    1    2    0    0 -0.55200642379E+03  0.25815752160E+03  0.10647246931E+04  0.15237161906E+04  0.90372338660E+03 0.  0.
         23    2    4    4    0    0  0.65609908377E+01  0.38624318084E+03  0.78460453016E+03  0.87937431196E+03  0.92022119300E+02 0.  0.
         23    2    4    4    0    0 -0.55856741463E+03 -0.12808565925E+03  0.28012016289E+03  0.64434187859E+03  0.91135383127E+02 0.  0.
          4    1    3    3  502    0  0.48600058016E+03 -0.20652241525E+03  0.24105198903E+04  0.24676819514E+04  0.00000000000E+00 0. -1.
         -3    1    3    3    0  502  0.66005843630E+02 -0.51635106353E+02  0.28813339568E+03  0.30007300663E+03  0.00000000000E+00 0.  1.
         13    1    5    5    0    0  0.25149042832E+02  0.37397275156E+03  0.74248813216E+03  0.83173115828E+03  0.00000000000E+00 0. -1.
        -13    1    5    5    0    0 -0.18588051994E+02  0.12270429288E+02  0.42116398004E+02  0.47643153681E+02  0.00000000000E+00 0.  1.
          3    1    6    6  503    0 -0.37358830339E+03 -0.51552323375E+02  0.15164402167E+03  0.40647481076E+03  0.00000000000E+00 0. -1.
         -3    1    6    6    0  503 -0.18497911124E+03 -0.76533335870E+02  0.12847614123E+03  0.23786706783E+03  0.00000000000E+00 0.  1.
<mgrwt>
<rscale>  0 0.20624526E+04</rscale>
<asrwt>0</asrwt>
<pdfrwt beam="1">  1        2 0.61960374E+00 0.20624526E+04</pdfrwt>
<pdfrwt beam="2">  1       -1 0.40622554E-01 0.20624526E+04</pdfrwt>
<totfact> 0.20439876E+00</totfact>
</mgrwt>
</event>
<event>
12    7  0.1572140E-007  0.1365908E+04  0.7818608E-02  0.8978873E-01
          4   -1    0    0  501    0  0.00000000000E+00  0.00000000000E+00  0.56788707868E+03  0.56788707868E+03  0.00000000000E+00 0. -1.
         -3   -1    0    0    0  501 -0.00000000000E+00 -0.00000000000E+00 -0.82133611252E+03  0.82133611252E+03  0.00000000000E+00 0.  1.
         24    2    1    2    0    0  0.12759584528E+03 -0.15519849190E+03 -0.39654942404E+03  0.45172617066E+03  0.80236001493E+02 0.  0.
        254    2    1    2    0    0 -0.12759584528E+03  0.15519849190E+03  0.14310039019E+03  0.93749702054E+03  0.90446430014E+03 0.  0.
         23    2    4    4    0    0  0.31238313385E+03 -0.17176482540E+03  0.10141813811E+03  0.38028233735E+03  0.85103700262E+02 0.  0.
         23    2    4    4    0    0 -0.43997897913E+03  0.32696331730E+03  0.41682252081E+02  0.55721468319E+03  0.90908085940E+02 0.  0.
          4    1    3    3  502    0  0.10473743400E+02 -0.22925611628E+02 -0.10758030211E+02  0.27404710970E+02  0.00000000000E+00 0. -1.
         -3    1    3    3    0  502  0.11712210188E+03 -0.13227288027E+03 -0.38579139383E+03  0.42432145969E+03  0.00000000000E+00 0.  1.
         13    1    5    5    0    0  0.31153288098E+03 -0.17554242866E+03  0.90733831775E+02  0.36891802399E+03  0.00000000000E+00 0.  1.
        -13    1    5    5    0    0  0.85025287129E+00  0.37776032571E+01  0.10684306334E+02  0.11364313361E+02  0.00000000000E+00 0. -1.
          4    1    6    6  503    0 -0.56472482848E+02  0.29126232628E+02 -0.22517258677E+02  0.67412948937E+02  0.00000000000E+00 0. -1.
         -4    1    6    6    0  503 -0.38350649629E+03  0.29783708467E+03  0.64199510758E+02  0.48980173426E+03  0.00000000000E+00 0.  1.
<mgrwt>
<rscale>  0 0.13659080E+04</rscale>
<asrwt>0</asrwt>
<pdfrwt beam="1">  1        4 0.87367243E-01 0.13659080E+04</pdfrwt>
<pdfrwt beam="2">  1       -3 0.12635940E+00 0.13659080E+04</pdfrwt>
<totfact> 0.12601183E+00</totfact>
</mgrwt>
</event>
<event>
12    7  0.1572140E-007  0.1783879E+04  0.7818608E-02  0.8714920E-01
          2   -1    0    0  501    0  0.00000000000E+00  0.00000000000E+00  0.21930199152E+04  0.21930199152E+04  0.00000000000E+00 0. -1.
         -1   -1    0    0    0  501 -0.00000000000E+00 -0.00000000000E+00 -0.36276724135E+03  0.36276724135E+03  0.00000000000E+00 0.  1.
         24    2    1    2    0    0 -0.35309205695E+03  0.29645686885E+03  0.13544443004E+04  0.14327792269E+04  0.76001805033E+02 0.  0.
        254    2    1    2    0    0  0.35309205695E+03 -0.29645686885E+03  0.47580837349E+03  0.11230079297E+04  0.90674832566E+03 0.  0.
         23    2    4    4    0    0  0.26095908972E+03 -0.37713792381E+02  0.70172208922E+03  0.75455115716E+03  0.86090543239E+02 0.  0.
         23    2    4    4    0    0  0.92132967232E+02 -0.25874307647E+03 -0.22591371573E+03  0.36845677253E+03  0.96368682661E+02 0.  0.
          2    1    3    3  502    0 -0.35040283299E+03  0.27823504868E+03  0.12750701178E+04  0.13512959310E+04  0.00000000000E+00 0. -1.
         -1    1    3    3    0  502 -0.26892239618E+01  0.18221820167E+02  0.79374182571E+02  0.81483295923E+02  0.00000000000E+00 0.  1.
         13    1    5    5    0    0  0.79868562339E+02  0.10539584337E+01  0.32632713045E+03  0.33596055445E+03  0.00000000000E+00 0.  1.
        -13    1    5    5    0    0  0.18109052738E+03 -0.38767750814E+02  0.37539495877E+03  0.41859060271E+03  0.00000000000E+00 0. -1.
          1    1    6    6  503    0 -0.90726702009E+01 -0.10549607035E+03 -0.64714448546E+02  0.12409550377E+03  0.00000000000E+00 0. -1.
         -1    1    6    6    0  503  0.10120563743E+03 -0.15324700611E+03 -0.16119926718E+03  0.24436126876E+03  0.00000000000E+00 0.  1.
<mgrwt>
<rscale>  0 0.17838787E+04</rscale>
<asrwt>0</asrwt>
<pdfrwt beam="1">  1        2 0.33738767E+00 0.17838787E+04</pdfrwt>
<pdfrwt beam="2">  1       -1 0.55810346E-01 0.17838787E+04</pdfrwt>
<totfact> 0.18219937E+01</totfact>
</mgrwt>
</event>
<event>
12    7  0.1572140E-007  0.1496816E+04  0.7818608E-02  0.8886573E-01
         -1   -1    0    0    0  501 -0.00000000000E+00  0.00000000000E+00  0.20083465299E+03  0.20083465299E+03  0.00000000000E+00 0.  1.
          2   -1    0    0  501    0  0.00000000000E+00 -0.00000000000E+00 -0.27889334401E+04  0.27889334401E+04  0.00000000000E+00 0. -1.
         24    2    1    2    0    0  0.35087316428E+03 -0.41977460163E+02 -0.20026918796E+03  0.41384626749E+03  0.79289979827E+02 0.  0.
        254    2    1    2    0    0 -0.35087316428E+03  0.41977460163E+02 -0.23878295992E+04  0.25759218256E+04  0.89931583576E+03 0.  0.
         23    2    4    4    0    0 -0.14451941298E+03 -0.40764901306E+03 -0.13892926390E+04  0.14578518331E+04  0.90190642782E+02 0.  0.
         23    2    4    4    0    0 -0.20635375129E+03  0.44962647322E+03 -0.99853696017E+03  0.11180699925E+04  0.90876901047E+02 0.  0.
          2    1    3    3  502    0  0.15741281200E+03 -0.50674578440E+02 -0.11947598628E+03  0.20401278778E+03  0.00000000000E+00 0. -1.
         -1    1    3    3    0  502  0.19346035228E+03  0.86971182769E+01 -0.80793201679E+02  0.20983347971E+03  0.00000000000E+00 0.  1.
         13    1    5    5    0    0 -0.59458183721E+02 -0.25427630997E+03 -0.93823694134E+03  0.97389952023E+03  0.00000000000E+00 0.  1.
        -13    1    5    5    0    0 -0.85061229261E+02 -0.15337270309E+03 -0.45105569766E+03  0.48395231290E+03  0.00000000000E+00 0. -1.
          3    1    6    6  503    0 -0.19388736004E+03  0.43982404368E+03 -0.98886125371E+03  0.10994926452E+04  0.00000000000E+00 0. -1.
         -3    1    6    6    0  503 -0.12466391250E+02  0.98024295439E+01 -0.96757064597E+01  0.18577347261E+02  0.00000000000E+00 0.  1.
<mgrwt>
<rscale>  0 0.14968159E+04</rscale>
<asrwt>0</asrwt>
<pdfrwt beam="1">  1        2 0.42906670E+00 0.14968159E+04</pdfrwt>
<pdfrwt beam="2">  1       -1 0.30897638E-01 0.14968159E+04</pdfrwt>
<totfact> 0.25167591E+01</totfact>
</mgrwt>
</event>
<event>
12    7  0.1572140E-007  0.1761771E+04  0.7818608E-02  0.8726898E-01
         -1   -1    0    0    0  501 -0.00000000000E+00  0.00000000000E+00  0.24572831898E+03  0.24572831898E+03  0.00000000000E+00 0.  1.
          2   -1    0    0  501    0  0.00000000000E+00 -0.00000000000E+00 -0.31577934967E+04  0.31577934967E+04  0.00000000000E+00 0. -1.
         24    2    1    2    0    0 -0.61774895710E+03 -0.29851151864E+02 -0.15207291025E+04  0.16437387793E+04  0.82190669567E+02 0.  0.
        254    2    1    2    0    0  0.61774895710E+03  0.29851151864E+02 -0.13913360752E+04  0.17597830364E+04  0.88233519457E+03 0.  0.
         23    2    4    4    0    0  0.30535145130E+03  0.38507411588E+03 -0.34379090800E+03  0.60678248611E+03  0.92039195431E+02 0.  0.
         23    2    4    4    0    0  0.31239750580E+03 -0.35522296402E+03 -0.10475451672E+04  0.11530005502E+04  0.91015579489E+02 0.  0.
          2    1    3    3  502    0 -0.38313742217E+03 -0.31592828043E+02 -0.84223217699E+03  0.92582256994E+03  0.00000000000E+00 0. -1.
         -1    1    3    3    0  502 -0.23461153493E+03  0.17416761785E+01 -0.67849692547E+03  0.71791620934E+03  0.00000000000E+00 0.  1.
         13    1    5    5    0    0  0.27884912125E+03  0.29464399558E+03 -0.28331304693E+03  0.49481127627E+03  0.00000000000E+00 0. -1.
        -13    1    5    5    0    0  0.26502330046E+02  0.90430120300E+02 -0.60477861066E+02  0.11197120985E+03  0.00000000000E+00 0.  1.
          4    1    6    6  503    0  0.28164032420E+03 -0.35199188501E+03 -0.98055060533E+03  0.10792122354E+04  0.00000000000E+00 0. -1.
         -4    1    6    6    0  503  0.30757181601E+02 -0.32310790026E+01 -0.66994561889E+02  0.73788314890E+02  0.00000000000E+00 0.  1.
<mgrwt>
<rscale>  0 0.17617710E+04</rscale>
<asrwt>0</asrwt>
<pdfrwt beam="1">  1        2 0.48581436E+00 0.17617710E+04</pdfrwt>
<pdfrwt beam="2">  1       -1 0.37804359E-01 0.17617710E+04</pdfrwt>
<totfact> 0.10110184E+01</totfact>
</mgrwt>
</event>
<event>
12    7  0.1572140E-007  0.3127391E+04  0.7818608E-02  0.8208261E-01
          2   -1    0    0  501    0  0.00000000000E+00  0.00000000000E+00  0.27618299524E+04  0.27618299524E+04  0.00000000000E+00 0. -1.
         -1   -1    0    0    0  501 -0.00000000000E+00 -0.00000000000E+00 -0.88533455963E+03  0.88533455963E+03  0.00000000000E+00 0.  1.
         24    2    1    2    0    0  0.12440077652E+04  0.63715205063E+03  0.49199586905E+03  0.14842313763E+04  0.85818342038E+02 0.  0.
        254    2    1    2    0    0 -0.12440077652E+04 -0.63715205063E+03  0.13844995237E+04  0.21629331357E+04  0.89884523849E+03 0.  0.
         23    2    4    4    0    0 -0.10539144696E+04 -0.62582736488E+03  0.14857649543E+04  0.19284269531E+04  0.94537898019E+02 0.  0.
         23    2    4    4    0    0 -0.19009329564E+03 -0.11324685746E+02 -0.10126543058E+03  0.23450618260E+03  0.92058419992E+02 0.  0.
          4    1    3    3  502    0  0.12157502469E+04  0.62263369398E+03  0.46611555357E+03  0.14432550326E+04  0.00000000000E+00 0. -1.
         -3    1    3    3    0  502  0.28257518313E+02  0.14518356650E+02  0.25880315477E+02  0.40976343787E+02  0.00000000000E+00 0.  1.
         13    1    5    5    0    0 -0.10303839678E+04 -0.59267265878E+03  0.14390103480E+04  0.18664679968E+04  0.00000000000E+00 0. -1.
        -13    1    5    5    0    0 -0.23530501815E+02 -0.33154706106E+02  0.46754606322E+02  0.61958956294E+02  0.00000000000E+00 0.  1.
          1    1    6    6  503    0 -0.94856212799E+02 -0.47070482484E+02 -0.74012419807E+02  0.12919430991E+03  0.00000000000E+00 0. -1.
         -1    1    6    6    0  503 -0.95237082844E+02  0.35745796738E+02 -0.27253010777E+02  0.10531187269E+03  0.00000000000E+00 0.  1.
<mgrwt>
<rscale>  0 0.31273909E+04</rscale>
<asrwt>0</asrwt>
<pdfrwt beam="1">  1        2 0.42489691E+00 0.31273909E+04</pdfrwt>
<pdfrwt beam="2">  1       -1 0.13620532E+00 0.31273909E+04</pdfrwt>
<totfact> 0.10561881E+00</totfact>
</mgrwt>
</event>
<event>
12    7  0.1572140E-007  0.2059239E+04  0.7818608E-02  0.8579415E-01
         -1   -1    0    0    0  501 -0.00000000000E+00  0.00000000000E+00  0.87779324594E+03  0.87779324594E+03  0.00000000000E+00 0.  1.
          2   -1    0    0  501    0  0.00000000000E+00 -0.00000000000E+00 -0.12077060755E+04  0.12077060755E+04  0.00000000000E+00 0. -1.
         24    2    1    2    0    0  0.80086383802E+03  0.22072105131E+03 -0.70894340374E+02  0.83769858844E+03  0.81315730581E+02 0.  0.
        254    2    1    2    0    0 -0.80086383802E+03 -0.22072105131E+03 -0.25901848919E+03  0.12478007330E+04  0.89432400283E+03 0.  0.
         23    2    4    4    0    0 -0.34625823084E+02  0.28228583926E+03 -0.85053842835E+02  0.31049884085E+03  0.91055649576E+02 0.  0.
         23    2    4    4    0    0 -0.76623801493E+03 -0.50300689056E+03 -0.17396464636E+03  0.93730189217E+03  0.90191526211E+02 0.  0.
          4    1    3    3  502    0  0.24655149639E+03  0.39028210628E+02  0.34815264432E+01  0.24964567415E+03  0.00000000000E+00 0. -1.
         -3    1    3    3    0  502  0.55431234163E+03  0.18169284068E+03 -0.74375866818E+02  0.58805291429E+03  0.00000000000E+00 0.  1.
         13    1    5    5    0    0  0.30629570159E+02  0.67758704024E+02 -0.23091129162E+02  0.77862781771E+02  0.00000000000E+00 0. -1.
        -13    1    5    5    0    0 -0.65255393244E+02  0.21452713523E+03 -0.61962713673E+02  0.23263605908E+03  0.00000000000E+00 0.  1.
          2    1    6    6  503    0 -0.52336913931E+03 -0.30591455540E+03 -0.14404297575E+03  0.62309497675E+03  0.00000000000E+00 0. -1.
         -2    1    6    6    0  503 -0.24286887563E+03 -0.19709233516E+03 -0.29921670608E+02  0.31420691542E+03  0.00000000000E+00 0.  1.
<mgrwt>
<rscale>  0 0.20592389E+04</rscale>
<asrwt>0</asrwt>
<pdfrwt beam="1">  1        2 0.18580093E+00 0.20592389E+04</pdfrwt>
<pdfrwt beam="2">  1       -1 0.13504512E+00 0.20592389E+04</pdfrwt>
<totfact> 0.90931741E+00</totfact>
</mgrwt>
</event>
<event>
12    7  0.1572140E-007  0.1195499E+04  0.7818608E-02  0.9116805E-01
          2   -1    0    0  501    0  0.00000000000E+00  0.00000000000E+00  0.12132448501E+04  0.12132448501E+04  0.00000000000E+00 0. -1.
         -1   -1    0    0    0  501 -0.00000000000E+00 -0.00000000000E+00 -0.29450323819E+03  0.29450323819E+03  0.00000000000E+00 0.  1.
         24    2    1    2    0    0 -0.14351823097E+03 -0.91256791264E+02 -0.26279702305E+02  0.18949988031E+03  0.79336607640E+02 0.  0.
        254    2    1    2    0    0  0.14351823097E+03  0.91256791264E+02  0.94502131418E+03  0.13182482079E+04  0.90320970372E+03 0.  0.
         23    2    4    4    0    0  0.15860096525E+03 -0.23856287097E+03 -0.13002134385E+02  0.30108231532E+03  0.91733284688E+02 0.  0.
         23    2    4    4    0    0 -0.15082734281E+02  0.32981966223E+03  0.95802344856E+03  0.10171658926E+04  0.88368697057E+02 0.  0.
          2    1    3    3  502    0 -0.15036641476E+02 -0.11298102036E+02  0.23584486185E+02  0.30165803240E+02  0.00000000000E+00 0. -1.
         -1    1    3    3    0  502 -0.12848158950E+03 -0.79958689228E+02 -0.49864188490E+02  0.15933407707E+03  0.00000000000E+00 0.  1.
         13    1    5    5    0    0  0.16043835144E+03 -0.17603429815E+03 -0.12900930059E+02  0.23852667091E+03  0.00000000000E+00 0.  1.
        -13    1    5    5    0    0 -0.18373861833E+01 -0.62528572814E+02 -0.10120432561E+00  0.62555644418E+02  0.00000000000E+00 0. -1.
          4    1    6    6  503    0 -0.36723326091E+01  0.39175268472E+02  0.49597969076E+02  0.63309921996E+02  0.00000000000E+00 0. -1.
         -4    1    6    6    0  503 -0.11410401672E+02  0.29064439376E+03  0.90842547949E+03  0.95385597061E+03  0.00000000000E+00 0.  1.
<mgrwt>
<rscale>  0 0.11954991E+04</rscale>
<asrwt>0</asrwt>
<pdfrwt beam="1">  1        2 0.18665305E+00 0.11954991E+04</pdfrwt>
<pdfrwt beam="2">  1       -1 0.45308191E-01 0.11954991E+04</pdfrwt>
<totfact> 0.10114097E+02</totfact>
</mgrwt>
</event>
<event>
12    7  0.1572140E-007  0.1525328E+04  0.7818608E-02  0.8867783E-01
          2   -1    0    0  501    0  0.00000000000E+00  0.00000000000E+00  0.10633752253E+04  0.10633752253E+04  0.00000000000E+00 0. -1.
         -1   -1    0    0    0  501 -0.00000000000E+00 -0.00000000000E+00 -0.54699065451E+03  0.54699065451E+03  0.00000000000E+00 0.  1.
         24    2    1    2    0    0 -0.30640611934E+03  0.12310715486E+03 -0.21426853751E+03  0.40393819901E+03  0.90636531832E+02 0.  0.
        254    2    1    2    0    0  0.30640611934E+03 -0.12310715486E+03  0.73065310828E+03  0.12064276808E+04  0.90142870089E+03 0.  0.
         23    2    4    4    0    0  0.58041765283E+03 -0.14265060976E+02  0.25763872348E+03  0.64183124370E+03  0.92095004597E+02 0.  0.
         23    2    4    4    0    0 -0.27401153349E+03 -0.10884209389E+03  0.47301438480E+03  0.56459643709E+03  0.89986702665E+02 0.  0.
          2    1    3    3  502    0 -0.87412150701E+02  0.21663630314E+02 -0.15726957917E+02  0.91419550283E+02  0.00000000000E+00 0. -1.
         -1    1    3    3    0  502 -0.21899396864E+03  0.10144352455E+03 -0.19854157959E+03  0.31251864872E+03  0.00000000000E+00 0.  1.
         13    1    5    5    0    0  0.14984644762E+03 -0.34368854222E+02  0.39469711596E+02  0.15872313675E+03  0.00000000000E+00 0.  1.
        -13    1    5    5    0    0  0.43057120521E+03  0.20103793246E+02  0.21816901188E+03  0.48310810696E+03  0.00000000000E+00 0. -1.
          2    1    6    6  503    0 -0.12296124999E+03 -0.97229819454E+02  0.24277568167E+03  0.28898639829E+03  0.00000000000E+00 0. -1.
         -2    1    6    6    0  503 -0.15105028350E+03 -0.11612274433E+02  0.23023870314E+03  0.27561003880E+03  0.00000000000E+00 0.  1.
<mgrwt>
<rscale>  0 0.15253279E+04</rscale>
<asrwt>0</asrwt>
<pdfrwt beam="1">  1        2 0.16359619E+00 0.15253279E+04</pdfrwt>
<pdfrwt beam="2">  1       -1 0.84152409E-01 0.15253279E+04</pdfrwt>
<totfact> 0.35345557E+01</totfact>
</mgrwt>
</event>
<event>
12    7  0.1572140E-007  0.1618504E+04  0.7818608E-02  0.8809260E-01
          2   -1    0    0  501    0  0.00000000000E+00  0.00000000000E+00  0.86805880670E+03  0.86805880670E+03  0.00000000000E+00 0. -1.
         -1   -1    0    0    0  501 -0.00000000000E+00 -0.00000000000E+00 -0.75442907415E+03  0.75442907415E+03  0.00000000000E+00 0.  1.
         24    2    1    2    0    0  0.76018374196E+02 -0.27976845764E+03  0.51440506865E+03  0.59576640309E+03  0.79220258151E+02 0.  0.
        254    2    1    2    0    0 -0.76018374196E+02  0.27976845764E+03 -0.40077533610E+03  0.10267214778E+04  0.89971492139E+03 0.  0.
         23    2    4    4    0    0  0.27221923037E+03  0.24559656805E+03  0.11402807142E+03  0.39756423447E+03  0.10312097673E+03 0.  0.
         23    2    4    4    0    0 -0.34823760457E+03  0.34171889592E+02 -0.51480340751E+03  0.62915724329E+03  0.91537648640E+02 0.  0.
          2    1    3    3  502    0  0.92307046407E+02 -0.23465765873E+03  0.44325505703E+03  0.50996063888E+03  0.00000000000E+00 0. -1.
         -1    1    3    3    0  502 -0.16288672211E+02 -0.45110798906E+02  0.71150011612E+02  0.85805764216E+02  0.00000000000E+00 0.  1.
         13    1    5    5    0    0  0.64647374652E+02  0.11703413448E+03  0.16786057416E+02  0.13475178443E+03  0.00000000000E+00 0. -1.
        -13    1    5    5    0    0  0.20757185572E+03  0.12856243356E+03  0.97242014002E+02  0.26281245004E+03  0.00000000000E+00 0.  1.
          1    1    6    6  503    0 -0.37463536201E+02 -0.25386104905E+02 -0.63865636337E+02  0.78273816642E+02  0.00000000000E+00 0. -1.
         -1    1    6    6    0  503 -0.31077406837E+03  0.59557994497E+02 -0.45093777118E+03  0.55088342664E+03  0.00000000000E+00 0.  1.
<mgrwt>
<rscale>  0 0.16185040E+04</rscale>
<asrwt>0</asrwt>
<pdfrwt beam="1">  1        2 0.13354751E+00 0.16185040E+04</pdfrwt>
<pdfrwt beam="2">  1       -1 0.11606601E+00 0.16185040E+04</pdfrwt>
<totfact> 0.22630284E+01</totfact>
</mgrwt>
</event>
<event>
12    7  0.1572140E-007  0.2018971E+04  0.7818608E-02  0.8597802E-01
         -1   -1    0    0    0  501 -0.00000000000E+00  0.00000000000E+00  0.79905065355E+03  0.79905065355E+03  0.00000000000E+00 0.  1.
          2   -1    0    0  501    0  0.00000000000E+00 -0.00000000000E+00 -0.12753398014E+04  0.12753398014E+04  0.00000000000E+00 0. -1.
         24    2    1    2    0    0 -0.11404794960E+03 -0.78800939199E+03 -0.58414471586E+02  0.80069324011E+03  0.61087458524E+02 0.  0.
        254    2    1    2    0    0  0.11404794960E+03  0.78800939199E+03 -0.41787467624E+03  0.12736972148E+04  0.90206408494E+03 0.  0.
         23    2    4    4    0    0  0.25685204500E+03  0.81874385291E+02  0.17723816288E+03  0.33486886839E+03  0.89707327753E+02 0.  0.
         23    2    4    4    0    0 -0.14280409539E+03  0.70613500670E+03 -0.59511283912E+03  0.93882834643E+03  0.90662646274E+02 0.  0.
          2    1    3    3  502    0 -0.90766215086E+02 -0.73102175157E+03 -0.60347534938E+02  0.73910292385E+03  0.00000000000E+00 0. -1.
         -1    1    3    3    0  502 -0.23281734516E+02 -0.56987640417E+02  0.19330633521E+01  0.61590316254E+02  0.00000000000E+00 0.  1.
         13    1    5    5    0    0 -0.39729697960E+00  0.44693703397E+01  0.26395766012E+02  0.26774420246E+02  0.00000000000E+00 0. -1.
        -13    1    5    5    0    0  0.25724934198E+03  0.77405014952E+02  0.15084239687E+03  0.30809444815E+03  0.00000000000E+00 0.  1.
          4    1    6    6  503    0  0.50451597974E+01  0.16687634095E+03 -0.13639260570E+03  0.21558318510E+03  0.00000000000E+00 0. -1.
         -4    1    6    6    0  503 -0.14784925519E+03  0.53925866575E+03 -0.45872023342E+03  0.72324516133E+03  0.00000000000E+00 0.  1.
<mgrwt>
<rscale>  0 0.20189711E+04</rscale>
<asrwt>0</asrwt>
<pdfrwt beam="1">  1        2 0.19620612E+00 0.20189711E+04</pdfrwt>
<pdfrwt beam="2">  1       -1 0.12293087E+00 0.20189711E+04</pdfrwt>
<totfact> 0.10542722E+01</totfact>
</mgrwt>
</event>
<event>
12    7  0.1572140E-007  0.1279483E+04  0.7818608E-02  0.9045995E-01
          2   -1    0    0  501    0  0.00000000000E+00  0.00000000000E+00  0.36894258682E+04  0.36894258682E+04  0.00000000000E+00 0. -1.
         -1   -1    0    0    0  501 -0.00000000000E+00 -0.00000000000E+00 -0.11093035485E+03  0.11093035485E+03  0.00000000000E+00 0.  1.
         24    2    1    2    0    0  0.21338888148E+03  0.34758930489E+02  0.15177907053E+04  0.15352162620E+04  0.80357626774E+02 0.  0.
        254    2    1    2    0    0 -0.21338888148E+03 -0.34758930489E+02  0.20607048081E+04  0.22651399610E+04  0.91521130839E+03 0.  0.
         23    2    4    4    0    0 -0.22513653251E+03  0.29806061580E+03  0.17778380908E+04  0.18189627016E+04  0.91599364870E+02 0.  0.
         23    2    4    4    0    0  0.11747651023E+02 -0.33281954629E+03  0.28286671729E+03  0.44617725947E+03  0.90297892649E+02 0.  0.
          4    1    3    3  502    0  0.20398416156E+03  0.43955172581E+02  0.12659227653E+04  0.12830050830E+04  0.00000000000E+00 0. -1.
         -3    1    3    3    0  502  0.94047199236E+01 -0.91962420925E+01  0.25186794002E+03  0.25221117905E+03  0.00000000000E+00 0.  1.
         13    1    5    5    0    0 -0.23008515924E+03  0.26901445767E+03  0.16744087749E+04  0.17114183312E+04  0.00000000000E+00 0. -1.
        -13    1    5    5    0    0  0.49486267321E+01  0.29046158135E+02  0.10342931589E+03  0.10754437035E+03  0.00000000000E+00 0.  1.
          1    1    6    6  503    0  0.49009561079E+02 -0.21880926913E+03  0.19921260659E+03  0.29994182095E+03  0.00000000000E+00 0. -1.
         -1    1    6    6    0  503 -0.37261910056E+02 -0.11401027716E+03  0.83654110706E+02  0.14623543852E+03  0.00000000000E+00 0.  1.
<mgrwt>
<rscale>  0 0.12794832E+04</rscale>
<asrwt>0</asrwt>
<pdfrwt beam="1">  1        2 0.56760389E+00 0.12794832E+04</pdfrwt>
<pdfrwt beam="2">  1       -1 0.17066211E-01 0.12794832E+04</pdfrwt>
<totfact> 0.18161695E+01</totfact>
</mgrwt>
</event>
<event>
12    7  0.1572140E-007  0.1152563E+04  0.7818608E-02  0.9155422E-01
          2   -1    0    0  501    0  0.00000000000E+00  0.00000000000E+00  0.44789757045E+03  0.44789757045E+03  0.00000000000E+00 0. -1.
         -1   -1    0    0    0  501 -0.00000000000E+00 -0.00000000000E+00 -0.74146556511E+03  0.74146556511E+03  0.00000000000E+00 0.  1.
         24    2    1    2    0    0  0.20410858037E+03  0.59023153201E+02 -0.69124587966E+02  0.23731037915E+03  0.79962254834E+02 0.  0.
        254    2    1    2    0    0 -0.20410858037E+03 -0.59023153201E+02 -0.22444340669E+03  0.95205275640E+03  0.90049184503E+03 0.  0.
         23    2    4    4    0    0 -0.44443767393E+03 -0.23976971881E+02  0.16573461175E+03  0.48358523914E+03  0.91032855582E+02 0.  0.
         23    2    4    4    0    0  0.24032909356E+03 -0.35046181320E+02 -0.39017801844E+03  0.46846751726E+03  0.90755829684E+02 0.  0.
          2    1    3    3  502    0  0.41282032958E+02 -0.97492897025E+01  0.10114853813E+02  0.43606939385E+02  0.00000000000E+00 0. -1.
         -1    1    3    3    0  502  0.16282654741E+03  0.68772442903E+02 -0.79239441778E+02  0.19370343977E+03  0.00000000000E+00 0.  1.
         13    1    5    5    0    0 -0.10759059255E+03  0.15370128006E+02  0.76492796067E+02  0.13290268730E+03  0.00000000000E+00 0. -1.
        -13    1    5    5    0    0 -0.33684708138E+03 -0.39347099886E+02  0.89241815684E+02  0.35068255184E+03  0.00000000000E+00 0.  1.
          3    1    6    6  503    0  0.53100942606E+02  0.25788793220E+02 -0.60807502087E+02  0.84748594510E+02  0.00000000000E+00 0. -1.
         -3    1    6    6    0  503  0.18722815095E+03 -0.60834974540E+02 -0.32937051635E+03  0.38371892275E+03  0.00000000000E+00 0.  1.
<mgrwt>
<rscale>  0 0.11525634E+04</rscale>
<asrwt>0</asrwt>
<pdfrwt beam="1">  1        2 0.68907319E-01 0.11525634E+04</pdfrwt>
<pdfrwt beam="2">  1       -1 0.11407162E+00 0.11525634E+04</pdfrwt>
<totfact> 0.55438996E+01</totfact>
</mgrwt>
</event>
<event>
12    7  0.1572140E-007  0.1312613E+04  0.7818608E-02  0.9019622E-01
         -1   -1    0    0    0  501 -0.00000000000E+00  0.00000000000E+00  0.40650188835E+03  0.40650188835E+03  0.00000000000E+00 0.  1.
          2   -1    0    0  501    0  0.00000000000E+00 -0.00000000000E+00 -0.10596220672E+04  0.10596220672E+04  0.00000000000E+00 0. -1.
         24    2    1    2    0    0  0.25932360037E+03  0.11326619889E+03 -0.65077738365E+02  0.30811765157E+03  0.10306994546E+03 0.  0.
        254    2    1    2    0    0 -0.25932360037E+03 -0.11326619889E+03 -0.58804244051E+03  0.11580063040E+04  0.95661210884E+03 0.  0.
         23    2    4    4    0    0  0.26262515613E+03  0.12750805199E+03 -0.47577936954E+03  0.56548817710E+03  0.90446636199E+02 0.  0.
         23    2    4    4    0    0 -0.52194875650E+03 -0.24077425088E+03 -0.11226307097E+03  0.59251812692E+03  0.89844250366E+02 0.  0.
          2    1    3    3  502    0  0.59310380253E+01  0.13211412064E+02 -0.30161628377E+02  0.33458069985E+02  0.00000000000E+00 0. -1.
         -1    1    3    3    0  502  0.25339256234E+03  0.10005478683E+03 -0.34916109987E+02  0.27465958158E+03  0.00000000000E+00 0.  1.
         13    1    5    5    0    0  0.97639477828E+02  0.16323147234E+02 -0.22158106687E+03  0.24268927039E+03  0.00000000000E+00 0. -1.
        -13    1    5    5    0    0  0.16498567830E+03  0.11118490476E+03 -0.25419830267E+03  0.32279890671E+03  0.00000000000E+00 0.  1.
          3    1    6    6  503    0 -0.39562710586E+03 -0.15907462748E+03 -0.48628773890E+02  0.42917397597E+03  0.00000000000E+00 0. -1.
         -3    1    6    6    0  503 -0.12632165063E+03 -0.81699623407E+02 -0.63634297076E+02  0.16334415095E+03  0.00000000000E+00 0.  1.
<mgrwt>
<rscale>  0 0.13126132E+04</rscale>
<asrwt>0</asrwt>
<pdfrwt beam="1">  1        2 0.16301878E+00 0.13126132E+04</pdfrwt>
<pdfrwt beam="2">  1       -1 0.62538752E-01 0.13126132E+04</pdfrwt>
<totfact> 0.66874942E+01</totfact>
</mgrwt>
</event>
<event>
12    7  0.1572140E-007  0.1649729E+04  0.7818608E-02  0.8790567E-01
          2   -1    0    0  501    0  0.00000000000E+00  0.00000000000E+00  0.14357084844E+04  0.14357084844E+04  0.00000000000E+00 0. -1.
         -1   -1    0    0    0  501 -0.00000000000E+00 -0.00000000000E+00 -0.47391353988E+03  0.47391353988E+03  0.00000000000E+00 0.  1.
         24    2    1    2    0    0 -0.47079565081E+03  0.22823833960E+03  0.61197453136E+03  0.80903406849E+03  0.79259147456E+02 0.  0.
        254    2    1    2    0    0  0.47079565081E+03 -0.22823833960E+03  0.34982041316E+03  0.11005879558E+04  0.90287221825E+03 0.  0.
         23    2    4    4    0    0 -0.20363457191E+03 -0.23347494526E+03  0.25941768269E+03  0.41411715689E+03  0.90652615001E+02 0.  0.
         23    2    4    4    0    0  0.67443022271E+03  0.52366056551E+01  0.90402730477E+02  0.68647079890E+03  0.90476277087E+02 0.  0.
          2    1    3    3  502    0 -0.95210670692E+02  0.29470861327E+02  0.16135378066E+03  0.18965401661E+03  0.00000000000E+00 0. -1.
         -1    1    3    3    0  502 -0.37558498011E+03  0.19876747828E+03  0.45062075070E+03  0.61938005188E+03  0.00000000000E+00 0.  1.
         13    1    5    5    0    0  0.55115433331E+01 -0.29740490069E+02  0.17520696614E+02  0.34954951999E+02  0.00000000000E+00 0.  1.
        -13    1    5    5    0    0 -0.20914611524E+03 -0.20373445519E+03  0.24189698607E+03  0.37916220490E+03  0.00000000000E+00 0. -1.
          3    1    6    6  503    0  0.52740207439E+03 -0.31707032736E+01  0.33107940193E+02  0.52844974892E+03  0.00000000000E+00 0. -1.
         -3    1    6    6    0  503  0.14702814833E+03  0.84073089287E+01  0.57294790284E+02  0.15802104998E+03  0.00000000000E+00 0.  1.
<mgrwt>
<rscale>  0 0.16497293E+04</rscale>
<asrwt>0</asrwt>
<pdfrwt beam="1">  1        2 0.22087823E+00 0.16497293E+04</pdfrwt>
<pdfrwt beam="2">  1       -1 0.72909776E-01 0.16497293E+04</pdfrwt>
<totfact> 0.28506709E+01</totfact>
</mgrwt>
</event>
<event>
12    7  0.1572140E-007  0.1644273E+04  0.7818608E-02  0.8793802E-01
         -1   -1    0    0    0  501 -0.00000000000E+00  0.00000000000E+00  0.32559819791E+03  0.32559819791E+03  0.00000000000E+00 0.  1.
          2   -1    0    0  501    0  0.00000000000E+00 -0.00000000000E+00 -0.20758960636E+04  0.20758960636E+04  0.00000000000E+00 0. -1.
         24    2    1    2    0    0 -0.76237997295E+02 -0.16110987792E+03 -0.14111255903E+04  0.14246625116E+04  0.81358559169E+02 0.  0.
        254    2    1    2    0    0  0.76237997295E+02  0.16110987792E+03 -0.33917227531E+03  0.97683174991E+03  0.89855095031E+03 0.  0.
         23    2    4    4    0    0  0.17364287496E+03 -0.34248916803E+03 -0.12635304992E+03  0.41409785397E+03  0.89784526478E+02 0.  0.
         23    2    4    4    0    0 -0.97404877662E+02  0.50359904595E+03 -0.21281922539E+03  0.56273389594E+03  0.90981897494E+02 0.  0.
          4    1    3    3  502    0 -0.62491872977E+02 -0.16612139445E+03 -0.13583459790E+04  0.13698924595E+04  0.00000000000E+00 0. -1.
         -3    1    3    3    0  502 -0.13746124318E+02  0.50115165306E+01 -0.52779611300E+02  0.54770052042E+02  0.00000000000E+00 0.  1.
         13    1    5    5    0    0  0.38638342242E+02 -0.14168288834E+03 -0.14640101202E+02  0.14758487355E+03  0.00000000000E+00 0. -1.
        -13    1    5    5    0    0  0.13500453272E+03 -0.20080627969E+03 -0.11171294872E+03  0.26651298041E+03  0.00000000000E+00 0.  1.
          2    1    6    6  503    0 -0.10545797579E+03  0.50139479701E+03 -0.21140589631E+03  0.55426580277E+03  0.00000000000E+00 0. -1.
         -2    1    6    6    0  503  0.80530981324E+01  0.22042489456E+01 -0.14133290840E+01  0.84680931764E+01  0.00000000000E+00 0.  1.
<mgrwt>
<rscale>  0 0.16442725E+04</rscale>
<asrwt>0</asrwt>
<pdfrwt beam="1">  1        2 0.31936861E+00 0.16442725E+04</pdfrwt>
<pdfrwt beam="2">  1       -1 0.50092033E-01 0.16442725E+04</pdfrwt>
<totfact> 0.26396226E+01</totfact>
</mgrwt>
</event>
<event>
12    7  0.1572140E-007  0.1172008E+04  0.7818608E-02  0.9137717E-01
         -1   -1    0    0    0  501 -0.00000000000E+00  0.00000000000E+00  0.40812022522E+03  0.40812022522E+03  0.00000000000E+00 0.  1.
          2   -1    0    0  501    0  0.00000000000E+00 -0.00000000000E+00 -0.84142104810E+03  0.84142104810E+03  0.00000000000E+00 0. -1.
         24    2    1    2    0    0  0.33788724358E+02  0.22695656643E+03 -0.93182289908E+02  0.25862243592E+03  0.74509491132E+02 0.  0.
        254    2    1    2    0    0 -0.33788724358E+02 -0.22695656643E+03 -0.34011853298E+03  0.99091883740E+03  0.90199144392E+03 0.  0.
         23    2    4    4    0    0 -0.23477335692E+03 -0.17148842923E+03  0.22829343450E+03  0.37951815383E+03  0.85961191078E+02 0.  0.
         23    2    4    4    0    0  0.20098463256E+03 -0.55468137204E+02 -0.56841196748E+03  0.61140068357E+03  0.85129867433E+02 0.  0.
          2    1    3    3  502    0  0.41425926649E+02  0.18689365912E+03 -0.47207244580E+02  0.19716457886E+03  0.00000000000E+00 0. -1.
         -1    1    3    3    0  502 -0.76372022908E+01  0.40062907314E+02 -0.45975045328E+02  0.61457857058E+02  0.00000000000E+00 0.  1.
         13    1    5    5    0    0 -0.11616722861E+02 -0.41420130717E+02  0.18803503030E+02  0.46948346136E+02  0.00000000000E+00 0. -1.
        -13    1    5    5    0    0 -0.22315663406E+03 -0.13006829851E+03  0.20948993147E+03  0.33256980769E+03  0.00000000000E+00 0.  1.
          2    1    6    6  503    0  0.12425844967E+02  0.13331553519E+02 -0.10226956328E+03  0.10388067922E+03  0.00000000000E+00 0. -1.
         -2    1    6    6    0  503  0.18855878759E+03 -0.68799690723E+02 -0.46614240420E+03  0.50752000435E+03  0.00000000000E+00 0.  1.
<mgrwt>
<rscale>  0 0.11720084E+04</rscale>
<asrwt>0</asrwt>
<pdfrwt beam="1">  1        2 0.12944939E+00 0.11720084E+04</pdfrwt>
<pdfrwt beam="2">  1       -1 0.62787728E-01 0.11720084E+04</pdfrwt>
<totfact> 0.93428718E+01</totfact>
</mgrwt>
</event>
<event>
12    7  0.1572140E-007  0.1568290E+04  0.7818608E-02  0.8840269E-01
         -1   -1    0    0    0  501 -0.00000000000E+00  0.00000000000E+00  0.92751569604E+03  0.92751569604E+03  0.00000000000E+00 0.  1.
          2   -1    0    0  501    0  0.00000000000E+00 -0.00000000000E+00 -0.66293578740E+03  0.66293578740E+03  0.00000000000E+00 0. -1.
         24    2    1    2    0    0  0.42883897790E+03 -0.19875678558E+03  0.30611605319E+03  0.56829427549E+03  0.76447477102E+02 0.  0.
        254    2    1    2    0    0 -0.42883897790E+03  0.19875678558E+03 -0.41536144545E+02  0.10221572080E+04  0.90535792794E+03 0.  0.
         23    2    4    4    0    0  0.20943110151E+03  0.17160969743E+03 -0.21182343735E+03  0.35492254913E+03  0.88258556202E+02 0.  0.
         23    2    4    4    0    0 -0.63827007941E+03  0.27147088150E+02  0.17028729280E+03  0.66723465882E+03  0.89881417282E+02 0.  0.
          2    1    3    3  502    0  0.26219721295E+03 -0.13737084654E+03  0.23100397378E+03  0.37547431851E+03  0.00000000000E+00 0. -1.
         -1    1    3    3    0  502  0.16664176495E+03 -0.61385939033E+02  0.75112079410E+02  0.19281995698E+03  0.00000000000E+00 0.  1.
         13    1    5    5    0    0  0.10388869036E+03  0.14051023544E+03 -0.13124464670E+03  0.21854323036E+03  0.00000000000E+00 0.  1.
        -13    1    5    5    0    0  0.10554241115E+03  0.31099461985E+02 -0.80578790646E+02  0.13637931877E+03  0.00000000000E+00 0. -1.
          1    1    6    6  503    0 -0.63268165785E+02  0.29528453713E+02  0.12045838702E+02  0.70851200487E+02  0.00000000000E+00 0. -1.
         -1    1    6    6    0  503 -0.57500191363E+03 -0.23813655623E+01  0.15824145410E+03  0.59638345833E+03  0.00000000000E+00 0.  1.
<mgrwt>
<rscale>  0 0.15682900E+04</rscale>
<asrwt>0</asrwt>
<pdfrwt beam="1">  1        2 0.10199012E+00 0.15682900E+04</pdfrwt>
<pdfrwt beam="2">  1       -1 0.14269472E+00 0.15682900E+04</pdfrwt>
<totfact> 0.19207726E+01</totfact>
</mgrwt>
</event>
<event>
12    7  0.1572140E-007  0.2411277E+04  0.7818608E-02  0.8435294E-01
          2   -1    0    0  501    0  0.00000000000E+00  0.00000000000E+00  0.14054816937E+04  0.14054816937E+04  0.00000000000E+00 0. -1.
         -1   -1    0    0    0  501 -0.00000000000E+00 -0.00000000000E+00 -0.10342103028E+04  0.10342103028E+04  0.00000000000E+00 0.  1.
         24    2    1    2    0    0 -0.34461282692E+03 -0.27653635186E+03  0.11055883234E+04  0.11931345535E+04  0.77551064068E+02 0.  0.
        254    2    1    2    0    0  0.34461282692E+03  0.27653635186E+03 -0.73431693243E+03  0.12465574430E+04  0.90523684584E+03 0.  0.
         23    2    4    4    0    0  0.10766427142E+03  0.12529794644E+03  0.19448557876E+03  0.27112788025E+03  0.91621593400E+02 0.  0.
         23    2    4    4    0    0  0.23694855550E+03  0.15123840542E+03 -0.92880251119E+03  0.97542956276E+03  0.98848641235E+02 0.  0.
          4    1    3    3  502    0 -0.20193807143E+03 -0.19045711484E+03  0.76883311916E+03  0.81740887101E+03  0.00000000000E+00 0. -1.
         -3    1    3    3    0  502 -0.14267475549E+03 -0.86079237018E+02  0.33675520423E+03  0.37572568248E+03  0.00000000000E+00 0.  1.
         13    1    5    5    0    0  0.38844534267E+01  0.13578906723E+02  0.77929351719E+02  0.79198860760E+02  0.00000000000E+00 0. -1.
        -13    1    5    5    0    0  0.10377981799E+03  0.11171903972E+03  0.11655622704E+03  0.19192901949E+03  0.00000000000E+00 0.  1.
          4    1    6    6  503    0  0.13422674912E+03  0.73930643280E+02 -0.34283102692E+03  0.37552053634E+03  0.00000000000E+00 0. -1.
         -4    1    6    6    0  503  0.10272180638E+03  0.77307762137E+02 -0.58597148427E+03  0.59990902641E+03  0.00000000000E+00 0.  1.
<mgrwt>
<rscale>  0 0.24112765E+04</rscale>
<asrwt>0</asrwt>
<pdfrwt beam="1">  1        2 0.21622795E+00 0.24112765E+04</pdfrwt>
<pdfrwt beam="2">  1       -1 0.15910928E+00 0.24112765E+04</pdfrwt>
<totfact> 0.43649529E+00</totfact>
</mgrwt>
</event>
<event>
12    7  0.1572140E-007  0.1342806E+04  0.7818608E-02  0.8996292E-01
          2   -1    0    0  501    0  0.00000000000E+00  0.00000000000E+00  0.81411041049E+03  0.81411041049E+03  0.00000000000E+00 0. -1.
         -3   -1    0    0    0  501 -0.00000000000E+00 -0.00000000000E+00 -0.55371100258E+03  0.55371100258E+03  0.00000000000E+00 0.  1.
         24    2    1    2    0    0  0.28579156468E+03  0.18074221597E+03  0.21013787714E+03  0.40600725019E+03  0.79620303419E+02 0.  0.
        254    2    1    2    0    0 -0.28579156468E+03 -0.18074221597E+03  0.50261530774E+02  0.96181416288E+03  0.89900817314E+03 0.  0.
         23    2    4    4    0    0  0.23414531880E+03 -0.96697291142E+02 -0.23360676452E+03  0.35604555318E+03  0.89565166667E+02 0.  0.
         23    2    4    4    0    0 -0.51993688349E+03 -0.84044924831E+02  0.28386829530E+03  0.60576860970E+03  0.94744325532E+02 0.  0.
          2    1    3    3  502    0  0.24725741231E+03  0.18033708561E+03  0.16883343969E+03  0.34951741408E+03  0.00000000000E+00 0. -1.
         -1    1    3    3    0  502  0.38534152379E+02  0.40513035809E+00  0.41304437457E+02  0.56489836110E+02  0.00000000000E+00 0.  1.
         13    1    5    5    0    0  0.21383129061E+03 -0.10574557298E+03 -0.23349800946E+03  0.33380723101E+03  0.00000000000E+00 0. -1.
        -13    1    5    5    0    0  0.20314028190E+02  0.90482818384E+01 -0.10875505928E+00  0.22238322176E+02  0.00000000000E+00 0.  1.
          4    1    6    6  503    0 -0.27505368363E+03  0.13330501649E+01  0.13015079977E+03  0.30429514716E+03  0.00000000000E+00 0.  1.
         -4    1    6    6    0  503 -0.24488319986E+03 -0.85377974996E+02  0.15371749553E+03  0.30147346254E+03  0.00000000000E+00 0. -1.
<mgrwt>
<rscale>  0 0.13428059E+04</rscale>
<asrwt>0</asrwt>
<pdfrwt beam="1">  1        2 0.12524776E+00 0.13428059E+04</pdfrwt>
<pdfrwt beam="2">  1       -3 0.85186308E-01 0.13428059E+04</pdfrwt>
<totfact> 0.26311744E+01</totfact>
</mgrwt>
</event>
<event>
12    7  0.1572140E-007  0.2087890E+04  0.7818608E-02  0.8566597E-01
         -1   -1    0    0    0  501 -0.00000000000E+00  0.00000000000E+00  0.11549029669E+04  0.11549029669E+04  0.00000000000E+00 0.  1.
          2   -1    0    0  501    0  0.00000000000E+00 -0.00000000000E+00 -0.94364760279E+03  0.94364760279E+03  0.00000000000E+00 0. -1.
         24    2    1    2    0    0 -0.55056294592E+03  0.46929603588E+03 -0.35605792075E+03  0.81023651169E+03  0.79672048016E+02 0.  0.
        254    2    1    2    0    0  0.55056294592E+03 -0.46929603588E+03  0.56731328491E+03  0.12883140580E+04  0.90252447181E+03 0.  0.
         23    2    4    4    0    0  0.63881286980E+03 -0.45657780549E+03  0.94581310656E+02  0.79649133805E+03  0.94380359049E+02 0.  0.
         23    2    4    4    0    0 -0.88249923877E+02 -0.12718230391E+02  0.47273197425E+03  0.49182272000E+03  0.10229499489E+03 0.  0.
          2    1    3    3  502    0 -0.27474160486E+03  0.19633959020E+03 -0.13526533026E+03  0.36377038595E+03  0.00000000000E+00 0. -1.
         -1    1    3    3    0  502 -0.27582134106E+03  0.27295644568E+03 -0.22079259049E+03  0.44646612574E+03  0.00000000000E+00 0.  1.
         13    1    5    5    0    0  0.22112565871E+03 -0.21166532455E+03  0.22071824612E+02  0.30689726619E+03  0.00000000000E+00 0. -1.
        -13    1    5    5    0    0  0.41768721109E+03 -0.24491248094E+03  0.72509486043E+02  0.48959407185E+03  0.00000000000E+00 0.  1.
          4    1    6    6  503    0 -0.10480106814E+03  0.12929350270E+01  0.44170029296E+03  0.45396484926E+03  0.00000000000E+00 0. -1.
         -4    1    6    6    0  503  0.16551144268E+02 -0.14011165418E+02  0.31031681297E+02  0.37857870741E+02  0.00000000000E+00 0.  1.
<mgrwt>
<rscale>  0 0.20878902E+04</rscale>
<asrwt>0</asrwt>
<pdfrwt beam="1">  1        2 0.14517655E+00 0.20878902E+04</pdfrwt>
<pdfrwt beam="2">  1       -1 0.17767738E+00 0.20878902E+04</pdfrwt>
<totfact> 0.62393172E+00</totfact>
</mgrwt>
</event>
<event>
12    7  0.1840542E-007  0.2694081E+04  0.7818608E-02  0.8336928E-01
          2   -1    0    0  501    0  0.00000000000E+00  0.00000000000E+00  0.15188671956E+04  0.15188671956E+04  0.00000000000E+00 0. -1.
         -1   -1    0    0    0  501 -0.00000000000E+00 -0.00000000000E+00 -0.11946521758E+04  0.11946521758E+04  0.00000000000E+00 0.  1.
         24    2    1    2    0    0  0.10372012621E+04 -0.42853335823E+03  0.53925045972E+03  0.12477674441E+04  0.81885524350E+02 0.  0.
        254    2    1    2    0    0 -0.10372012621E+04  0.42853335823E+03 -0.21503543993E+03  0.14657519273E+04  0.91802024743E+03 0.  0.
         23    2    4    4    0    0 -0.11364384193E+04  0.49193082238E+03 -0.49242739970E+02  0.12429039134E+04  0.94324310704E+02 0.  0.
         23    2    4    4    0    0  0.99237157226E+02 -0.63397464144E+02 -0.16579269996E+03  0.22284801388E+03  0.91141462008E+02 0.  0.
          2    1    3    3  502    0  0.33787779537E+03 -0.15427778734E+03  0.13884190126E+03  0.39653513566E+03  0.00000000000E+00 0. -1.
         -1    1    3    3    0  502  0.69932346674E+03 -0.27425557089E+03  0.40040855846E+03  0.85123230847E+03  0.00000000000E+00 0.  1.
         13    1    5    5    0    0 -0.96831209468E+03  0.40663025296E+03 -0.73634025234E+02  0.10528050366E+04  0.00000000000E+00 0.  1.
        -13    1    5    5    0    0 -0.16812632465E+03  0.85300569415E+02  0.24391285265E+02  0.19009887685E+03  0.00000000000E+00 0. -1.
          4    1    6    6  503    0  0.27907172980E+02 -0.35558645715E+02 -0.13130867031E+03  0.13887114346E+03  0.00000000000E+00 0. -1.
         -4    1    6    6    0  503  0.71329984246E+02 -0.27838818429E+02 -0.34484029648E+02  0.83976870416E+02  0.00000000000E+00 0.  1.
<mgrwt>
<rscale>  0 0.26940809E+04</rscale>
<asrwt>0</asrwt>
<pdfrwt beam="1">  1        2 0.23367187E+00 0.26940809E+04</pdfrwt>
<pdfrwt beam="2">  1       -1 0.18379264E+00 0.26940809E+04</pdfrwt>
<totfact> 0.24205266E+00</totfact>
</mgrwt>
</event>
<event>
12    7  0.1572140E-007  0.1230212E+04  0.7818608E-02  0.9086816E-01
         -1   -1    0    0    0  501 -0.00000000000E+00  0.00000000000E+00  0.19445349550E+03  0.19445349550E+03  0.00000000000E+00 0.  1.
          2   -1    0    0  501    0  0.00000000000E+00 -0.00000000000E+00 -0.19457366991E+04  0.19457366991E+04  0.00000000000E+00 0. -1.
         24    2    1    2    0    0  0.25132595580E+02  0.29024056488E+03 -0.18248154208E+03  0.35301268114E+03  0.80294501589E+02 0.  0.
        254    2    1    2    0    0 -0.25132595580E+02 -0.29024056488E+03 -0.15688016615E+04  0.17871775135E+04  0.80498048334E+03 0.  0.
         23    2    4    4    0    0  0.14395729605E+03  0.11374687325E+03 -0.11709123470E+04  0.11886143606E+04  0.90035102816E+02 0.  0.
         23    2    4    4    0    0 -0.16908989163E+03 -0.40398743812E+03 -0.39788931456E+03  0.59856315283E+03  0.90358727743E+02 0.  0.
          2    1    3    3  502    0  0.13671300577E+02  0.19057907981E+02  0.38730201961E+01  0.23772012988E+02  0.00000000000E+00 0. -1.
         -1    1    3    3    0  502  0.11461295004E+02  0.27118265690E+03 -0.18635456228E+03  0.32924066815E+03  0.00000000000E+00 0.  1.
         13    1    5    5    0    0  0.87656523296E+02  0.13008387228E+02 -0.47424382353E+03  0.48245216174E+03  0.00000000000E+00 0.  1.
        -13    1    5    5    0    0  0.56300772756E+02  0.10073848602E+03 -0.69666852347E+03  0.70616219891E+03  0.00000000000E+00 0. -1.
          2    1    6    6  503    0 -0.15455185757E+03 -0.26023493886E+03 -0.27170869689E+03  0.40673592913E+03  0.00000000000E+00 0. -1.
         -2    1    6    6    0  503 -0.14538034065E+02 -0.14375249926E+03 -0.12618061766E+03  0.19182722370E+03  0.00000000000E+00 0.  1.
<mgrwt>
<rscale>  0 0.12302119E+04</rscale>
<asrwt>0</asrwt>
<pdfrwt beam="1">  1        2 0.29934413E+00 0.12302119E+04</pdfrwt>
<pdfrwt beam="2">  1       -1 0.29915920E-01 0.12302119E+04</pdfrwt>
<totfact> 0.82461328E+01</totfact>
</mgrwt>
</event>
<event>
12    7  0.1572140E-007  0.2513459E+04  0.7818608E-02  0.8398206E-01
         -1   -1    0    0    0  501 -0.00000000000E+00  0.00000000000E+00  0.84677573142E+03  0.84677573142E+03  0.00000000000E+00 0.  1.
          2   -1    0    0  501    0  0.00000000000E+00 -0.00000000000E+00 -0.18651560922E+04  0.18651560922E+04  0.00000000000E+00 0. -1.
         24    2    1    2    0    0  0.10519789179E+04  0.31054108175E+03 -0.46519383403E+03  0.11940308879E+04  0.78797530093E+02 0.  0.
        254    2    1    2    0    0 -0.10519789179E+04 -0.31054108175E+03 -0.55318652676E+03  0.15179009358E+04  0.89157866179E+03 0.  0.
         23    2    4    4    0    0 -0.11420641317E+04 -0.36772203556E+03 -0.31926920789E+03  0.12450673806E+04  0.93434355227E+02 0.  0.
         23    2    4    4    0    0  0.90085213737E+02  0.57180953810E+02 -0.23391731886E+03  0.27283355520E+03  0.91300764331E+02 0.  0.
          4    1    3    3  502    0  0.29884093229E+03  0.60765644652E+02 -0.10387881391E+03  0.32216327283E+03  0.00000000000E+00 0. -1.
         -3    1    3    3    0  502  0.75313798563E+03  0.24977543710E+03 -0.36131502012E+03  0.87186761504E+03  0.00000000000E+00 0.  1.
         13    1    5    5    0    0 -0.49110413943E+03 -0.10973857307E+03 -0.13505734566E+03  0.52102429579E+03  0.00000000000E+00 0.  1.
        -13    1    5    5    0    0 -0.65095999223E+03 -0.25798346249E+03 -0.18421186223E+03  0.72404308476E+03  0.00000000000E+00 0. -1.
          1    1    6    6  503    0  0.48987330127E+01  0.44329679199E+02 -0.37194014308E+02  0.58073339351E+02  0.00000000000E+00 0. -1.
         -1    1    6    6    0  503  0.85186480724E+02  0.12851274611E+02 -0.19672330456E+03  0.21476021585E+03  0.00000000000E+00 0.  1.
<mgrwt>
<rscale>  0 0.25134589E+04</rscale>
<asrwt>0</asrwt>
<pdfrwt beam="1">  1        2 0.28694709E+00 0.25134589E+04</pdfrwt>
<pdfrwt beam="2">  1       -1 0.13027319E+00 0.25134589E+04</pdfrwt>
<totfact> 0.40608630E+00</totfact>
</mgrwt>
</event>
<event>
12    7  0.1572140E-007  0.3537921E+04  0.7818608E-02  0.8104862E-01
          2   -1    0    0  501    0  0.00000000000E+00  0.00000000000E+00  0.32434988333E+04  0.32434988333E+04  0.00000000000E+00 0. -1.
         -1   -1    0    0    0  501 -0.00000000000E+00 -0.00000000000E+00 -0.96476713648E+03  0.96476713648E+03  0.00000000000E+00 0.  1.
         24    2    1    2    0    0  0.61164204929E+02  0.57713629062E+02  0.30393191319E+04  0.30415334839E+04  0.79957643909E+02 0.  0.
        254    2    1    2    0    0 -0.61164204929E+02 -0.57713629062E+02 -0.76058743514E+03  0.11667324859E+04  0.88073805651E+03 0.  0.
         23    2    4    4    0    0 -0.25009602329E+03  0.30643581918E+02  0.92691391592E+02  0.28369462082E+03  0.91672754018E+02 0.  0.
         23    2    4    4    0    0  0.18893181836E+03 -0.88357210980E+02 -0.85327882673E+03  0.88303786507E+03  0.90381891296E+02 0.  0.
          4    1    3    3  502    0  0.24839616660E+02  0.26000718952E+02  0.24440429460E+04  0.24443074614E+04  0.00000000000E+00 0. -1.
         -3    1    3    3    0  502  0.36324588269E+02  0.31712910110E+02  0.59527618589E+03  0.59722602243E+03  0.00000000000E+00 0.  1.
         13    1    5    5    0    0 -0.10963084985E+03 -0.30095250274E+02  0.25242899969E+02  0.11645536195E+03  0.00000000000E+00 0. -1.
        -13    1    5    5    0    0 -0.14046517344E+03  0.60738832193E+02  0.67448491622E+02  0.16723925887E+03  0.00000000000E+00 0.  1.
          1    1    6    6  503    0  0.13896139260E+03 -0.64658525325E+02 -0.75375464625E+03  0.76917947208E+03  0.00000000000E+00 0. -1.
         -1    1    6    6    0  503  0.49970425763E+02 -0.23698685655E+02 -0.99524180483E+02  0.11385839299E+03  0.00000000000E+00 0.  1.
<mgrwt>
<rscale>  0 0.35379209E+04</rscale>
<asrwt>0</asrwt>
<pdfrwt beam="1">  1        2 0.49899982E+00 0.35379209E+04</pdfrwt>
<pdfrwt beam="2">  1       -1 0.14842571E+00 0.35379209E+04</pdfrwt>
<totfact> 0.40492207E-01</totfact>
</mgrwt>
</event>
<event>
12    7  0.1572140E-007  0.1969539E+04  0.7818608E-02  0.8620996E-01
          2   -1    0    0  501    0  0.00000000000E+00  0.00000000000E+00  0.71640880707E+03  0.71640880707E+03  0.00000000000E+00 0. -1.
         -1   -1    0    0    0  501 -0.00000000000E+00 -0.00000000000E+00 -0.13536554851E+04  0.13536554851E+04  0.00000000000E+00 0.  1.
         24    2    1    2    0    0  0.47540863443E+03  0.37464586320E+03  0.33112979114E+03  0.69553488527E+03  0.88028095222E+02 0.  0.
        254    2    1    2    0    0 -0.47540863443E+03 -0.37464586320E+03 -0.96837646920E+03  0.13745294069E+04  0.76498706651E+03 0.  0.
         23    2    4    4    0    0 -0.26563799737E+03 -0.33824553761E+03 -0.10418356371E+04  0.11311370113E+04  0.95267277495E+02 0.  0.
         23    2    4    4    0    0 -0.20977063706E+03 -0.36400325589E+02  0.73459167924E+02  0.24339239565E+03  0.92276243053E+02 0.  0.
          2    1    3    3  502    0  0.39430607783E+03  0.29951317892E+03  0.30624728900E+03  0.58221373170E+03  0.00000000000E+00 0. -1.
         -1    1    3    3    0  502  0.81102556599E+02  0.75132684286E+02  0.24882502138E+02  0.11332115358E+03  0.00000000000E+00 0.  1.
         13    1    5    5    0    0 -0.22242378367E+02 -0.77944863206E+02 -0.14546154951E+03  0.16652083197E+03  0.00000000000E+00 0. -1.
        -13    1    5    5    0    0 -0.24339561901E+03 -0.26030067441E+03 -0.89637408762E+03  0.96461617932E+03  0.00000000000E+00 0.  1.
          2    1    6    6  503    0 -0.75718993120E+02 -0.53024720847E+02  0.66040269770E+01  0.92674700497E+02  0.00000000000E+00 0. -1.
         -2    1    6    6    0  503 -0.13405164394E+03  0.16624395258E+02  0.66855140947E+02  0.15071769515E+03  0.00000000000E+00 0.  1.
<mgrwt>
<rscale>  0 0.19695387E+04</rscale>
<asrwt>0</asrwt>
<pdfrwt beam="1">  1        2 0.11021674E+00 0.19695387E+04</pdfrwt>
<pdfrwt beam="2">  1       -1 0.20825469E+00 0.19695387E+04</pdfrwt>
<totfact> 0.55873205E+00</totfact>
</mgrwt>
</event>
<event>
12    7  0.1572140E-007  0.1477710E+04  0.7818608E-02  0.8899412E-01
         -1   -1    0    0    0  501 -0.00000000000E+00  0.00000000000E+00  0.26197204082E+03  0.26197204082E+03  0.00000000000E+00 0.  1.
          2   -1    0    0  501    0  0.00000000000E+00 -0.00000000000E+00 -0.20838363978E+04  0.20838363978E+04  0.00000000000E+00 0. -1.
         24    2    1    2    0    0 -0.35848280232E+03 -0.17971241527E+03 -0.90822385806E+03  0.99596807282E+03  0.79217131763E+02 0.  0.
        254    2    1    2    0    0  0.35848280232E+03  0.17971241527E+03 -0.91364049893E+03  0.13498403658E+04  0.90913342262E+03 0.  0.
         23    2    4    4    0    0  0.61490899509E+03 -0.66899736942E+02 -0.58133087577E+03  0.85380180431E+03  0.91887359678E+02 0.  0.
         23    2    4    4    0    0 -0.25642619277E+03  0.24661215221E+03 -0.33230962316E+03  0.49603856150E+03  0.95145272600E+02 0.  0.
          2    1    3    3  502    0 -0.35449336327E+03 -0.18354304455E+03 -0.86834360885E+03  0.95570613519E+03  0.00000000000E+00 0. -1.
         -1    1    3    3    0  502 -0.39894390499E+01  0.38306292885E+01 -0.39880249207E+02  0.40261937627E+02  0.00000000000E+00 0.  1.
         13    1    5    5    0    0  0.35499747566E+03 -0.61314846402E+02 -0.39060682868E+03  0.53137219793E+03  0.00000000000E+00 0. -1.
        -13    1    5    5    0    0  0.25991151943E+03 -0.55848905400E+01 -0.19072404709E+03  0.32242960638E+03  0.00000000000E+00 0.  1.
          1    1    6    6  503    0 -0.21204406894E+03  0.20976511651E+03 -0.22290571135E+03  0.37235876172E+03  0.00000000000E+00 0. -1.
         -1    1    6    6    0  503 -0.44382123829E+02  0.36847035699E+02 -0.10940391180E+03  0.12367979978E+03  0.00000000000E+00 0.  1.
<mgrwt>
<rscale>  0 0.14777102E+04</rscale>
<asrwt>0</asrwt>
<pdfrwt beam="1">  1        2 0.32059023E+00 0.14777102E+04</pdfrwt>
<pdfrwt beam="2">  1       -1 0.40303390E-01 0.14777102E+04</pdfrwt>
<totfact> 0.39755760E+01</totfact>
</mgrwt>
</event>
<event>
12    7  0.1572140E-007  0.1746649E+04  0.7818608E-02  0.8735197E-01
         -1   -1    0    0    0  501 -0.00000000000E+00  0.00000000000E+00  0.57031288889E+03  0.57031288889E+03  0.00000000000E+00 0.  1.
          2   -1    0    0  501    0  0.00000000000E+00 -0.00000000000E+00 -0.13373283783E+04  0.13373283783E+04  0.00000000000E+00 0. -1.
         24    2    1    2    0    0 -0.28238981389E+02 -0.34445335544E+03  0.30560209295E+03  0.46819355038E+03  0.79793528972E+02 0.  0.
        254    2    1    2    0    0  0.28238981389E+02  0.34445335544E+03 -0.10726175824E+04  0.14394477169E+04  0.89557562347E+03 0.  0.
         23    2    4    4    0    0 -0.13314712349E+03 -0.84453581069E+02 -0.93575092142E+03  0.95281265784E+03  0.85799826062E+02 0.  0.
         23    2    4    4    0    0  0.16138610488E+03  0.42890693651E+03 -0.13686666097E+03  0.48663505901E+03  0.89858570781E+02 0.  0.
          4    1    3    3  502    0 -0.37626474109E+02 -0.95688138910E+02  0.11777407539E+03  0.15634162694E+03  0.00000000000E+00 0. -1.
         -3    1    3    3    0  502  0.93874927195E+01 -0.24876521653E+03  0.18782801756E+03  0.31185192344E+03  0.00000000000E+00 0.  1.
         13    1    5    5    0    0 -0.41060492367E+02 -0.10007258050E+02 -0.97865088512E+02  0.10660058535E+03  0.00000000000E+00 0. -1.
        -13    1    5    5    0    0 -0.92086631124E+02 -0.74446323019E+02 -0.83788583290E+03  0.84621207249E+03  0.00000000000E+00 0.  1.
          2    1    6    6  503    0  0.56321830335E+02  0.78277772892E+02 -0.17168983532E+01  0.96449499953E+02  0.00000000000E+00 0. -1.
         -2    1    6    6    0  503  0.10506427455E+03  0.35062916362E+03 -0.13514976262E+03  0.39018555906E+03  0.00000000000E+00 0.  1.
<mgrwt>
<rscale>  0 0.17466489E+04</rscale>
<asrwt>0</asrwt>
<pdfrwt beam="1">  1        2 0.20574283E+00 0.17466489E+04</pdfrwt>
<pdfrwt beam="2">  1       -1 0.87740444E-01 0.17466489E+04</pdfrwt>
<totfact> 0.21711056E+01</totfact>
</mgrwt>
</event>
<event>
12    7  0.1572140E-007  0.1735481E+04  0.7818608E-02  0.8741383E-01
          2   -1    0    0  501    0  0.00000000000E+00  0.00000000000E+00  0.27236039805E+04  0.27236039805E+04  0.00000000000E+00 0. -1.
         -1   -1    0    0    0  501 -0.00000000000E+00 -0.00000000000E+00 -0.27646212177E+03  0.27646212177E+03  0.00000000000E+00 0.  1.
         24    2    1    2    0    0  0.21557429378E+03 -0.59527888350E+03  0.91631493022E+03  0.11168040392E+04  0.82395299085E+02 0.  0.
        254    2    1    2    0    0 -0.21557429378E+03  0.59527888350E+03  0.15308269285E+04  0.18832620631E+04  0.89577658372E+03 0.  0.
         23    2    4    4    0    0 -0.31373468878E+03  0.75458956508E+03  0.90104265642E+03  0.12198650925E+04  0.91422691211E+02 0.  0.
         23    2    4    4    0    0  0.98160395002E+02 -0.15931068158E+03  0.62978427210E+03  0.66339697063E+03  0.91934513873E+02 0.  0.
          4    1    3    3  502    0  0.32798108181E+01  0.24629310800E+01  0.67367144113E+01  0.78871103433E+01  0.00000000000E+00 0. -1.
         -3    1    3    3    0  502  0.21229448296E+03 -0.59774181458E+03  0.90957821580E+03  0.11089169288E+04  0.00000000000E+00 0.  1.
         13    1    5    5    0    0 -0.16875547348E+03  0.51833354218E+03  0.59555821564E+03  0.80736463818E+03  0.00000000000E+00 0. -1.
        -13    1    5    5    0    0 -0.14497921530E+03  0.23625602290E+03  0.30548444079E+03  0.41250045429E+03  0.00000000000E+00 0.  1.
          3    1    6    6  503    0  0.45076865880E+02 -0.14575888013E+03  0.49226784106E+03  0.51536899627E+03  0.00000000000E+00 0. -1.
         -3    1    6    6    0  503  0.53083529122E+02 -0.13551801452E+02  0.13751643103E+03  0.14802797435E+03  0.00000000000E+00 0.  1.
<mgrwt>
<rscale>  0 0.17354807E+04</rscale>
<asrwt>0</asrwt>
<pdfrwt beam="1">  1        2 0.41901598E+00 0.17354807E+04</pdfrwt>
<pdfrwt beam="2">  1       -1 0.42532636E-01 0.17354807E+04</pdfrwt>
<totfact> 0.15147160E+01</totfact>
</mgrwt>
</event>
<event>
12    7  0.1572140E-007  0.1518239E+04  0.7818608E-02  0.8872414E-01
          2   -1    0    0  501    0  0.00000000000E+00  0.00000000000E+00  0.31541296394E+03  0.31541296394E+03  0.00000000000E+00 0. -1.
         -1   -1    0    0    0  501 -0.00000000000E+00 -0.00000000000E+00 -0.18270084082E+04  0.18270084082E+04  0.00000000000E+00 0.  1.
         24    2    1    2    0    0  0.33349293308E+02 -0.15276563386E+03 -0.11552158198E+04  0.11687151519E+04  0.83198567777E+02 0.  0.
        254    2    1    2    0    0 -0.33349293308E+02  0.15276563386E+03 -0.35637962437E+03  0.97370622015E+03  0.89255131631E+03 0.  0.
         23    2    4    4    0    0  0.69451587832E+02 -0.26565979973E+03 -0.43819019320E+03  0.52574788755E+03  0.94876464989E+02 0.  0.
         23    2    4    4    0    0 -0.10280088114E+03  0.41842543359E+03  0.81810568830E+02  0.44795833260E+03  0.91246007790E+02 0.  0.
          4    1    3    3  502    0  0.19953430216E+02 -0.13744336415E+02 -0.61220791837E+02  0.65840956205E+02  0.00000000000E+00 0. -1.
         -3    1    3    3    0  502  0.13395863092E+02 -0.13902129745E+03 -0.10939950280E+04  0.11028741957E+04  0.00000000000E+00 0.  1.
         13    1    5    5    0    0  0.75264848042E+02 -0.11141336125E+03 -0.23256750794E+03  0.26863614829E+03  0.00000000000E+00 0. -1.
        -13    1    5    5    0    0 -0.58132602103E+01 -0.15424643848E+03 -0.20562268526E+03  0.25711173927E+03  0.00000000000E+00 0.  1.
          2    1    6    6  503    0 -0.10936454015E+03  0.26271250844E+03  0.53987134956E+02  0.28964301386E+03  0.00000000000E+00 0. -1.
         -2    1    6    6    0  503  0.65636590100E+01  0.15571292514E+03  0.27823433874E+02  0.15831531874E+03  0.00000000000E+00 0.  1.
<mgrwt>
<rscale>  0 0.15182386E+04</rscale>
<asrwt>0</asrwt>
<pdfrwt beam="1">  1        2 0.48525071E-01 0.15182386E+04</pdfrwt>
<pdfrwt beam="2">  1       -1 0.28107822E+00 0.15182386E+04</pdfrwt>
<totfact> 0.50308640E+00</totfact>
</mgrwt>
</event>
<event>
12    7  0.1572140E-007  0.1844939E+04  0.7818608E-02  0.8682760E-01
          2   -1    0    0  501    0  0.00000000000E+00  0.00000000000E+00  0.32408743921E+04  0.32408743921E+04  0.00000000000E+00 0. -1.
         -1   -1    0    0    0  501 -0.00000000000E+00 -0.00000000000E+00 -0.26256807222E+03  0.26256807222E+03  0.00000000000E+00 0.  1.
         24    2    1    2    0    0 -0.57600480169E+03 -0.11561415241E+03  0.39574806904E+03  0.71118400722E+03  0.63387649960E+02 0.  0.
        254    2    1    2    0    0  0.57600480169E+03  0.11561415241E+03  0.25825582508E+04  0.27922584571E+04  0.88428050328E+03 0.  0.
         23    2    4    4    0    0  0.50636919116E+03  0.29279235941E+03  0.79094925923E+03  0.98811319950E+03  0.92896936735E+02 0.  0.
         23    2    4    4    0    0  0.69635610531E+02 -0.17717820699E+03  0.17916089916E+04  0.18041452576E+04  0.94000513050E+02 0.  0.
          2    1    3    3  502    0 -0.13994536295E+03 -0.33190565540E+02  0.65682400279E+02  0.15811545135E+03  0.00000000000E+00 0. -1.
         -1    1    3    3    0  502 -0.43605943875E+03 -0.82423586873E+02  0.33006566876E+03  0.55306855587E+03  0.00000000000E+00 0.  1.
         13    1    5    5    0    0  0.11223102448E+03  0.10030493137E+03  0.15996650261E+03  0.21965009463E+03  0.00000000000E+00 0. -1.
        -13    1    5    5    0    0  0.39413816669E+03  0.19248742803E+03  0.63098275662E+03  0.76846310487E+03  0.00000000000E+00 0.  1.
          1    1    6    6  503    0  0.77512363757E+02 -0.70670353074E+02  0.81874113666E+03  0.82543292531E+03  0.00000000000E+00 0. -1.
         -1    1    6    6    0  503 -0.78767532252E+01 -0.10650785392E+03  0.97286785495E+03  0.97871233229E+03  0.00000000000E+00 0.  1.
<mgrwt>
<rscale>  0 0.18449392E+04</rscale>
<asrwt>0</asrwt>
<pdfrwt beam="1">  1        2 0.49859603E+00 0.18449392E+04</pdfrwt>
<pdfrwt beam="2">  1       -1 0.40395090E-01 0.18449392E+04</pdfrwt>
<totfact> 0.78505769E+00</totfact>
</mgrwt>
</event>
<event>
12    7  0.1572140E-007  0.2762097E+04  0.7818608E-02  0.8315133E-01
         -1   -1    0    0    0  501 -0.00000000000E+00  0.00000000000E+00  0.59148588281E+03  0.59148588281E+03  0.00000000000E+00 0.  1.
          2   -1    0    0  501    0  0.00000000000E+00 -0.00000000000E+00 -0.32245828923E+04  0.32245828923E+04  0.00000000000E+00 0. -1.
         24    2    1    2    0    0 -0.10713550233E+04 -0.60544722212E+03 -0.12127068163E+04  0.17294182965E+04  0.76563028625E+02 0.  0.
        254    2    1    2    0    0  0.10713550233E+04  0.60544722212E+03 -0.14203901932E+04  0.20866504786E+04  0.90677119176E+03 0.  0.
         23    2    4    4    0    0  0.45794827116E+03  0.18635098873E+02 -0.10621832044E+04  0.11605529266E+04  0.92660939986E+02 0.  0.
         23    2    4    4    0    0  0.61340675210E+03  0.58681212325E+03 -0.35820698880E+03  0.92609755197E+03  0.93424394169E+02 0.  0.
          4    1    3    3  502    0 -0.54337998717E+02 -0.12664047687E+02 -0.52973498521E+02  0.76936257733E+02  0.00000000000E+00 0. -1.
         -3    1    3    3    0  502 -0.10170170245E+04 -0.59278317444E+03 -0.11597333178E+04  0.16524820388E+04  0.00000000000E+00 0.  1.
         13    1    5    5    0    0  0.30589353088E+03  0.18839821071E+02 -0.59570585277E+03  0.66991884144E+03  0.00000000000E+00 0. -1.
        -13    1    5    5    0    0  0.15205474028E+03 -0.20472219770E+00 -0.46647735163E+03  0.49063408517E+03  0.00000000000E+00 0.  1.
          1    1    6    6  503    0  0.23001269286E+03  0.25884698166E+03 -0.10663438508E+03  0.36232373766E+03  0.00000000000E+00 0. -1.
         -1    1    6    6    0  503  0.38339405924E+03  0.32796514159E+03 -0.25157260371E+03  0.56377381431E+03  0.00000000000E+00 0.  1.
<mgrwt>
<rscale>  0 0.27620972E+04</rscale>
<asrwt>0</asrwt>
<pdfrwt beam="1">  1        2 0.49608968E+00 0.27620972E+04</pdfrwt>
<pdfrwt beam="2">  1       -1 0.90997827E-01 0.27620972E+04</pdfrwt>
<totfact> 0.14609419E+00</totfact>
</mgrwt>
</event>
<event>
12    7  0.1572140E-007  0.5630989E+04  0.7818608E-02  0.7737918E-01
          2   -1    0    0  501    0  0.00000000000E+00  0.00000000000E+00  0.34447321000E+04  0.34447321000E+04  0.00000000000E+00 0. -1.
         -1   -1    0    0    0  501 -0.00000000000E+00 -0.00000000000E+00 -0.23011976098E+04  0.23011976098E+04  0.00000000000E+00 0.  1.
         24    2    1    2    0    0 -0.40288151271E+03 -0.14308761738E+04 -0.17955197896E+04  0.23325267466E+04  0.84080739330E+02 0.  0.
        254    2    1    2    0    0  0.40288151271E+03  0.14308761738E+04  0.29390542798E+04  0.34134029632E+04  0.89641485474E+03 0.  0.
         23    2    4    4    0    0  0.40033968976E+03  0.10484240463E+04  0.27606129710E+04  0.29814325409E+04  0.92147555191E+02 0.  0.
         23    2    4    4    0    0  0.25418229505E+01  0.38245212750E+03  0.17844130872E+03  0.43197042232E+03  0.92092640345E+02 0.  0.
          4    1    3    3  502    0 -0.26266052444E+02 -0.13245953872E+03 -0.19903228772E+03  0.24051878609E+03  0.00000000000E+00 0. -1.
         -3    1    3    3    0  502 -0.37661546027E+03 -0.12984166351E+04 -0.15964875019E+04  0.20920079605E+04  0.00000000000E+00 0.  1.
         13    1    5    5    0    0  0.27281642852E+03  0.66548468889E+03  0.18736728537E+04  0.20069749968E+04  0.00000000000E+00 0.  1.
        -13    1    5    5    0    0  0.12752326124E+03  0.38293935740E+03  0.88694011730E+03  0.97445754411E+03  0.00000000000E+00 0. -1.
          1    1    6    6  503    0 -0.16032399491E+02  0.13362633252E+03  0.19146377773E+02  0.13593976003E+03  0.00000000000E+00 0. -1.
         -1    1    6    6    0  503  0.18574222441E+02  0.24882579498E+03  0.15929493095E+03  0.29603066228E+03  0.00000000000E+00 0.  1.
<mgrwt>
<rscale>  0 0.56309890E+04</rscale>
<asrwt>0</asrwt>
<pdfrwt beam="1">  1        2 0.52995878E+00 0.56309890E+04</pdfrwt>
<pdfrwt beam="2">  1       -1 0.35403040E+00 0.56309890E+04</pdfrwt>
<totfact> 0.10199249E-02</totfact>
</mgrwt>
</event>
<event>
12    7  0.1572140E-007  0.2220760E+04  0.7818608E-02  0.8509837E-01
         -1   -1    0    0    0  501 -0.00000000000E+00  0.00000000000E+00  0.97588577636E+03  0.97588577636E+03  0.00000000000E+00 0.  1.
          2   -1    0    0  501    0  0.00000000000E+00 -0.00000000000E+00 -0.12634099254E+04  0.12634099254E+04  0.00000000000E+00 0. -1.
         24    2    1    2    0    0 -0.19115112727E+02 -0.21575219675E+03  0.78874858253E+03  0.82174495878E+03  0.78905341422E+02 0.  0.
        254    2    1    2    0    0  0.19115112727E+02  0.21575219675E+03 -0.10762727316E+04  0.14175507430E+04  0.89675677763E+03 0.  0.
         23    2    4    4    0    0  0.10320291277E+03 -0.26873478329E+03 -0.95186272501E+02  0.31646241259E+03  0.90657637049E+02 0.  0.
         23    2    4    4    0    0 -0.84087800042E+02  0.48448698004E+03 -0.98108645905E+03  0.11010883304E+04  0.89813580104E+02 0.  0.
          4    1    3    3  502    0  0.28347474047E+02 -0.50158223994E+02  0.22545534360E+03  0.23270053433E+03  0.00000000000E+00 0. -1.
         -3    1    3    3    0  502 -0.47462586774E+02 -0.16559397275E+03  0.56329323893E+03  0.58904442446E+03  0.00000000000E+00 0.  1.
         13    1    5    5    0    0  0.28446169733E+02 -0.12396489067E+02 -0.26367819560E+02  0.40720012549E+02  0.00000000000E+00 0.  1.
        -13    1    5    5    0    0  0.74756743037E+02 -0.25633829423E+03 -0.68818452941E+02  0.27574240004E+03  0.00000000000E+00 0. -1.
          4    1    6    6  503    0 -0.67113314928E+02  0.47516875495E+03 -0.93129412855E+03  0.10476632553E+04  0.00000000000E+00 0. -1.
         -4    1    6    6    0  503 -0.16974485114E+02  0.93182250912E+01 -0.49792330503E+02  0.53425075018E+02  0.00000000000E+00 0.  1.
<mgrwt>
<rscale>  0 0.22207600E+04</rscale>
<asrwt>0</asrwt>
<pdfrwt beam="1">  1        2 0.19437076E+00 0.22207600E+04</pdfrwt>
<pdfrwt beam="2">  1       -1 0.15013627E+00 0.22207600E+04</pdfrwt>
<totfact> 0.62875584E+00</totfact>
</mgrwt>
</event>
<event>
12    7  0.1572140E-007  0.1579021E+04  0.7818608E-02  0.8833541E-01
         -1   -1    0    0    0  501 -0.00000000000E+00  0.00000000000E+00  0.11211473490E+04  0.11211473490E+04  0.00000000000E+00 0.  1.
          2   -1    0    0  501    0  0.00000000000E+00 -0.00000000000E+00 -0.55597195486E+03  0.55597195486E+03  0.00000000000E+00 0. -1.
         24    2    1    2    0    0  0.38416957687E+03 -0.20572671374E+03 -0.12665319207E+03  0.46091514033E+03  0.80572892356E+02 0.  0.
        254    2    1    2    0    0 -0.38416957687E+03  0.20572671374E+03  0.69182858624E+03  0.12162041636E+04  0.90034217396E+03 0.  0.
         23    2    4    4    0    0 -0.10841513505E+03 -0.30097061199E+03  0.50336307433E+03  0.60262408140E+03  0.86280056193E+02 0.  0.
         23    2    4    4    0    0 -0.27575444182E+03  0.50669732573E+03  0.18846551191E+03  0.61358008217E+03  0.90435479538E+02 0.  0.
          4    1    3    3  502    0  0.35082763309E+03 -0.20883694021E+03 -0.10692645825E+03  0.42204995345E+03  0.00000000000E+00 0. -1.
         -1    1    3    3    0  502  0.33341943776E+02  0.31102264657E+01 -0.19726733822E+02  0.38865186873E+02  0.00000000000E+00 0.  1.
         13    1    5    5    0    0 -0.11993990776E+03 -0.28707961765E+03  0.45684862750E+03  0.55273045582E+03  0.00000000000E+00 0.  1.
        -13    1    5    5    0    0  0.11524772709E+02 -0.13890994341E+02  0.46514446827E+02  0.49893625579E+02  0.00000000000E+00 0. -1.
          1    1    6    6  503    0  0.49085271373E+01  0.29386863640E+01 -0.23190381125E+01  0.61731235182E+01  0.00000000000E+00 0. -1.
         -1    1    6    6    0  503 -0.28066296896E+03  0.50375863937E+03  0.19078455002E+03  0.60740695865E+03  0.00000000000E+00 0.  1.
<mgrwt>
<rscale>  0 0.15790206E+04</rscale>
<asrwt>0</asrwt>
<pdfrwt beam="1">  1        2 0.85534147E-01 0.15790206E+04</pdfrwt>
<pdfrwt beam="2">  1       -1 0.17248421E+00 0.15790206E+04</pdfrwt>
<totfact> 0.14074699E+01</totfact>
</mgrwt>
</event>
<event>
12    7  0.1572140E-007  0.1301159E+04  0.7818608E-02  0.9028647E-01
         -1   -1    0    0    0  501 -0.00000000000E+00  0.00000000000E+00  0.69866498714E+03  0.69866498714E+03  0.00000000000E+00 0.  1.
          2   -1    0    0  501    0  0.00000000000E+00 -0.00000000000E+00 -0.60580353137E+03  0.60580353137E+03  0.00000000000E+00 0. -1.
         24    2    1    2    0    0 -0.90938794176E+02  0.28819924981E+03 -0.11742307621E+03  0.33377627283E+03  0.79307941610E+02 0.  0.
        254    2    1    2    0    0  0.90938794176E+02 -0.28819924981E+03  0.21028453198E+03  0.97069224567E+03  0.89816211206E+03 0.  0.
         23    2    4    4    0    0  0.34229081125E+03 -0.23677657540E+02  0.41112304987E+03  0.54325215322E+03  0.91526547585E+02 0.  0.
         23    2    4    4    0    0 -0.25135201707E+03 -0.26452159227E+03 -0.20083851789E+03  0.42744009244E+03  0.96017774892E+02 0.  0.
          4    1    3    3  502    0 -0.44324222895E+02  0.20552223382E+03 -0.11316450895E+03  0.23876815411E+03  0.00000000000E+00 0. -1.
         -3    1    3    3    0  502 -0.46614571281E+02  0.82677015989E+02 -0.42585672592E+01  0.95008118725E+02  0.00000000000E+00 0.  1.
         13    1    5    5    0    0  0.18259914562E+03 -0.36308800524E+02  0.16049292789E+03  0.24580227192E+03  0.00000000000E+00 0. -1.
        -13    1    5    5    0    0  0.15969166563E+03  0.12631142985E+02  0.25063012198E+03  0.29744988130E+03  0.00000000000E+00 0.  1.
          3    1    6    6  503    0 -0.19580868086E+03 -0.14182711669E+03 -0.11502610058E+03  0.26774423307E+03  0.00000000000E+00 0. -1.
         -3    1    6    6    0  503 -0.55543336213E+02 -0.12269447558E+03 -0.85812417314E+02  0.15969585937E+03  0.00000000000E+00 0.  1.
<mgrwt>
<rscale>  0 0.13011590E+04</rscale>
<asrwt>0</asrwt>
<pdfrwt beam="1">  1        2 0.93200543E-01 0.13011590E+04</pdfrwt>
<pdfrwt beam="2">  1       -1 0.10748692E+00 0.13011590E+04</pdfrwt>
<totfact> 0.44271987E+01</totfact>
</mgrwt>
</event>
<event>
12    7  0.1572140E-007  0.1949718E+04  0.7818608E-02  0.8630497E-01
         -1   -1    0    0    0  501 -0.00000000000E+00  0.00000000000E+00  0.14514910532E+04  0.14514910532E+04  0.00000000000E+00 0.  1.
          2   -1    0    0  501    0  0.00000000000E+00 -0.00000000000E+00 -0.65474057419E+03  0.65474057419E+03  0.00000000000E+00 0. -1.
         24    2    1    2    0    0  0.75774871111E+03  0.29517927034E+02  0.20331441606E+03  0.78871900172E+03  0.75408850265E+02 0.  0.
        254    2    1    2    0    0 -0.75774871111E+03 -0.29517927034E+02  0.59343606293E+03  0.13175126256E+04  0.89923230633E+03 0.  0.
         23    2    4    4    0    0 -0.74853109326E+03  0.30237995061E+03  0.52340200146E+03  0.96589163204E+03  0.85232374175E+02 0.  0.
         23    2    4    4    0    0 -0.92176178508E+01 -0.33189787764E+03  0.70034061476E+02  0.35162099361E+03  0.92148726092E+02 0.  0.
          2    1    3    3  502    0  0.50689246085E+03  0.29091015675E+02  0.17121038350E+03  0.53581643263E+03  0.00000000000E+00 0. -1.
         -1    1    3    3    0  502  0.25085625026E+03  0.42691135863E+00  0.32104032565E+02  0.25290256909E+03  0.00000000000E+00 0.  1.
         13    1    5    5    0    0 -0.38145169806E+03  0.16232926700E+03  0.31851557404E+03  0.52278902033E+03  0.00000000000E+00 0.  1.
        -13    1    5    5    0    0 -0.36707939520E+03  0.14005068361E+03  0.20488642742E+03  0.44310261171E+03  0.00000000000E+00 0. -1.
          2    1    6    6  503    0 -0.17022503223E+02 -0.32452878525E+03  0.49871745859E+02  0.32877939276E+03  0.00000000000E+00 0. -1.
         -2    1    6    6    0  503  0.78048853725E+01 -0.73690923955E+01  0.20162315617E+02  0.22841600852E+02  0.00000000000E+00 0.  1.
<mgrwt>
<rscale>  0 0.19497180E+04</rscale>
<asrwt>0</asrwt>
<pdfrwt beam="1">  1        2 0.10072932E+00 0.19497180E+04</pdfrwt>
<pdfrwt beam="2">  1       -1 0.22330631E+00 0.19497180E+04</pdfrwt>
<totfact> 0.49630369E+00</totfact>
</mgrwt>
</event>
<event>
12    7  0.1572140E-007  0.2580172E+04  0.7818608E-02  0.8374968E-01
          2   -1    0    0  501    0  0.00000000000E+00  0.00000000000E+00  0.33971724321E+04  0.33971724321E+04  0.00000000000E+00 0. -1.
         -1   -1    0    0    0  501 -0.00000000000E+00 -0.00000000000E+00 -0.48991397660E+03  0.48991397660E+03  0.00000000000E+00 0.  1.
         24    2    1    2    0    0  0.91513577600E+03  0.34384790777E+03  0.21168447893E+04  0.23330418550E+04  0.79671593352E+02 0.  0.
        254    2    1    2    0    0 -0.91513577600E+03 -0.34384790777E+03  0.79041366622E+03  0.15540445538E+04  0.91356217036E+03 0.  0.
         23    2    4    4    0    0 -0.42791062947E+03 -0.12390702973E+02 -0.13062546798E+03  0.45664983365E+03  0.90581572931E+02 0.  0.
         23    2    4    4    0    0 -0.48722514653E+03 -0.33145720480E+03  0.92103913419E+03  0.10973947201E+04  0.93326646678E+02 0.  0.
          2    1    3    3  502    0  0.34679814980E+03  0.10244210399E+03  0.71559970033E+03  0.80177694684E+03  0.00000000000E+00 0. -1.
         -3    1    3    3    0  502  0.56833762621E+03  0.24140580378E+03  0.14012450890E+04  0.15312649081E+04  0.00000000000E+00 0.  1.
         13    1    5    5    0    0 -0.31292377781E+03  0.31462180488E+02 -0.93320076719E+02  0.32805456290E+03  0.00000000000E+00 0. -1.
        -13    1    5    5    0    0 -0.11498685166E+03 -0.43852883461E+02 -0.37305391256E+02  0.12859527075E+03  0.00000000000E+00 0.  1.
          3    1    6    6  503    0 -0.33635431005E+02 -0.44596223437E+02  0.53992517963E+02  0.77687562452E+02  0.00000000000E+00 0. -1.
         -3    1    6    6    0  503 -0.45358971553E+03 -0.28686098137E+03  0.86704661623E+03  0.10197071577E+04  0.00000000000E+00 0.  1.
<mgrwt>
<rscale>  0 0.25801723E+04</rscale>
<asrwt>0</asrwt>
<pdfrwt beam="1">  1        2 0.52264190E+00 0.25801723E+04</pdfrwt>
<pdfrwt beam="2">  1       -1 0.75371383E-01 0.25801723E+04</pdfrwt>
<totfact> 0.17081266E+00</totfact>
</mgrwt>
</event>
<event>
12    7  0.1572140E-007  0.1457086E+04  0.7818608E-02  0.8913502E-01
          2   -1    0    0  501    0  0.00000000000E+00  0.00000000000E+00  0.19901148453E+04  0.19901148453E+04  0.00000000000E+00 0. -1.
         -1   -1    0    0    0  501 -0.00000000000E+00 -0.00000000000E+00 -0.26670579413E+03  0.26670579413E+03  0.00000000000E+00 0.  1.
         24    2    1    2    0    0 -0.36959917033E+03  0.27208162575E+03  0.88704606620E+03  0.10019792661E+04  0.80497008780E+02 0.  0.
        254    2    1    2    0    0  0.36959917033E+03 -0.27208162575E+03  0.83636298494E+03  0.12548413733E+04  0.81516370854E+03 0.  0.
         23    2    4    4    0    0 -0.12825680079E+03 -0.18835513449E+03  0.67289619162E+03  0.71629777878E+03  0.91464526172E+02 0.  0.
         23    2    4    4    0    0  0.49785597112E+03 -0.83726491262E+02  0.16346679332E+03  0.53854359449E+03  0.91853782349E+02 0.  0.
          4    1    3    3  502    0 -0.36590821054E+03  0.25195899022E+03  0.83075842561E+03  0.94208901544E+03  0.00000000000E+00 0. -1.
         -3    1    3    3    0  502 -0.36909597904E+01  0.20122635536E+02  0.56287640589E+02  0.59890250694E+02  0.00000000000E+00 0.  1.
         13    1    5    5    0    0 -0.94025048306E+02 -0.77553424492E+02  0.25536027394E+03  0.28295602638E+03  0.00000000000E+00 0. -1.
        -13    1    5    5    0    0 -0.34231752487E+02 -0.11080171000E+03  0.41753591768E+03  0.43334175240E+03  0.00000000000E+00 0.  1.
          2    1    6    6  503    0  0.11648440893E+03  0.43955915262E+01  0.70521195712E+02  0.13623941351E+03  0.00000000000E+00 0. -1.
         -2    1    6    6    0  503  0.38137156219E+03 -0.88122082789E+02  0.92945597606E+02  0.40230418098E+03  0.00000000000E+00 0.  1.
<mgrwt>
<rscale>  0 0.14570864E+04</rscale>
<asrwt>0</asrwt>
<pdfrwt beam="1">  1        2 0.30617151E+00 0.14570864E+04</pdfrwt>
<pdfrwt beam="2">  1       -1 0.41031662E-01 0.14570864E+04</pdfrwt>
<totfact> 0.43443506E+01</totfact>
</mgrwt>
</event>
<event>
12    7  0.1572140E-007  0.1237834E+04  0.7818608E-02  0.9080370E-01
         -1   -1    0    0    0  501 -0.00000000000E+00  0.00000000000E+00  0.32139941367E+03  0.32139941367E+03  0.00000000000E+00 0.  1.
          2   -1    0    0  501    0  0.00000000000E+00 -0.00000000000E+00 -0.11918456805E+04  0.11918456805E+04  0.00000000000E+00 0. -1.
         24    2    1    2    0    0 -0.15967055942E+03 -0.33030239416E+02 -0.50487504700E+03  0.53671864066E+03  0.81132002849E+02 0.  0.
        254    2    1    2    0    0  0.15967055942E+03  0.33030239416E+02 -0.36557121978E+03  0.97652645346E+03  0.89071651681E+03 0.  0.
         23    2    4    4    0    0  0.10819406438E+03 -0.38112649789E+03 -0.36950491509E+03  0.54927427803E+03  0.90581384773E+02 0.  0.
         23    2    4    4    0    0  0.51476495044E+02  0.41415673731E+03  0.39336953136E+01  0.42725217543E+03  0.91396470658E+02 0.  0.
          4    1    3    3  502    0 -0.11269755665E+03 -0.59306008829E+02 -0.32879454562E+03  0.35259579576E+03  0.00000000000E+00 0. -1.
         -3    1    3    3    0  502 -0.46973002768E+02  0.26275769413E+02 -0.17608050138E+03  0.18412284490E+03  0.00000000000E+00 0.  1.
         13    1    5    5    0    0  0.28485607914E+02 -0.19861578450E+03 -0.13611154971E+03  0.24245827203E+03  0.00000000000E+00 0. -1.
        -13    1    5    5    0    0  0.79708456463E+02 -0.18251071339E+03 -0.23339336539E+03  0.30681600601E+03  0.00000000000E+00 0.  1.
          4    1    6    6  503    0  0.63781532839E+02  0.21335002081E+03 -0.24683297264E+02  0.22404370215E+03  0.00000000000E+00 0. -1.
         -4    1    6    6    0  503 -0.12305037795E+02  0.20080671650E+03  0.28616992577E+02  0.20320847328E+03  0.00000000000E+00 0.  1.
<mgrwt>
<rscale>  0 0.12378344E+04</rscale>
<asrwt>0</asrwt>
<pdfrwt beam="1">  1        2 0.18336088E+00 0.12378344E+04</pdfrwt>
<pdfrwt beam="2">  1       -1 0.49446063E-01 0.12378344E+04</pdfrwt>
<totfact> 0.88104227E+01</totfact>
</mgrwt>
</event>
<event>
12    7  0.1873947E-007  0.1755055E+04  0.7818608E-02  0.8730573E-01
         -1   -1    0    0    0  501 -0.00000000000E+00  0.00000000000E+00  0.74477081074E+03  0.74477081074E+03  0.00000000000E+00 0.  1.
          2   -1    0    0  501    0  0.00000000000E+00 -0.00000000000E+00 -0.10339481834E+04  0.10339481834E+04  0.00000000000E+00 0. -1.
         24    2    1    2    0    0  0.36488365047E+03  0.44185424434E+03 -0.40184733596E+03  0.70433806868E+03  0.78965701174E+02 0.  0.
        254    2    1    2    0    0 -0.36488365047E+03 -0.44185424434E+03  0.11266996327E+03  0.10743809255E+04  0.90178966549E+03 0.  0.
         23    2    4    4    0    0 -0.64107403298E+03 -0.18901071913E+03  0.13805419524E+03  0.68854429028E+03  0.91286971330E+02 0.  0.
         23    2    4    4    0    0  0.27619038252E+03 -0.25284352521E+03 -0.25384231965E+02  0.38583663520E+03  0.89524154260E+02 0.  0.
          4    1    3    3  502    0  0.35993402177E+03  0.43999807490E+03 -0.40518425378E+03  0.69808673204E+03  0.00000000000E+00 0. -1.
         -3    1    3    3    0  502  0.49496287027E+01  0.18561694396E+01  0.33369178221E+01  0.62513366438E+01  0.00000000000E+00 0.  1.
         13    1    5    5    0    0 -0.57673343401E+03 -0.18273891437E+03  0.99058234539E+02  0.61304771312E+03  0.00000000000E+00 0. -1.
        -13    1    5    5    0    0 -0.64340598974E+02 -0.62718047576E+01  0.38995960700E+02  0.75496577156E+02  0.00000000000E+00 0.  1.
          1    1    6    6  503    0  0.27789474774E+03 -0.25817433054E+03 -0.24009259955E+02  0.38007357227E+03  0.00000000000E+00 0. -1.
         -1    1    6    6    0  503 -0.17043652246E+01  0.53308053342E+01 -0.13749720105E+01  0.57630629322E+01  0.00000000000E+00 0.  1.
<mgrwt>
<rscale>  0 0.17550549E+04</rscale>
<asrwt>0</asrwt>
<pdfrwt beam="1">  1        2 0.15906895E+00 0.17550549E+04</pdfrwt>
<pdfrwt beam="2">  1       -1 0.11458013E+00 0.17550549E+04</pdfrwt>
<totfact> 0.17936175E+01</totfact>
</mgrwt>
</event>
<event>
12    7  0.1572140E-007  0.1418351E+04  0.7818608E-02  0.8940641E-01
          2   -1    0    0  501    0  0.00000000000E+00  0.00000000000E+00  0.37479469697E+03  0.37479469697E+03  0.00000000000E+00 0. -1.
         -1   -1    0    0    0  501 -0.00000000000E+00 -0.00000000000E+00 -0.13418810716E+04  0.13418810716E+04  0.00000000000E+00 0.  1.
         24    2    1    2    0    0  0.10074671769E+03  0.34204612629E+03 -0.21028909843E+02  0.36594049140E+03  0.79528451263E+02 0.  0.
        254    2    1    2    0    0 -0.10074671769E+03 -0.34204612629E+03 -0.94605746481E+03  0.13507352772E+04  0.89572072026E+03 0.  0.
         23    2    4    4    0    0 -0.88987359416E+02 -0.17450744835E+03 -0.10881830515E+04  0.11095076875E+04  0.92159402451E+02 0.  0.
         23    2    4    4    0    0 -0.11759358271E+02 -0.16753867794E+03  0.14212558666E+03  0.24122758970E+03  0.98911963562E+02 0.  0.
          2    1    3    3  502    0  0.11259483299E+03  0.27345612121E+03 -0.17289881196E+02  0.29623434412E+03  0.00000000000E+00 0. -1.
         -1    1    3    3    0  502 -0.11848115306E+02  0.68590005080E+02 -0.37390286461E+01  0.69706147278E+02  0.00000000000E+00 0.  1.
         13    1    5    5    0    0 -0.85721037537E+02 -0.15679631468E+03 -0.10662831454E+04  0.10811535167E+04  0.00000000000E+00 0. -1.
        -13    1    5    5    0    0 -0.32663218794E+01 -0.17711133668E+02 -0.21899906071E+02  0.28354170775E+02  0.00000000000E+00 0.  1.
          2    1    6    6  503    0 -0.48491270777E+02 -0.13001065440E+03  0.12272825405E+03  0.18524685676E+03  0.00000000000E+00 0. -1.
         -2    1    6    6    0  503  0.36731912506E+02 -0.37528023546E+02  0.19397332601E+02  0.55980732933E+02  0.00000000000E+00 0.  1.
<mgrwt>
<rscale>  0 0.14183510E+04</rscale>
<asrwt>0</asrwt>
<pdfrwt beam="1">  1        2 0.57660722E-01 0.14183510E+04</pdfrwt>
<pdfrwt beam="2">  1       -1 0.20644324E+00 0.14183510E+04</pdfrwt>
<totfact> 0.12939129E+01</totfact>
</mgrwt>
</event>
<event>
12    7  0.1572140E-007  0.2291951E+04  0.7818608E-02  0.8481101E-01
         -1   -1    0    0    0  501 -0.00000000000E+00  0.00000000000E+00  0.11239721118E+04  0.11239721118E+04  0.00000000000E+00 0.  1.
          2   -1    0    0  501    0  0.00000000000E+00 -0.00000000000E+00 -0.11684099431E+04  0.11684099431E+04  0.00000000000E+00 0. -1.
         24    2    1    2    0    0 -0.23630267126E+03  0.70383047309E+03  0.60429926355E+03  0.96065866322E+03  0.80443644832E+02 0.  0.
        254    2    1    2    0    0  0.23630267126E+03 -0.70383047309E+03 -0.64873709487E+03  0.13317233917E+04  0.89521566471E+03 0.  0.
         23    2    4    4    0    0  0.44795259107E+03 -0.64812742766E+03 -0.18963641148E+03  0.81518964263E+03  0.88552236293E+02 0.  0.
         23    2    4    4    0    0 -0.21164991981E+03 -0.55703045436E+02 -0.45910068339E+03  0.51653374904E+03  0.90195113966E+02 0.  0.
          2    1    3    3  502    0 -0.10143515647E+03  0.40895969308E+03  0.36817408255E+03  0.55954381115E+03  0.00000000000E+00 0. -1.
         -1    1    3    3    0  502 -0.13486751479E+03  0.29487078001E+03  0.23612518100E+03  0.40111485207E+03  0.00000000000E+00 0.  1.
         13    1    5    5    0    0  0.17494178543E+02 -0.85692733374E+01 -0.15364291445E+02  0.24810082226E+02  0.00000000000E+00 0.  1.
        -13    1    5    5    0    0  0.43045841253E+03 -0.63955815432E+03 -0.17427212004E+03  0.79037956040E+03  0.00000000000E+00 0. -1.
          2    1    6    6  503    0 -0.34524944899E+01 -0.25553953223E+02 -0.62083695683E+02  0.67225809874E+02  0.00000000000E+00 0.  1.
         -2    1    6    6    0  503 -0.20819742532E+03 -0.30149092212E+02 -0.39701698771E+03  0.44930793917E+03  0.00000000000E+00 0. -1.
<mgrwt>
<rscale>  0 0.22919513E+04</rscale>
<asrwt>0</asrwt>
<pdfrwt beam="1">  1        2 0.17975538E+00 0.22919513E+04</pdfrwt>
<pdfrwt beam="2">  1       -1 0.17291879E+00 0.22919513E+04</pdfrwt>
<totfact> 0.47936010E+00</totfact>
</mgrwt>
</event>
<event>
12    7  0.1572140E-007  0.1592591E+04  0.7818608E-02  0.8825113E-01
          2   -1    0    0  501    0  0.00000000000E+00  0.00000000000E+00  0.40011434752E+04  0.40011434752E+04  0.00000000000E+00 0. -1.
         -1   -1    0    0    0  501 -0.00000000000E+00 -0.00000000000E+00 -0.15847630151E+03  0.15847630151E+03  0.00000000000E+00 0.  1.
         24    2    1    2    0    0 -0.31917814829E+03 -0.24142279760E+03  0.36484542610E+03  0.54746482972E+03  0.80286345583E+02 0.  0.
        254    2    1    2    0    0  0.31917814829E+03  0.24142279760E+03  0.34778217475E+04  0.36121549469E+04  0.89008965587E+03 0.  0.
         23    2    4    4    0    0  0.19941517949E+03  0.52173673129E+03  0.13977121721E+04  0.15079731525E+04  0.91695593295E+02 0.  0.
         23    2    4    4    0    0  0.11976296880E+03 -0.28031393369E+03  0.20801095754E+04  0.21041817945E+04  0.88352183810E+02 0.  0.
          2    1    3    3  502    0 -0.34879086327E+02 -0.64474527983E+02  0.65043092338E+02  0.98000608582E+02  0.00000000000E+00 0. -1.
         -1    1    3    3    0  502 -0.28429906196E+03 -0.17694826961E+03  0.29980233376E+03  0.44946422113E+03  0.00000000000E+00 0.  1.
         13    1    5    5    0    0  0.74772720610E+02  0.26906490218E+03  0.59561811142E+03  0.65783570592E+03  0.00000000000E+00 0.  1.
        -13    1    5    5    0    0  0.12464245888E+03  0.25267182911E+03  0.80209406071E+03  0.85013744654E+03  0.00000000000E+00 0. -1.
          1    1    6    6  503    0  0.91845187150E+02 -0.26974423078E+03  0.17897960905E+04  0.18123375883E+04  0.00000000000E+00 0. -1.
         -1    1    6    6    0  503  0.27917781648E+02 -0.10569702911E+02  0.29031348491E+03  0.29184420616E+03  0.00000000000E+00 0.  1.
<mgrwt>
<rscale>  0 0.15925909E+04</rscale>
<asrwt>0</asrwt>
<pdfrwt beam="1">  1        2 0.61556046E+00 0.15925909E+04</pdfrwt>
<pdfrwt beam="2">  1       -1 0.24380972E-01 0.15925909E+04</pdfrwt>
<totfact> 0.55667604E+00</totfact>
</mgrwt>
</event>
<event>
12    7  0.1572140E-007  0.1365023E+04  0.7818608E-02  0.8979533E-01
         -1   -1    0    0    0  501 -0.00000000000E+00  0.00000000000E+00  0.38803712847E+03  0.38803712847E+03  0.00000000000E+00 0.  1.
          2   -1    0    0  501    0  0.00000000000E+00 -0.00000000000E+00 -0.12004567349E+04  0.12004567349E+04  0.00000000000E+00 0. -1.
         24    2    1    2    0    0 -0.32049996715E+03  0.25098105347E+03 -0.15645199163E+03  0.44292506805E+03  0.77418809595E+02 0.  0.
        254    2    1    2    0    0  0.32049996715E+03 -0.25098105347E+03 -0.65596761481E+03  0.11455687953E+04  0.84635845539E+03 0.  0.
         23    2    4    4    0    0  0.14838156179E+03  0.29541663719E+03 -0.14125728406E+03  0.37007631081E+03  0.87833809606E+02 0.  0.
         23    2    4    4    0    0  0.17211840536E+03 -0.54639769066E+03 -0.51471033076E+03  0.77549248453E+03  0.91031242682E+02 0.  0.
          2    1    3    3  502    0 -0.29576470847E+03  0.22433888144E+03 -0.11687313076E+03  0.38918379359E+03  0.00000000000E+00 0. -1.
         -1    1    3    3    0  502 -0.24735258681E+02  0.26642172032E+02 -0.39578860874E+02  0.53741274461E+02  0.00000000000E+00 0.  1.
         13    1    5    5    0    0  0.83640433382E+02  0.22043885042E+03 -0.63589526659E+02  0.24419794588E+03  0.00000000000E+00 0.  1.
        -13    1    5    5    0    0  0.64741128410E+02  0.74977786770E+02 -0.77667757396E+02  0.12587836492E+03  0.00000000000E+00 0. -1.
          3    1    6    6  503    0  0.45975079395E+02 -0.10060900058E+03 -0.14723084030E+03  0.18415428113E+03  0.00000000000E+00 0. -1.
         -3    1    6    6    0  503  0.12614332597E+03 -0.44578869008E+03 -0.36747949046E+03  0.59133820340E+03  0.00000000000E+00 0.  1.
<mgrwt>
<rscale>  0 0.13650228E+04</rscale>
<asrwt>0</asrwt>
<pdfrwt beam="1">  1        2 0.18468566E+00 0.13650228E+04</pdfrwt>
<pdfrwt beam="2">  1       -1 0.59698018E-01 0.13650228E+04</pdfrwt>
<totfact> 0.59906522E+01</totfact>
</mgrwt>
</event>
<event>
12    7  0.1572140E-007  0.1199137E+04  0.7818608E-02  0.9113612E-01
         -1   -1    0    0    0  501 -0.00000000000E+00  0.00000000000E+00  0.27565448263E+03  0.27565448263E+03  0.00000000000E+00 0.  1.
          2   -1    0    0  501    0  0.00000000000E+00 -0.00000000000E+00 -0.13041055266E+04  0.13041055266E+04  0.00000000000E+00 0. -1.
         24    2    1    2    0    0  0.47399321459E+02 -0.19472628734E+03 -0.31332083238E+02  0.21793863792E+03  0.79690198915E+02 0.  0.
        254    2    1    2    0    0 -0.47399321459E+02  0.19472628734E+03 -0.99711896069E+03  0.13618213713E+04  0.90561923721E+03 0.  0.
         23    2    4    4    0    0  0.56136303676E+02 -0.27351468742E+03 -0.76615237202E+03  0.82061991040E+03  0.92010930713E+02 0.  0.
         23    2    4    4    0    0 -0.10353562513E+03  0.46824097475E+03 -0.23096658867E+03  0.54120146086E+03  0.97899029859E+02 0.  0.
          2    1    3    3  502    0 -0.17254855808E+02 -0.11187911364E+02  0.13985701091E+01  0.20612020958E+02  0.00000000000E+00 0. -1.
         -1    1    3    3    0  502  0.64654177266E+02 -0.18353837597E+03 -0.32730653347E+02  0.19732661696E+03  0.00000000000E+00 0.  1.
         13    1    5    5    0    0  0.13090721610E+02 -0.24130753548E+02 -0.23858369996E+02  0.36371445914E+02  0.00000000000E+00 0.  1.
        -13    1    5    5    0    0  0.43045582066E+02 -0.24938393387E+03 -0.74229400203E+03  0.78424846449E+03  0.00000000000E+00 0. -1.
          3    1    6    6  503    0 -0.12138504574E+03  0.40600696435E+03 -0.18867075502E+03  0.46386704802E+03  0.00000000000E+00 0. -1.
         -3    1    6    6    0  503  0.17849420609E+02  0.62234010400E+02 -0.42295833643E+02  0.77334412845E+02  0.00000000000E+00 0.  1.
<mgrwt>
<rscale>  0 0.11991372E+04</rscale>
<asrwt>0</asrwt>
<pdfrwt beam="1">  1        2 0.20063162E+00 0.11991372E+04</pdfrwt>
<pdfrwt beam="2">  1       -1 0.42408382E-01 0.11991372E+04</pdfrwt>
<totfact> 0.10107063E+02</totfact>
</mgrwt>
</event>
<event>
12    7  0.1572140E-007  0.2910459E+04  0.7818608E-02  0.8269773E-01
         -1   -1    0    0    0  501 -0.00000000000E+00  0.00000000000E+00  0.77490316250E+03  0.77490316250E+03  0.00000000000E+00 0.  1.
          2   -1    0    0  501    0  0.00000000000E+00 -0.00000000000E+00 -0.27328476858E+04  0.27328476858E+04  0.00000000000E+00 0. -1.
         24    2    1    2    0    0  0.59474710876E+02 -0.11029102060E+04 -0.17023516033E+04  0.20307906937E+04  0.78496476519E+02 0.  0.
        254    2    1    2    0    0 -0.59474710876E+02  0.11029102060E+04 -0.25559291999E+03  0.14769601545E+04  0.94664428035E+03 0.  0.
         23    2    4    4    0    0  0.21826011079E+03 -0.56638336535E+02  0.32678990299E+02  0.24713837991E+03  0.95729229022E+02 0.  0.
         23    2    4    4    0    0 -0.27773482167E+03  0.11595485426E+04 -0.28827191029E+03  0.12298217746E+04  0.87586810318E+02 0.  0.
          2    1    3    3  502    0  0.32687058799E+02 -0.35684600231E+03 -0.49066211941E+03  0.60758277510E+03  0.00000000000E+00 0. -1.
         -1    1    3    3    0  502  0.26787652078E+02 -0.74606420372E+03 -0.12116894838E+04  0.14232079186E+04  0.00000000000E+00 0.  1.
         13    1    5    5    0    0  0.95944935536E+02  0.23442454934E+02  0.13746713261E+02  0.99719363585E+02  0.00000000000E+00 0.  1.
        -13    1    5    5    0    0  0.12231517526E+03 -0.80080791470E+02  0.18932277039E+02  0.14741901633E+03  0.00000000000E+00 0. -1.
          3    1    6    6  503    0 -0.16118716575E+03  0.80507713538E+03 -0.22530550607E+03  0.85140652298E+03  0.00000000000E+00 0. -1.
         -3    1    6    6    0  503 -0.11654765592E+03  0.35447140719E+03 -0.62966404220E+02  0.37841525164E+03  0.00000000000E+00 0.  1.
<mgrwt>
<rscale>  0 0.29104586E+04</rscale>
<asrwt>0</asrwt>
<pdfrwt beam="1">  1        2 0.42043811E+00 0.29104586E+04</pdfrwt>
<pdfrwt beam="2">  1       -1 0.11921587E+00 0.29104586E+04</pdfrwt>
<totfact> 0.15642897E+00</totfact>
</mgrwt>
</event>
<event>
12    7  0.1572140E-007  0.1102082E+04  0.7818608E-02  0.9203165E-01
          2   -1    0    0  501    0  0.00000000000E+00  0.00000000000E+00  0.23576438234E+04  0.23576438234E+04  0.00000000000E+00 0. -1.
         -1   -1    0    0    0  501 -0.00000000000E+00 -0.00000000000E+00 -0.12879224053E+03  0.12879224053E+03  0.00000000000E+00 0.  1.
         24    2    1    2    0    0  0.22738747098E+01  0.44562193421E+02  0.76373154128E+03  0.76916542969E+03  0.79615522982E+02 0.  0.
        254    2    1    2    0    0 -0.22738747098E+01 -0.44562193421E+02  0.14651200416E+04  0.17172706343E+04  0.89467912426E+03 0.  0.
         23    2    4    4    0    0  0.31494472713E+03  0.89548953372E+02  0.18138235107E+03  0.38515059898E+03  0.90731639575E+02 0.  0.
         23    2    4    4    0    0 -0.31721860184E+03 -0.13411114679E+03  0.12837376906E+04  0.13321200353E+04  0.89150935074E+02 0.  0.
          2    1    3    3  502    0 -0.23376693017E+02  0.87414205854E+01  0.56751174945E+03  0.56806026790E+03  0.00000000000E+00 0. -1.
         -1    1    3    3    0  502  0.25650567727E+02  0.35820772835E+02  0.19621979183E+03  0.20110516179E+03  0.00000000000E+00 0.  1.
         13    1    5    5    0    0  0.19421949386E+03  0.39838622758E+02  0.15569182057E+03  0.25208782329E+03  0.00000000000E+00 0.  1.
        -13    1    5    5    0    0  0.12072523327E+03  0.49710330614E+02  0.25690530499E+02  0.13306277569E+03  0.00000000000E+00 0. -1.
          2    1    6    6  503    0 -0.12864386792E+03 -0.10263620250E+03  0.59252445100E+03  0.61495419330E+03  0.00000000000E+00 0. -1.
         -2    1    6    6    0  503 -0.18857473392E+03 -0.31474944295E+02  0.69121323957E+03  0.71716584201E+03  0.00000000000E+00 0.  1.
<mgrwt>
<rscale>  0 0.11020821E+04</rscale>
<asrwt>0</asrwt>
<pdfrwt beam="1">  1        2 0.36271440E+00 0.11020821E+04</pdfrwt>
<pdfrwt beam="2">  1       -1 0.19814193E-01 0.11020821E+04</pdfrwt>
<totfact> 0.99410275E+01</totfact>
</mgrwt>
</event>
<event>
12    7  0.1572140E-007  0.1787160E+04  0.7818608E-02  0.8713158E-01
         -1   -1    0    0    0  501 -0.00000000000E+00  0.00000000000E+00  0.32538952025E+03  0.32538952025E+03  0.00000000000E+00 0.  1.
          2   -1    0    0  501    0  0.00000000000E+00 -0.00000000000E+00 -0.24539352883E+04  0.24539352883E+04  0.00000000000E+00 0. -1.
         24    2    1    2    0    0  0.30933366086E+03 -0.25477843279E+03  0.12498270195E+02  0.40899948444E+03  0.80777521376E+02 0.  0.
        254    2    1    2    0    0 -0.30933366086E+03  0.25477843279E+03 -0.21410440382E+04  0.23703253241E+04  0.93475836712E+03 0.  0.
         23    2    4    4    0    0  0.20446821706E+01  0.14629579503E+03  0.27554410767E+02  0.17485950518E+03  0.91705837490E+02 0.  0.
         23    2    4    4    0    0 -0.31137834303E+03  0.10848263776E+03 -0.21685984490E+04  0.21954658189E+04  0.92336200380E+02 0.  0.
          4    1    3    3  502    0  0.83415021278E+02 -0.83591746512E+02 -0.31339020030E+02  0.12217929463E+03  0.00000000000E+00 0. -1.
         -3    1    3    3    0  502  0.22591863958E+03 -0.17118668627E+03  0.43837290226E+02  0.28682018981E+03  0.00000000000E+00 0.  1.
         13    1    5    5    0    0  0.10167576562E+02  0.83478214557E+02  0.60372263413E+02  0.10352198853E+03  0.00000000000E+00 0.  1.
        -13    1    5    5    0    0 -0.81228943911E+01  0.62817580472E+02 -0.32817852646E+02  0.71337516651E+02  0.00000000000E+00 0. -1.
          4    1    6    6  503    0 -0.16053147597E+03  0.88811975652E+01 -0.10996620175E+04  0.11113531316E+04  0.00000000000E+00 0. -1.
         -4    1    6    6    0  503 -0.15084686706E+03  0.99601440191E+02 -0.10689364314E+04  0.10841126873E+04  0.00000000000E+00 0.  1.
<mgrwt>
<rscale>  0 0.17871596E+04</rscale>
<asrwt>0</asrwt>
<pdfrwt beam="1">  1        2 0.37752850E+00 0.17871596E+04</pdfrwt>
<pdfrwt beam="2">  1       -1 0.50059927E-01 0.17871596E+04</pdfrwt>
<totfact> 0.15967279E+01</totfact>
</mgrwt>
</event>
<event>
12    7  0.1572140E-007  0.1491916E+04  0.7818608E-02  0.8889846E-01
         -1   -1    0    0    0  501 -0.00000000000E+00  0.00000000000E+00  0.54520989579E+03  0.54520989579E+03  0.00000000000E+00 0.  1.
          2   -1    0    0  501    0  0.00000000000E+00 -0.00000000000E+00 -0.10206225517E+04  0.10206225517E+04  0.00000000000E+00 0. -1.
         24    2    1    2    0    0 -0.24783613887E+03  0.39889977393E+03 -0.16197545632E+03  0.50295376682E+03  0.78629903546E+02 0.  0.
        254    2    1    2    0    0  0.24783613887E+03 -0.39889977393E+03 -0.31343719961E+03  0.10628786807E+04  0.90051342599E+03 0.  0.
         23    2    4    4    0    0 -0.26292036025E+03 -0.81073561244E+02 -0.34856364558E+03  0.45347350102E+03  0.91877978560E+02 0.  0.
         23    2    4    4    0    0  0.51075649912E+03 -0.31782621269E+03  0.35126445965E+02  0.60940517967E+03  0.90857596999E+02 0.  0.
          4    1    3    3  502    0  0.23728805346E+01 -0.23134640195E+01 -0.93545511739E+00  0.34435089774E+01  0.00000000000E+00 0. -1.
         -3    1    3    3    0  502 -0.25020901940E+03  0.40121323795E+03 -0.16104000121E+03  0.49951025784E+03  0.00000000000E+00 0.  1.
         13    1    5    5    0    0 -0.20102783968E+03 -0.39370623848E+02 -0.30391582207E+03  0.36650656918E+03  0.00000000000E+00 0. -1.
        -13    1    5    5    0    0 -0.61892520572E+02 -0.41702937396E+02 -0.44647823511E+02  0.86966931845E+02  0.00000000000E+00 0.  1.
          3    1    6    6  503    0  0.47591704616E+03 -0.28251335910E+03  0.54542177455E+02  0.55613458984E+03  0.00000000000E+00 0. -1.
         -3    1    6    6    0  503  0.34839452965E+02 -0.35312853591E+02 -0.19415731490E+02  0.53270589831E+02  0.00000000000E+00 0.  1.
<mgrwt>
<rscale>  0 0.14919162E+04</rscale>
<asrwt>0</asrwt>
<pdfrwt beam="1">  1        2 0.15701885E+00 0.14919162E+04</pdfrwt>
<pdfrwt beam="2">  1       -1 0.83878446E-01 0.14919162E+04</pdfrwt>
<totfact> 0.37981895E+01</totfact>
</mgrwt>
</event>
<event>
12    7  0.1572140E-007  0.1158294E+04  0.7818608E-02  0.9150166E-01
          2   -1    0    0  501    0  0.00000000000E+00  0.00000000000E+00  0.15674543216E+04  0.15674543216E+04  0.00000000000E+00 0. -1.
         -1   -1    0    0    0  501 -0.00000000000E+00 -0.00000000000E+00 -0.21398455347E+03  0.21398455347E+03  0.00000000000E+00 0.  1.
         24    2    1    2    0    0 -0.11558558453E+03 -0.30005467048E+02  0.55729365102E+03  0.57584670774E+03  0.82236621643E+02 0.  0.
        254    2    1    2    0    0  0.11558558453E+03  0.30005467048E+02  0.79617611712E+03  0.12055921674E+04  0.89738269936E+03 0.  0.
         23    2    4    4    0    0  0.65686234272E+02  0.12441670362E+03 -0.16436028755E+03  0.23478436129E+03  0.91187689230E+02 0.  0.
         23    2    4    4    0    0  0.49899350255E+02 -0.94411236577E+02  0.96053640467E+03  0.97080780607E+03  0.91837818336E+02 0.  0.
          4    1    3    3  502    0 -0.12859343073E+03 -0.29718685117E+02  0.50724985063E+03  0.52413918155E+03  0.00000000000E+00 0. -1.
         -3    1    3    3    0  502  0.13007846203E+02 -0.28678193165E+00  0.50043800390E+02  0.51707526185E+02  0.00000000000E+00 0.  1.
         13    1    5    5    0    0  0.73646630512E+02  0.13528990578E+03 -0.15369256268E+03  0.21759730839E+03  0.00000000000E+00 0. -1.
        -13    1    5    5    0    0 -0.79603962404E+01 -0.10873202160E+02 -0.10667724868E+02  0.17187052900E+02  0.00000000000E+00 0.  1.
          3    1    6    6  503    0  0.53194255693E+02 -0.88883251058E+02  0.95846650318E+03  0.96404766421E+03  0.00000000000E+00 0. -1.
         -3    1    6    6    0  503 -0.32949054382E+01 -0.55279855187E+01  0.20699014942E+01  0.67601418578E+01  0.00000000000E+00 0.  1.
<mgrwt>
<rscale>  0 0.11582936E+04</rscale>
<asrwt>0</asrwt>
<pdfrwt beam="1">  1        2 0.24114681E+00 0.11582936E+04</pdfrwt>
<pdfrwt beam="2">  1       -1 0.32920702E-01 0.11582936E+04</pdfrwt>
<totfact> 0.11344953E+02</totfact>
</mgrwt>
</event>
<event>
12    7  0.1572140E-007  0.4129909E+04  0.7818608E-02  0.7978841E-01
          2   -1    0    0  501    0  0.00000000000E+00  0.00000000000E+00  0.28712114766E+04  0.28712114766E+04  0.00000000000E+00 0. -1.
         -1   -1    0    0    0  501 -0.00000000000E+00 -0.00000000000E+00 -0.14851002898E+04  0.14851002898E+04  0.00000000000E+00 0.  1.
         24    2    1    2    0    0  0.19408018331E+04 -0.20411114058E+03  0.92821803599E+03  0.21624744267E+04  0.79585240991E+02 0.  0.
        254    2    1    2    0    0 -0.19408018331E+04  0.20411114058E+03  0.45789315078E+03  0.21938373397E+04  0.89156212486E+03 0.  0.
         23    2    4    4    0    0 -0.24302948540E+03  0.20415094734E+03 -0.18237069180E+03  0.37673946347E+03  0.89065223451E+02 0.  0.
         23    2    4    4    0    0 -0.16977723477E+04 -0.39806760840E-01  0.64026384258E+03  0.18170978763E+04  0.97344529996E+02 0.  0.
          4    1    3    3  502    0  0.16831729748E+04 -0.20121528802E+03  0.79228901738E+03  0.18711709548E+04  0.00000000000E+00 0. -1.
         -3    1    3    3    0  502  0.25762885835E+03 -0.28958525605E+01  0.13592901860E+03  0.29130347186E+03  0.00000000000E+00 0.  1.
         13    1    5    5    0    0 -0.17702050232E+03  0.13521177146E+03 -0.17059019158E+03  0.28056994645E+03  0.00000000000E+00 0.  1.
        -13    1    5    5    0    0 -0.66008983082E+02  0.68939175880E+02 -0.11780500218E+02  0.96169517020E+02  0.00000000000E+00 0. -1.
          2    1    6    6  503    0 -0.26724640611E+03  0.17430417811E+02  0.68457162825E+02  0.27642511497E+03  0.00000000000E+00 0. -1.
         -2    1    6    6    0  503 -0.14305259416E+04 -0.17470224572E+02  0.57180667976E+03  0.15406727613E+04  0.00000000000E+00 0.  1.
<mgrwt>
<rscale>  0 0.41299090E+04</rscale>
<asrwt>0</asrwt>
<pdfrwt beam="1">  1        2 0.44172484E+00 0.41299090E+04</pdfrwt>
<pdfrwt beam="2">  1       -1 0.22847697E+00 0.41299090E+04</pdfrwt>
<totfact> 0.17923049E-01</totfact>
</mgrwt>
</event>
<event>
12    7  0.1572140E-007  0.1354992E+04  0.7818608E-02  0.8987058E-01
         -1   -1    0    0    0  501 -0.00000000000E+00  0.00000000000E+00  0.72164006566E+03  0.72164006566E+03  0.00000000000E+00 0.  1.
          2   -1    0    0  501    0  0.00000000000E+00 -0.00000000000E+00 -0.63605249743E+03  0.63605249743E+03  0.00000000000E+00 0. -1.
         24    2    1    2    0    0 -0.82721048061E+02 -0.22221920381E+03 -0.25912150292E+03  0.36098052395E+03  0.83299694258E+02 0.  0.
        254    2    1    2    0    0  0.82721048061E+02  0.22221920381E+03  0.34470907114E+03  0.99671203913E+03  0.90464711291E+03 0.  0.
         23    2    4    4    0    0 -0.39186138010E+03  0.86585305000E+02  0.51560581655E+02  0.41521951913E+03  0.93254486360E+02 0.  0.
         23    2    4    4    0    0  0.47458242816E+03  0.13563389881E+03  0.29314848949E+03  0.58149252001E+03  0.92587679020E+02 0.  0.
          2    1    3    3  502    0 -0.80082692360E+02 -0.22246623981E+03 -0.22380866715E+03  0.32556840289E+03  0.00000000000E+00 0. -1.
         -1    1    3    3    0  502 -0.26383557007E+01  0.24703600475E+00 -0.35312835771E+02  0.35412121057E+02  0.00000000000E+00 0.  1.
         13    1    5    5    0    0 -0.17704912655E+03  0.81180754263E+00  0.49753217049E+02  0.18390876774E+03  0.00000000000E+00 0.  1.
        -13    1    5    5    0    0 -0.21481225355E+03  0.85773497457E+02  0.18073646059E+01  0.23131075139E+03  0.00000000000E+00 0. -1.
          2    1    6    6  503    0  0.38901992802E+03  0.80041017201E+02  0.25782089866E+03  0.47351313036E+03  0.00000000000E+00 0. -1.
         -2    1    6    6    0  503  0.85562500139E+02  0.55592881607E+02  0.35327590832E+02  0.10797938965E+03  0.00000000000E+00 0.  1.
<mgrwt>
<rscale>  0 0.13549922E+04</rscale>
<asrwt>0</asrwt>
<pdfrwt beam="1">  1        2 0.97854230E-01 0.13549922E+04</pdfrwt>
<pdfrwt beam="2">  1       -1 0.11102155E+00 0.13549922E+04</pdfrwt>
<totfact> 0.38487280E+01</totfact>
</mgrwt>
</event>
<event>
12    7  0.1572140E-007  0.1797624E+04  0.7818608E-02  0.8707564E-01
          2   -1    0    0  501    0  0.00000000000E+00  0.00000000000E+00  0.58054481940E+03  0.58054481940E+03  0.00000000000E+00 0. -1.
         -1   -1    0    0    0  501 -0.00000000000E+00 -0.00000000000E+00 -0.13915599096E+04  0.13915599096E+04  0.00000000000E+00 0.  1.
         24    2    1    2    0    0  0.58153445058E+03 -0.28957003055E+03 -0.46852144420E+03  0.80496087347E+03  0.80103335342E+02 0.  0.
        254    2    1    2    0    0 -0.58153445058E+03  0.28957003055E+03 -0.34249364604E+03  0.11671438556E+04  0.90713271477E+03 0.  0.
         23    2    4    4    0    0 -0.39904060785E+02  0.16841584975E+03  0.27082599061E+03  0.33481094803E+03  0.93783907021E+02 0.  0.
         23    2    4    4    0    0 -0.54163038979E+03  0.12115418080E+03 -0.61331963665E+03  0.83233290754E+03  0.92602794808E+02 0.  0.
          2    1    3    3  502    0  0.27868689796E+02 -0.36154731615E+02 -0.31739956604E+02  0.55599040768E+02  0.00000000000E+00 0. -1.
         -1    1    3    3    0  502  0.55366576078E+03 -0.25341529894E+03 -0.43678148760E+03  0.74936183270E+03  0.00000000000E+00 0.  1.
         13    1    5    5    0    0 -0.35051141344E+02  0.18003684215E+03  0.26011044529E+03  0.31827549512E+03  0.00000000000E+00 0. -1.
        -13    1    5    5    0    0 -0.48529194409E+01 -0.11620992403E+02  0.10715545313E+02  0.16535452909E+02  0.00000000000E+00 0.  1.
          3    1    6    6  503    0 -0.38383141326E+03  0.42215815717E+02 -0.42818439338E+03  0.57658529606E+03  0.00000000000E+00 0. -1.
         -3    1    6    6    0  503 -0.15779897654E+03  0.78938365088E+02 -0.18513524327E+03  0.25574761148E+03  0.00000000000E+00 0.  1.
<mgrwt>
<rscale>  0 0.17976239E+04</rscale>
<asrwt>0</asrwt>
<pdfrwt beam="1">  1        2 0.89314589E-01 0.17976239E+04</pdfrwt>
<pdfrwt beam="2">  1       -1 0.21408614E+00 0.17976239E+04</pdfrwt>
<totfact> 0.67135169E+00</totfact>
</mgrwt>
</event>
<event>
12    7  0.1572140E-007  0.2589131E+04  0.7818608E-02  0.8371903E-01
         -3   -1    0    0    0  501 -0.00000000000E+00  0.00000000000E+00  0.95662388729E+03  0.95662388729E+03  0.00000000000E+00 0.  1.
          2   -1    0    0  501    0  0.00000000000E+00 -0.00000000000E+00 -0.17518893677E+04  0.17518893677E+04  0.00000000000E+00 0. -1.
         24    2    1    2    0    0 -0.56696900841E+03  0.92337263008E+03 -0.70810852712E+03  0.12987164597E+04  0.10571606322E+03 0.  0.
        254    2    1    2    0    0  0.56696900841E+03 -0.92337263008E+03 -0.87156953241E+02  0.14097967952E+04  0.89769694155E+03 0.  0.
         23    2    4    4    0    0  0.47308958998E+03 -0.39177840169E+03 -0.43808393176E+03  0.75997782687E+03  0.91349274095E+02 0.  0.
         23    2    4    4    0    0  0.93879418431E+02 -0.53159422839E+03  0.35092697852E+03  0.64981896837E+03  0.87801927908E+02 0.  0.
          2    1    3    3  502    0 -0.29434767029E+03  0.39161495174E+03 -0.28848838719E+03  0.56853176779E+03  0.00000000000E+00 0. -1.
         -1    1    3    3    0  502 -0.27262133812E+03  0.53175767834E+03 -0.41962013993E+03  0.73018469191E+03  0.00000000000E+00 0.  1.
         13    1    5    5    0    0  0.91144480976E+02 -0.47531697355E+02 -0.42516722472E+02  0.11123960785E+03  0.00000000000E+00 0. -1.
        -13    1    5    5    0    0  0.38194510901E+03 -0.34424670434E+03 -0.39556720929E+03  0.64873821901E+03  0.00000000000E+00 0.  1.
          4    1    6    6  503    0  0.33004202319E+02 -0.35147112027E+03  0.19103078625E+03  0.40139006845E+03  0.00000000000E+00 0. -1.
         -4    1    6    6    0  503  0.60875216112E+02 -0.18012310812E+03  0.15989619227E+03  0.24842889992E+03  0.00000000000E+00 0.  1.
<mgrwt>
<rscale>  0 0.25891305E+04</rscale>
<asrwt>0</asrwt>
<pdfrwt beam="1">  1        2 0.26952144E+00 0.25891305E+04</pdfrwt>
<pdfrwt beam="2">  1       -3 0.14717291E+00 0.25891305E+04</pdfrwt>
<totfact> 0.17466254E+00</totfact>
</mgrwt>
</event>
<event>
12    7  0.1572140E-007  0.1762476E+04  0.7818608E-02  0.8726513E-01
         -1   -1    0    0    0  501 -0.00000000000E+00  0.00000000000E+00  0.70637945151E+03  0.70637945151E+03  0.00000000000E+00 0.  1.
          2   -1    0    0  501    0  0.00000000000E+00 -0.00000000000E+00 -0.10993818113E+04  0.10993818113E+04  0.00000000000E+00 0. -1.
         24    2    1    2    0    0 -0.11248058922E+03  0.31054432952E+03  0.43191346487E+03  0.54995967182E+03  0.82563526700E+02 0.  0.
        254    2    1    2    0    0  0.11248058922E+03 -0.31054432952E+03 -0.82491582465E+03  0.12558015910E+04  0.88739047470E+03 0.  0.
         23    2    4    4    0    0 -0.22298376905E+03  0.17282233321E+03 -0.49283045483E+03  0.57397372765E+03  0.83514446136E+02 0.  0.
         23    2    4    4    0    0  0.33546435828E+03 -0.48336666273E+03 -0.33208536982E+03  0.68182786332E+03  0.91808910444E+02 0.  0.
          2    1    3    3  502    0 -0.33229418306E+02  0.12304722882E+03  0.10635286171E+03  0.16599923480E+03  0.00000000000E+00 0. -1.
         -1    1    3    3    0  502 -0.79251170918E+02  0.18749710070E+03  0.32556060316E+03  0.38396043702E+03  0.00000000000E+00 0.  1.
         13    1    5    5    0    0 -0.10811232823E+03  0.37771432765E+02 -0.15852729675E+03  0.19556548894E+03  0.00000000000E+00 0.  1.
        -13    1    5    5    0    0 -0.11487144082E+03  0.13505090044E+03 -0.33430315808E+03  0.37840823872E+03  0.00000000000E+00 0. -1.
          3    1    6    6  503    0  0.32029326550E+03 -0.48364561481E+03 -0.32649289314E+03  0.66565641732E+03  0.00000000000E+00 0. -1.
         -3    1    6    6    0  503  0.15171092778E+02  0.27895207587E+00 -0.55924766746E+01  0.16171445999E+02  0.00000000000E+00 0.  1.
<mgrwt>
<rscale>  0 0.17624763E+04</rscale>
<asrwt>0</asrwt>
<pdfrwt beam="1">  1        2 0.16913566E+00 0.17624763E+04</pdfrwt>
<pdfrwt beam="2">  1       -1 0.10867376E+00 0.17624763E+04</pdfrwt>
<totfact> 0.18497869E+01</totfact>
</mgrwt>
</event>
<event>
12    7  0.1572140E-007  0.2335251E+04  0.7818608E-02  0.8464151E-01
          2   -1    0    0  501    0  0.00000000000E+00  0.00000000000E+00  0.12463423472E+04  0.12463423472E+04  0.00000000000E+00 0. -1.
         -1   -1    0    0    0  501 -0.00000000000E+00 -0.00000000000E+00 -0.10938798391E+04  0.10938798391E+04  0.00000000000E+00 0.  1.
         24    2    1    2    0    0 -0.24915881635E+02 -0.97849150990E+03  0.23554801988E+03  0.10098799296E+04  0.79423965769E+02 0.  0.
        254    2    1    2    0    0  0.24915881635E+02  0.97849150990E+03 -0.83085511806E+02  0.13303422568E+04  0.89712924482E+03 0.  0.
         23    2    4    4    0    0 -0.29282315579E+03  0.88381678257E+03 -0.21773001109E+03  0.96011391344E+03  0.86803590603E+02 0.  0.
         23    2    4    4    0    0  0.31773903742E+03  0.94674727335E+02  0.13464449928E+03  0.37022834338E+03  0.94965705169E+02 0.  0.
          4    1    3    3  502    0 -0.46497931659E+02 -0.66772444505E+03  0.13770243395E+03  0.68335931433E+03  0.00000000000E+00 0. -1.
         -3    1    3    3    0  502  0.21582050025E+02 -0.31076706485E+03  0.97845585932E+02  0.32652061522E+03  0.00000000000E+00 0.  1.
         13    1    5    5    0    0 -0.32523188882E+02  0.15853772680E+03 -0.10599405519E+02  0.16218605375E+03  0.00000000000E+00 0. -1.
        -13    1    5    5    0    0 -0.26029996690E+03  0.72527905576E+03 -0.20713060557E+03  0.79792785969E+03  0.00000000000E+00 0.  1.
          3    1    6    6  503    0  0.14181239367E+03  0.47246426336E+02  0.10694692898E+02  0.14985778677E+03  0.00000000000E+00 0. -1.
         -3    1    6    6    0  503  0.17592664375E+03  0.47428300999E+02  0.12394980638E+03  0.22037055661E+03  0.00000000000E+00 0.  1.
<mgrwt>
<rscale>  0 0.23352505E+04</rscale>
<asrwt>0</asrwt>
<pdfrwt beam="1">  1        2 0.19174498E+00 0.23352505E+04</pdfrwt>
<pdfrwt beam="2">  1       -1 0.16828921E+00 0.23352505E+04</pdfrwt>
<totfact> 0.46398115E+00</totfact>
</mgrwt>
</event>
<event>
12    7  0.1572140E-007  0.1756908E+04  0.7818608E-02  0.8729557E-01
         -1   -1    0    0    0  501 -0.00000000000E+00  0.00000000000E+00  0.67202071828E+03  0.67202071828E+03  0.00000000000E+00 0.  1.
          2   -1    0    0  501    0  0.00000000000E+00 -0.00000000000E+00 -0.11482994066E+04  0.11482994066E+04  0.00000000000E+00 0. -1.
         24    2    1    2    0    0 -0.36696746064E+03  0.51533506624E+03 -0.41553078339E+02  0.63890722482E+03  0.78996429954E+02 0.  0.
        254    2    1    2    0    0  0.36696746064E+03 -0.51533506624E+03 -0.43472561001E+03  0.11814129001E+04  0.89806165536E+03 0.  0.
         23    2    4    4    0    0  0.15663964028E+02 -0.99654903829E+01 -0.54261148419E+03  0.55046945086E+03  0.90800455921E+02 0.  0.
         23    2    4    4    0    0  0.35130349661E+03 -0.50536957586E+03  0.10788587418E+03  0.63094344923E+03  0.87394046367E+02 0.  0.
          2    1    3    3  502    0 -0.32579957996E+03  0.46785900034E+03 -0.13998992058E+02  0.57029236562E+03  0.00000000000E+00 0. -1.
         -1    1    3    3    0  502 -0.41167880675E+02  0.47476065895E+02 -0.27554086282E+02  0.68614859200E+02  0.00000000000E+00 0.  1.
         13    1    5    5    0    0 -0.32325172762E+01 -0.28326308974E+01  0.25077739250E+01  0.49761326148E+01  0.00000000000E+00 0. -1.
        -13    1    5    5    0    0  0.18896481304E+02 -0.71328594855E+01 -0.54511925811E+03  0.54549331825E+03  0.00000000000E+00 0.  1.
          3    1    6    6  503    0  0.25539992968E+02 -0.17791029577E+02  0.22413017700E+02  0.38355642827E+02  0.00000000000E+00 0. -1.
         -3    1    6    6    0  503  0.32576350364E+03 -0.48757854628E+03  0.85472856477E+02  0.59258780640E+03  0.00000000000E+00 0.  1.
<mgrwt>
<rscale>  0 0.17569075E+04</rscale>
<asrwt>0</asrwt>
<pdfrwt beam="1">  1        2 0.17666145E+00 0.17569075E+04</pdfrwt>
<pdfrwt beam="2">  1       -1 0.10338780E+00 0.17569075E+04</pdfrwt>
<totfact> 0.19406321E+01</totfact>
</mgrwt>
</event>
<event>
12    7  0.1572140E-007  0.1326579E+04  0.7818608E-02  0.9008749E-01
          2   -1    0    0  501    0  0.00000000000E+00  0.00000000000E+00  0.79401987477E+03  0.79401987477E+03  0.00000000000E+00 0. -1.
         -1   -1    0    0    0  501 -0.00000000000E+00 -0.00000000000E+00 -0.55408341331E+03  0.55408341331E+03  0.00000000000E+00 0.  1.
         24    2    1    2    0    0 -0.38255698961E+01  0.13795498302E+03 -0.26815056788E+03  0.31208424488E+03  0.80284721577E+02 0.  0.
        254    2    1    2    0    0  0.38255698961E+01 -0.13795498302E+03  0.50808702935E+03  0.10360190432E+04  0.89226499212E+03 0.  0.
         23    2    4    4    0    0 -0.20436432962E+03 -0.40831346832E+02  0.69198140983E+03  0.72846275301E+03  0.91584566737E+02 0.  0.
         23    2    4    4    0    0  0.20818989952E+03 -0.97123636186E+02 -0.18389438048E+03  0.30755629019E+03  0.89429824415E+02 0.  0.
          2    1    3    3  502    0 -0.30675078745E+02  0.15944087647E+02 -0.52511708146E+02  0.62870135035E+02  0.00000000000E+00 0. -1.
         -1    1    3    3    0  502  0.26849508849E+02  0.12201089537E+03 -0.21563885974E+03  0.24921410984E+03  0.00000000000E+00 0.  1.
         13    1    5    5    0    0 -0.16673719405E+02 -0.27992303039E+02  0.51657950382E+02  0.61074755717E+02  0.00000000000E+00 0. -1.
        -13    1    5    5    0    0 -0.18769061022E+03 -0.12839043793E+02  0.64032345945E+03  0.66738799729E+03  0.00000000000E+00 0.  1.
          3    1    6    6  503    0  0.11368168929E+03 -0.26985918003E+02 -0.44267941306E+02  0.12494565570E+03  0.00000000000E+00 0. -1.
         -3    1    6    6    0  503  0.94508210229E+02 -0.70137718183E+02 -0.13962643918E+03  0.18261063449E+03  0.00000000000E+00 0.  1.
<mgrwt>
<rscale>  0 0.13265794E+04</rscale>
<asrwt>0</asrwt>
<pdfrwt beam="1">  1        2 0.12215690E+00 0.13265794E+04</pdfrwt>
<pdfrwt beam="2">  1       -1 0.85243602E-01 0.13265794E+04</pdfrwt>
<totfact> 0.52901693E+01</totfact>
</mgrwt>
</event>
<event>
12    7  0.1572140E-007  0.1514079E+04  0.7818608E-02  0.8875144E-01
         -1   -1    0    0    0  501 -0.00000000000E+00  0.00000000000E+00  0.75677304927E+03  0.75677304927E+03  0.00000000000E+00 0.  1.
          2   -1    0    0  501    0  0.00000000000E+00 -0.00000000000E+00 -0.75730639095E+03  0.75730639095E+03  0.00000000000E+00 0. -1.
         24    2    1    2    0    0  0.34342478097E+03  0.74573114548E+02 -0.32123080059E+03  0.48316396304E+03  0.82197678396E+02 0.  0.
        254    2    1    2    0    0 -0.34342478097E+03 -0.74573114548E+02  0.32069745892E+03  0.10309154772E+04  0.91456991604E+03 0.  0.
         23    2    4    4    0    0 -0.62650925924E+03  0.71347180868E+02  0.13091464700E+03  0.65049106942E+03  0.91628131377E+02 0.  0.
         23    2    4    4    0    0  0.28308447827E+03 -0.14592029542E+03  0.18978281192E+03  0.38042440776E+03  0.85297478686E+02 0.  0.
          2    1    3    3  502    0  0.26166952841E+03  0.28962197579E+02 -0.20350397006E+03  0.33275158425E+03  0.00000000000E+00 0. -1.
         -1    1    3    3    0  502  0.81755252559E+02  0.45610916969E+02 -0.11772683053E+03  0.15041237879E+03  0.00000000000E+00 0.  1.
         13    1    5    5    0    0 -0.38470548488E+03  0.84665447077E+02  0.62472401480E+02  0.39883498966E+03  0.00000000000E+00 0. -1.
        -13    1    5    5    0    0 -0.24180377436E+03 -0.13318266209E+02  0.68442245518E+02  0.25165607976E+03  0.00000000000E+00 0.  1.
          2    1    6    6  503    0  0.18531483068E+03 -0.48751627247E+02  0.10317369262E+03  0.21763069287E+03  0.00000000000E+00 0.  1.
         -2    1    6    6    0  503  0.97769647588E+02 -0.97168668168E+02  0.86609119296E+02  0.16279371489E+03  0.00000000000E+00 0. -1.
<mgrwt>
<rscale>  0 0.15140793E+04</rscale>
<asrwt>0</asrwt>
<pdfrwt beam="1">  1        2 0.11650868E+00 0.15140793E+04</pdfrwt>
<pdfrwt beam="2">  1       -1 0.11642662E+00 0.15140793E+04</pdfrwt>
<totfact> 0.27201959E+01</totfact>
</mgrwt>
</event>
<event>
12    7  0.1572140E-007  0.1816437E+04  0.7818608E-02  0.8697607E-01
          2   -1    0    0  501    0  0.00000000000E+00  0.00000000000E+00  0.23060923661E+04  0.23060923661E+04  0.00000000000E+00 0. -1.
         -1   -1    0    0    0  501 -0.00000000000E+00 -0.00000000000E+00 -0.35768774010E+03  0.35768774010E+03  0.00000000000E+00 0.  1.
         24    2    1    2    0    0 -0.30782245520E+03 -0.58022649129E+03  0.10430225779E+04  0.12352108704E+04  0.80201939975E+02 0.  0.
        254    2    1    2    0    0  0.30782245520E+03  0.58022649129E+03  0.90538204810E+03  0.14285692358E+04  0.88863713820E+03 0.  0.
         23    2    4    4    0    0  0.46172870258E+03  0.39136934082E+02  0.18082040689E+03  0.50679003325E+03  0.97031045869E+02 0.  0.
         23    2    4    4    0    0 -0.15390624737E+03  0.54108955721E+03  0.72456164121E+03  0.92177920257E+03  0.90676813334E+02 0.  0.
          4    1    3    3  502    0 -0.29182467367E+03 -0.57505187911E+03  0.10147252426E+04  0.12022951476E+04  0.00000000000E+00 0. -1.
         -3    1    3    3    0  502 -0.15997781533E+02 -0.51746121867E+01  0.28297335250E+02  0.32915722801E+02  0.00000000000E+00 0.  1.
         13    1    5    5    0    0  0.14405953385E+03 -0.21756551222E+02  0.25232461545E+02  0.14786200976E+03  0.00000000000E+00 0. -1.
        -13    1    5    5    0    0  0.31766916873E+03  0.60893485305E+02  0.15558794534E+03  0.35892802349E+03  0.00000000000E+00 0.  1.
          3    1    6    6  503    0 -0.89166679986E+02  0.20792392990E+03  0.23625321818E+03  0.32710646668E+03  0.00000000000E+00 0. -1.
         -3    1    6    6    0  503 -0.64739567388E+02  0.33316562731E+03  0.48830842303E+03  0.59467273589E+03  0.00000000000E+00 0.  1.
<mgrwt>
<rscale>  0 0.18164371E+04</rscale>
<asrwt>0</asrwt>
<pdfrwt beam="1">  1        2 0.35478343E+00 0.18164371E+04</pdfrwt>
<pdfrwt beam="2">  1       -1 0.55028885E-01 0.18164371E+04</pdfrwt>
<totfact> 0.16123945E+01</totfact>
</mgrwt>
</event>
<event>
12    7  0.1572140E-007  0.2077001E+04  0.7818608E-02  0.8571443E-01
         -3   -1    0    0    0  501 -0.00000000000E+00  0.00000000000E+00  0.50308578033E+03  0.50308578033E+03  0.00000000000E+00 0.  1.
          4   -1    0    0  501    0  0.00000000000E+00 -0.00000000000E+00 -0.21437370896E+04  0.21437370896E+04  0.00000000000E+00 0. -1.
         24    2    1    2    0    0  0.87720620317E+02  0.38618506483E+02  0.39809268288E+03  0.41713474442E+03  0.79607251982E+02 0.  0.
        254    2    1    2    0    0 -0.87720620317E+02 -0.38618506483E+02 -0.20387439922E+04  0.22296881255E+04  0.89768913063E+03 0.  0.
         23    2    4    4    0    0 -0.33924553820E+03 -0.13446774889E+03 -0.33913302170E+03  0.50644225998E+03  0.91123244076E+02 0.  0.
         23    2    4    4    0    0  0.25152491788E+03  0.95849242405E+02 -0.16996109705E+04  0.17232458655E+04  0.91907565469E+02 0.  0.
          4    1    3    3  502    0  0.72752315893E+02  0.36746942164E+02  0.16984770750E+03  0.18839182830E+03  0.00000000000E+00 0. -1.
         -3    1    3    3    0  502  0.14968304424E+02  0.18715643194E+01  0.22824497538E+03  0.22874291612E+03  0.00000000000E+00 0.  1.
         13    1    5    5    0    0 -0.75960047589E+02 -0.64201335728E+02 -0.12580781100E+03  0.16037252148E+03  0.00000000000E+00 0.  1.
        -13    1    5    5    0    0 -0.26328549061E+03 -0.70266413160E+02 -0.21332521070E+03  0.34606973850E+03  0.00000000000E+00 0. -1.
          1    1    6    6  503    0  0.24147134903E+03  0.70219597684E+02 -0.14029147400E+04  0.14252750514E+04  0.00000000000E+00 0. -1.
         -1    1    6    6    0  503  0.10053568856E+02  0.25629644720E+02 -0.29669623046E+03  0.29797081418E+03  0.00000000000E+00 0.  1.
<mgrwt>
<rscale>  0 0.20770013E+04</rscale>
<asrwt>0</asrwt>
<pdfrwt beam="1">  1        4 0.32980570E+00 0.20770013E+04</pdfrwt>
<pdfrwt beam="2">  1       -3 0.77397814E-01 0.20770013E+04</pdfrwt>
<totfact> 0.66096622E-02</totfact>
</mgrwt>
</event>
<event>
12    7  0.1572140E-007  0.1492084E+04  0.7818608E-02  0.8889734E-01
          2   -1    0    0  501    0  0.00000000000E+00  0.00000000000E+00  0.94101798438E+03  0.94101798438E+03  0.00000000000E+00 0. -1.
         -1   -1    0    0    0  501 -0.00000000000E+00 -0.00000000000E+00 -0.59146450591E+03  0.59146450591E+03  0.00000000000E+00 0.  1.
         24    2    1    2    0    0 -0.24295988885E+03  0.59643000369E+02  0.52056974525E+03  0.58370811440E+03  0.84471936537E+02 0.  0.
        254    2    1    2    0    0  0.24295988885E+03 -0.59643000369E+02 -0.17101626679E+03  0.94877437589E+03  0.89907700324E+03 0.  0.
         23    2    4    4    0    0 -0.25611541986E+03 -0.25078146947E+03  0.28622804115E+02  0.37096441100E+03  0.91153033924E+02 0.  0.
         23    2    4    4    0    0  0.49907530872E+03  0.19113846910E+03 -0.19963907090E+03  0.57780996489E+03  0.91643432681E+02 0.  0.
          4    1    3    3  502    0 -0.18627086981E+03  0.79257551662E+02  0.42710831709E+03  0.47265220931E+03  0.00000000000E+00 0. -1.
         -3    1    3    3    0  502 -0.56689019041E+02 -0.19614551293E+02  0.93461428166E+02  0.11105590510E+03  0.00000000000E+00 0.  1.
         13    1    5    5    0    0 -0.61945791474E+01 -0.39479214716E+02  0.17153723562E+02  0.43488290809E+02  0.00000000000E+00 0.  1.
        -13    1    5    5    0    0 -0.24992084072E+03 -0.21130225475E+03  0.11469080553E+02  0.32747612019E+03  0.00000000000E+00 0. -1.
          3    1    6    6  503    0  0.30149444225E+03  0.14383351347E+03 -0.85650461063E+02  0.34485211292E+03  0.00000000000E+00 0. -1.
         -3    1    6    6    0  503  0.19758086647E+03  0.47304955627E+02 -0.11398860984E+03  0.23295785197E+03  0.00000000000E+00 0.  1.
<mgrwt>
<rscale>  0 0.14920841E+04</rscale>
<asrwt>0</asrwt>
<pdfrwt beam="1">  1        2 0.14477200E+00 0.14920841E+04</pdfrwt>
<pdfrwt beam="2">  1       -1 0.90994539E-01 0.14920841E+04</pdfrwt>
<totfact> 0.35807064E+01</totfact>
</mgrwt>
</event>
<event>
12    7  0.1572140E-007  0.2787990E+04  0.7818608E-02  0.8307007E-01
         -1   -1    0    0    0  501 -0.00000000000E+00  0.00000000000E+00  0.56492387067E+03  0.56492387067E+03  0.00000000000E+00 0.  1.
          2   -1    0    0  501    0  0.00000000000E+00 -0.00000000000E+00 -0.34397939488E+04  0.34397939488E+04  0.00000000000E+00 0. -1.
         24    2    1    2    0    0  0.78902461888E+02  0.29620064279E+03  0.44741207780E+03  0.54812996422E+03  0.79425883903E+02 0.  0.
        254    2    1    2    0    0 -0.78902461888E+02 -0.29620064279E+03 -0.33222821559E+04  0.34565878552E+04  0.90359308222E+03 0.  0.
         23    2    4    4    0    0  0.29355932481E+03 -0.39475821980E+03 -0.24193083046E+04  0.24705561991E+04  0.92650586102E+02 0.  0.
         23    2    4    4    0    0 -0.37246178669E+03  0.98557577008E+02 -0.90297385133E+03  0.98603165612E+03  0.91952553843E+02 0.  0.
          2    1    3    3  502    0 -0.85265819745E+01  0.46309342500E+02  0.37677560196E+02  0.60306354104E+02  0.00000000000E+00 0. -1.
         -1    1    3    3    0  502  0.87429043862E+02  0.24989130029E+03  0.40973451760E+03  0.48782361011E+03  0.00000000000E+00 0.  1.
         13    1    5    5    0    0  0.79878530820E+02 -0.10003430903E+03 -0.84949281215E+03  0.85908409400E+03  0.00000000000E+00 0.  1.
        -13    1    5    5    0    0  0.21368079399E+03 -0.29472391076E+03 -0.15698154924E+04  0.16114721051E+04  0.00000000000E+00 0. -1.
          4    1    6    6  503    0 -0.28373250207E+03  0.11418378063E+03 -0.68553423553E+03  0.75066587545E+03  0.00000000000E+00 0. -1.
         -4    1    6    6    0  503 -0.88729284624E+02 -0.15626203626E+02 -0.21743961580E+03  0.23536578067E+03  0.00000000000E+00 0.  1.
<mgrwt>
<rscale>  0 0.27879898E+04</rscale>
<asrwt>0</asrwt>
<pdfrwt beam="1">  1        2 0.52919907E+00 0.27879898E+04</pdfrwt>
<pdfrwt beam="2">  1       -1 0.86911365E-01 0.27879898E+04</pdfrwt>
<totfact> 0.11557280E+00</totfact>
</mgrwt>
</event>
<event>
12    7  0.1572140E-007  0.4099670E+04  0.7818608E-02  0.7984736E-01
          2   -1    0    0  501    0  0.00000000000E+00  0.00000000000E+00  0.26974875259E+04  0.26974875259E+04  0.00000000000E+00 0. -1.
         -1   -1    0    0    0  501 -0.00000000000E+00 -0.00000000000E+00 -0.15576807300E+04  0.15576807300E+04  0.00000000000E+00 0.  1.
         24    2    1    2    0    0  0.16761287004E+03  0.77197813837E+02 -0.14705476337E+04  0.14842134312E+04  0.79533575803E+02 0.  0.
        254    2    1    2    0    0 -0.16761287004E+03 -0.77197813837E+02  0.26103544296E+04  0.27709548246E+04  0.91114588028E+03 0.  0.
         23    2    4    4    0    0 -0.12340390033E+03  0.97238844509E+02  0.25560195460E+04  0.25624144007E+04  0.89709118981E+02 0.  0.
         23    2    4    4    0    0 -0.44208969711E+02 -0.17443665835E+03  0.54334883660E+02  0.20854042393E+03  0.90300875142E+02 0.  0.
          2    1    3    3  502    0  0.39755929326E+02  0.32214461172E+02 -0.19942634883E+03  0.20588631337E+03  0.00000000000E+00 0. -1.
         -1    1    3    3    0  502  0.12785694072E+03  0.44983352665E+02 -0.12711212849E+04  0.12783271179E+04  0.00000000000E+00 0.  1.
         13    1    5    5    0    0 -0.10425078812E+03  0.94296634162E+02  0.24794266416E+04  0.24834082534E+04  0.00000000000E+00 0. -1.
        -13    1    5    5    0    0 -0.19153112214E+02  0.29422103465E+01  0.76592904354E+02  0.79006147271E+02  0.00000000000E+00 0.  1.
          2    1    6    6  503    0  0.20719223058E+02 -0.34332712008E+02 -0.98859571780E+01  0.41300768361E+02  0.00000000000E+00 0.  1.
         -2    1    6    6    0  503 -0.64928192769E+02 -0.14010394634E+03  0.64220840838E+02  0.16723965557E+03  0.00000000000E+00 0. -1.
<mgrwt>
<rscale>  0 0.40996704E+04</rscale>
<asrwt>0</asrwt>
<pdfrwt beam="1">  1        2 0.41499808E+00 0.40996704E+04</pdfrwt>
<pdfrwt beam="2">  1       -1 0.23964319E+00 0.40996704E+04</pdfrwt>
<totfact> 0.19311730E-01</totfact>
</mgrwt>
</event>
<event>
12    7  0.1572140E-007  0.1410465E+04  0.7818608E-02  0.8946278E-01
          2   -1    0    0  501    0  0.00000000000E+00  0.00000000000E+00  0.10208941041E+04  0.10208941041E+04  0.00000000000E+00 0. -1.
         -3   -1    0    0    0  501 -0.00000000000E+00 -0.00000000000E+00 -0.48717377076E+03  0.48717377076E+03  0.00000000000E+00 0.  1.
         24    2    1    2    0    0  0.26687306769E+03 -0.21459298064E+03  0.39280544130E+03  0.53020695369E+03  0.97733911353E+02 0.  0.
        254    2    1    2    0    0 -0.26687306769E+03  0.21459298064E+03  0.14091489208E+03  0.97786092121E+03  0.90503237114E+03 0.  0.
         23    2    4    4    0    0 -0.43648382194E+03 -0.77874915733E+02 -0.19503540821E+03  0.49266881305E+03  0.90006219659E+02 0.  0.
         23    2    4    4    0    0  0.16961075425E+03  0.29246789638E+03  0.33595030029E+03  0.48519210816E+03  0.90793717788E+02 0.  0.
          4    1    3    3  502    0  0.21175850011E+03 -0.19403824896E+03  0.27073169402E+03  0.39470008181E+03  0.00000000000E+00 0. -1.
         -1    1    3    3    0  502  0.55114567581E+02 -0.20554731681E+02  0.12207374728E+03  0.13550687189E+03  0.00000000000E+00 0.  1.
         13    1    5    5    0    0 -0.40726655525E+03 -0.74072280392E+02 -0.20452092531E+03  0.46171588519E+03  0.00000000000E+00 0.  1.
        -13    1    5    5    0    0 -0.29217266691E+02 -0.38026353409E+01  0.94855170963E+01  0.30952927859E+02  0.00000000000E+00 0. -1.
          4    1    6    6  503    0  0.59395629600E+02  0.13856056368E+03  0.92747585533E+02  0.17699995832E+03  0.00000000000E+00 0. -1.
         -4    1    6    6    0  503  0.11021512465E+03  0.15390733270E+03  0.24320271475E+03  0.30819214984E+03  0.00000000000E+00 0.  1.
<mgrwt>
<rscale>  0 0.14104649E+04</rscale>
<asrwt>0</asrwt>
<pdfrwt beam="1">  1        2 0.15706063E+00 0.14104649E+04</pdfrwt>
<pdfrwt beam="2">  1       -3 0.74949811E-01 0.14104649E+04</pdfrwt>
<totfact> 0.25368673E+01</totfact>
</mgrwt>
</event>
<event>
12    7  0.1572140E-007  0.1907920E+04  0.7818608E-02  0.8650924E-01
          2   -1    0    0  501    0  0.00000000000E+00  0.00000000000E+00  0.99284966794E+03  0.99284966794E+03  0.00000000000E+00 0. -1.
         -1   -1    0    0    0  501 -0.00000000000E+00 -0.00000000000E+00 -0.91659377968E+03  0.91659377968E+03  0.00000000000E+00 0.  1.
         24    2    1    2    0    0  0.19802972481E+03 -0.68912452246E+03  0.10645217724E+03  0.72926475047E+03  0.79916399274E+02 0.  0.
        254    2    1    2    0    0 -0.19802972481E+03  0.68912452246E+03 -0.30196288972E+02  0.11801786972E+04  0.93691064781E+03 0.  0.
         23    2    4    4    0    0  0.19416478252E+03  0.35594388617E+02  0.27749243485E+03  0.35257253918E+03  0.91314953422E+02 0.  0.
         23    2    4    4    0    0 -0.39219450733E+03  0.65353013385E+03 -0.30768872382E+03  0.82760615797E+03  0.96651096815E+02 0.  0.
          2    1    3    3  502    0 -0.52109534008E+01 -0.31006787056E+02 -0.39446721801E+01  0.31688094255E+02  0.00000000000E+00 0. -1.
         -1    1    3    3    0  502  0.20324067821E+03 -0.65811773541E+03  0.11039684942E+03  0.69757665622E+03  0.00000000000E+00 0.  1.
         13    1    5    5    0    0  0.14931009024E+03 -0.14366386105E+02  0.20084407340E+03  0.25067556306E+03  0.00000000000E+00 0.  1.
        -13    1    5    5    0    0  0.44854692278E+02  0.49960774721E+02  0.76648361446E+02  0.10189697612E+03  0.00000000000E+00 0. -1.
          2    1    6    6  503    0 -0.55118071851E+02  0.17030742523E+03 -0.77537000825E+02  0.19507590172E+03  0.00000000000E+00 0. -1.
         -2    1    6    6    0  503 -0.33707643548E+03  0.48322270862E+03 -0.23015172299E+03  0.63253025625E+03  0.00000000000E+00 0.  1.
<mgrwt>
<rscale>  0 0.19079202E+04</rscale>
<asrwt>0</asrwt>
<pdfrwt beam="1">  1        2 0.15274610E+00 0.19079202E+04</pdfrwt>
<pdfrwt beam="2">  1       -1 0.14101443E+00 0.19079202E+04</pdfrwt>
<totfact> 0.11180841E+01</totfact>
</mgrwt>
</event>
<event>
12    7  0.1572140E-007  0.2021990E+04  0.7818608E-02  0.8596408E-01
          2   -1    0    0  501    0  0.00000000000E+00  0.00000000000E+00  0.10485547534E+04  0.10485547534E+04  0.00000000000E+00 0. -1.
         -1   -1    0    0    0  501 -0.00000000000E+00 -0.00000000000E+00 -0.97478025200E+03  0.97478025200E+03  0.00000000000E+00 0.  1.
         24    2    1    2    0    0  0.11014791896E+03  0.90053613985E+02 -0.77156959891E+03  0.78854845851E+03  0.79036751009E+02 0.  0.
        254    2    1    2    0    0 -0.11014791896E+03 -0.90053613985E+02  0.84534410036E+03  0.12347865469E+04  0.88873446599E+03 0.  0.
         23    2    4    4    0    0  0.99611304901E+02  0.31026997979E+02 -0.15162544501E+03  0.20495101188E+03  0.90164045099E+02 0.  0.
         23    2    4    4    0    0 -0.20975922386E+03 -0.12108061196E+03  0.99696954537E+03  0.10298355351E+04  0.89182443789E+02 0.  0.
          2    1    3    3  502    0  0.33847036806E+01 -0.11808365672E+02 -0.11213022775E+03  0.11280107134E+03  0.00000000000E+00 0. -1.
         -1    1    3    3    0  502  0.10676321528E+03  0.10186197966E+03 -0.65943937116E+03  0.67574738717E+03  0.00000000000E+00 0.  1.
         13    1    5    5    0    0  0.54401021517E+02 -0.23459582287E+02 -0.35860254661E+02  0.69251577654E+02  0.00000000000E+00 0.  1.
        -13    1    5    5    0    0  0.45210283384E+02  0.54486580267E+02 -0.11576519035E+03  0.13569943423E+03  0.00000000000E+00 0. -1.
          2    1    6    6  503    0 -0.19652194128E+03 -0.78317965215E+02  0.86443985868E+03  0.88994991227E+03  0.00000000000E+00 0.  1.
         -2    1    6    6    0  503 -0.13237282577E+02 -0.42762646749E+02  0.13252968669E+03  0.13988562278E+03  0.00000000000E+00 0. -1.
<mgrwt>
<rscale>  0 0.20219896E+04</rscale>
<asrwt>0</asrwt>
<pdfrwt beam="1">  1        2 0.16131612E+00 0.20219896E+04</pdfrwt>
<pdfrwt beam="2">  1       -1 0.14996619E+00 0.20219896E+04</pdfrwt>
<totfact> 0.86628279E+00</totfact>
</mgrwt>
</event>
<event>
12    7  0.1572140E-007  0.1188994E+04  0.7818608E-02  0.9122545E-01
         -1   -1    0    0    0  501 -0.00000000000E+00  0.00000000000E+00  0.11635062146E+03  0.11635062146E+03  0.00000000000E+00 0.  1.
          2   -1    0    0  501    0  0.00000000000E+00 -0.00000000000E+00 -0.30376013002E+04  0.30376013002E+04  0.00000000000E+00 0. -1.
         24    2    1    2    0    0  0.76809434738E+02 -0.12955747734E+03 -0.11535114714E+04  0.11661276877E+04  0.81118679251E+02 0.  0.
        254    2    1    2    0    0 -0.76809434738E+02  0.12955747734E+03 -0.17677392073E+04  0.19878242340E+04  0.89658153606E+03 0.  0.
         23    2    4    4    0    0  0.31984381861E+03  0.75670397192E+02 -0.13863088197E+04  0.14273314943E+04  0.86005660573E+02 0.  0.
         23    2    4    4    0    0 -0.39665325334E+03  0.53887080153E+02 -0.38143038765E+03  0.56049273971E+03  0.91789704499E+02 0.  0.
          4    1    3    3  502    0  0.88464234195E+02 -0.13213402154E+03 -0.10834491340E+04  0.10950558645E+04  0.00000000000E+00 0. -1.
         -3    1    3    3    0  502 -0.11654799456E+02  0.25765441916E+01 -0.70062337425E+02  0.71071823220E+02  0.00000000000E+00 0.  1.
         13    1    5    5    0    0  0.12337056727E+03 -0.89444552388E+01 -0.58707961665E+03  0.59996897956E+03  0.00000000000E+00 0. -1.
        -13    1    5    5    0    0  0.19647325134E+03  0.84614852430E+02 -0.79922920303E+03  0.82736251469E+03  0.00000000000E+00 0.  1.
          4    1    6    6  503    0 -0.13161969282E+03  0.44152303717E+02 -0.18074993671E+03  0.22791162560E+03  0.00000000000E+00 0. -1.
         -4    1    6    6    0  503 -0.26503356053E+03  0.97347764355E+01 -0.20068045094E+03  0.33258111412E+03  0.00000000000E+00 0.  1.
<mgrwt>
<rscale>  0 0.11889942E+04</rscale>
<asrwt>0</asrwt>
<pdfrwt beam="1">  1        2 0.46732334E+00 0.11889942E+04</pdfrwt>
<pdfrwt beam="2">  1       -1 0.17900093E-01 0.11889942E+04</pdfrwt>
<totfact> 0.46355390E+01</totfact>
</mgrwt>
</event>
<event>
12    7  0.1572140E-007  0.2308076E+04  0.7818608E-02  0.8474744E-01
         -1   -1    0    0    0  501 -0.00000000000E+00  0.00000000000E+00  0.12533816613E+04  0.12533816613E+04  0.00000000000E+00 0.  1.
          2   -1    0    0  501    0  0.00000000000E+00 -0.00000000000E+00 -0.10625684595E+04  0.10625684595E+04  0.00000000000E+00 0. -1.
         24    2    1    2    0    0 -0.91289952642E+03  0.24182363457E+03 -0.17110393657E+03  0.96308900032E+03  0.79997811569E+02 0.  0.
        254    2    1    2    0    0  0.91289952642E+03 -0.24182363457E+03  0.36191713841E+03  0.13528611204E+04  0.89854603697E+03 0.  0.
         23    2    4    4    0    0  0.16648778746E+02 -0.38121422162E+03  0.97189247422E+02  0.40348725293E+03  0.88061051934E+02 0.  0.
         23    2    4    4    0    0  0.89625074767E+03  0.13939058705E+03  0.26472789098E+03  0.94937386750E+03  0.92383686741E+02 0.  0.
          4    1    3    3  502    0 -0.80146432494E+03  0.23838902105E+03 -0.14616142224E+03  0.84884483320E+03  0.00000000000E+00 0. -1.
         -3    1    3    3    0  502 -0.11143520148E+03  0.34346135202E+01 -0.24942514327E+02  0.11424416712E+03  0.00000000000E+00 0.  1.
         13    1    5    5    0    0  0.24283175476E+01 -0.31719739520E+03  0.46486489206E+02  0.32059488132E+03  0.00000000000E+00 0.  1.
        -13    1    5    5    0    0  0.14220461198E+02 -0.64016826413E+02  0.50702758216E+02  0.82892371612E+02  0.00000000000E+00 0. -1.
          3    1    6    6  503    0  0.90776872302E+02 -0.10391279479E+02  0.40629953355E+02  0.99996061642E+02  0.00000000000E+00 0. -1.
         -3    1    6    6    0  503  0.80547387537E+03  0.14978186653E+03  0.22409793763E+03  0.84937780586E+03  0.00000000000E+00 0.  1.
<mgrwt>
<rscale>  0 0.23080761E+04</rscale>
<asrwt>0</asrwt>
<pdfrwt beam="1">  1        2 0.16347207E+00 0.23080761E+04</pdfrwt>
<pdfrwt beam="2">  1       -1 0.19282795E+00 0.23080761E+04</pdfrwt>
<totfact> 0.40085916E+00</totfact>
</mgrwt>
</event>
<event>
12    7  0.1572140E-007  0.2075501E+04  0.7818608E-02  0.8572113E-01
          2   -1    0    0  501    0  0.00000000000E+00  0.00000000000E+00  0.36636596804E+04  0.36636596804E+04  0.00000000000E+00 0. -1.
         -1   -1    0    0    0  501 -0.00000000000E+00 -0.00000000000E+00 -0.29394807097E+03  0.29394807097E+03  0.00000000000E+00 0.  1.
         24    2    1    2    0    0 -0.74548463720E+03  0.18039688327E+03  0.20288083701E+04  0.21707068024E+04  0.87259611410E+02 0.  0.
        254    2    1    2    0    0  0.74548463720E+03 -0.18039688327E+03  0.13409032393E+04  0.17869009489E+04  0.89816653478E+03 0.  0.
         23    2    4    4    0    0  0.56724368298E+03 -0.20970848518E+03  0.14382957596E+04  0.15629780436E+04  0.91992543223E+02 0.  0.
         23    2    4    4    0    0  0.17824095422E+03  0.29311601904E+02 -0.97392520306E+02  0.22392290531E+03  0.89594401276E+02 0.  0.
          4    1    3    3  502    0 -0.35370537641E+03  0.58946317800E+02  0.84850096557E+03  0.92116016537E+03  0.00000000000E+00 0. -1.
         -3    1    3    3    0  502 -0.39177926079E+03  0.12145056547E+03  0.11803074045E+04  0.12495466371E+04  0.00000000000E+00 0.  1.
         13    1    5    5    0    0  0.89865183762E+02 -0.34087108269E+02  0.15291848939E+03  0.18061491245E+03  0.00000000000E+00 0. -1.
        -13    1    5    5    0    0  0.47737849921E+03 -0.17562137691E+03  0.12853772702E+04  0.13823631311E+04  0.00000000000E+00 0.  1.
          4    1    6    6  503    0  0.10987820750E+03  0.25104507295E+02 -0.10378757625E+02  0.11318646288E+03  0.00000000000E+00 0. -1.
         -4    1    6    6    0  503  0.68362746724E+02  0.42070946096E+01 -0.87013762681E+02  0.11073644242E+03  0.00000000000E+00 0.  1.
<mgrwt>
<rscale>  0 0.20755006E+04</rscale>
<asrwt>0</asrwt>
<pdfrwt beam="1">  1        2 0.56363992E+00 0.20755006E+04</pdfrwt>
<pdfrwt beam="2">  1       -1 0.45222783E-01 0.20755006E+04</pdfrwt>
<totfact> 0.31846454E+00</totfact>
</mgrwt>
</event>
<event>
12    7  0.1572140E-007  0.3047053E+04  0.7818608E-02  0.8230421E-01
          2   -1    0    0  501    0  0.00000000000E+00  0.00000000000E+00  0.23182565466E+04  0.23182565466E+04  0.00000000000E+00 0. -1.
         -1   -1    0    0    0  501 -0.00000000000E+00 -0.00000000000E+00 -0.10012410569E+04  0.10012410569E+04  0.00000000000E+00 0.  1.
         24    2    1    2    0    0  0.10672283923E+04 -0.10484682809E+03 -0.35072195671E+03  0.11314348569E+04  0.84673760886E+02 0.  0.
        254    2    1    2    0    0 -0.10672283923E+04  0.10484682809E+03  0.16677374465E+04  0.21880627466E+04  0.92536538395E+03 0.  0.
         23    2    4    4    0    0 -0.16987336028E+03 -0.35409348229E+03  0.50119148893E+03  0.64373276869E+03  0.94656305522E+02 0.  0.
         23    2    4    4    0    0 -0.89735503204E+03  0.45894031037E+03  0.11665459575E+04  0.15443299779E+04  0.90847936150E+02 0.  0.
          2    1    3    3  502    0  0.11597565452E+03  0.14682756262E+02 -0.34132189234E+02  0.12178235552E+03  0.00000000000E+00 0. -1.
         -3    1    3    3    0  502  0.95125273779E+03 -0.11952958435E+03 -0.31658976747E+03  0.10096525014E+04  0.00000000000E+00 0.  1.
         13    1    5    5    0    0 -0.80617693806E+02 -0.19965781759E+03  0.34479900913E+03  0.40650807296E+03  0.00000000000E+00 0. -1.
        -13    1    5    5    0    0 -0.89255666472E+02 -0.15443566469E+03  0.15639247980E+03  0.23722469573E+03  0.00000000000E+00 0.  1.
          2    1    6    6  503    0 -0.13794590116E+03  0.43394412954E+02  0.13687708380E+03  0.19911675668E+03  0.00000000000E+00 0. -1.
         -2    1    6    6    0  503 -0.75940913088E+03  0.41554589742E+03  0.10296688737E+04  0.13452132212E+04  0.00000000000E+00 0.  1.
<mgrwt>
<rscale>  0 0.30470534E+04</rscale>
<asrwt>0</asrwt>
<pdfrwt beam="1">  1        2 0.35665485E+00 0.30470534E+04</pdfrwt>
<pdfrwt beam="2">  1       -1 0.15403709E+00 0.30470534E+04</pdfrwt>
<totfact> 0.13928509E+00</totfact>
</mgrwt>
</event>
<event>
12    7  0.1572140E-007  0.2042671E+04  0.7818608E-02  0.8586927E-01
         -1   -1    0    0    0  501 -0.00000000000E+00  0.00000000000E+00  0.10066745689E+04  0.10066745689E+04  0.00000000000E+00 0.  1.
          2   -1    0    0  501    0  0.00000000000E+00 -0.00000000000E+00 -0.10362097554E+04  0.10362097554E+04  0.00000000000E+00 0. -1.
         24    2    1    2    0    0 -0.76932886378E+03 -0.31275620946E+02  0.19012539606E+03  0.79710226577E+03  0.79870462444E+02 0.  0.
        254    2    1    2    0    0  0.76932886378E+03  0.31275620946E+02 -0.21966058258E+03  0.12457820586E+04  0.95439881646E+03 0.  0.
         23    2    4    4    0    0  0.44948759787E+03  0.15251009158E+03 -0.57009331082E+03  0.74761023798E+03  0.92823791218E+02 0.  0.
         23    2    4    4    0    0  0.31984126591E+03 -0.12123447063E+03  0.35043272824E+03  0.49817182061E+03  0.91519580332E+02 0.  0.
          4    1    3    3  502    0 -0.41550525335E+02 -0.69186420757E+01 -0.70145899068E+01  0.42702672461E+02  0.00000000000E+00 0. -1.
         -3    1    3    3    0  502 -0.72777833844E+03 -0.24356978870E+02  0.19713998597E+03  0.75439959331E+03  0.00000000000E+00 0.  1.
         13    1    5    5    0    0  0.23805300807E+03  0.69648842665E+02 -0.36697267362E+03  0.44293243177E+03  0.00000000000E+00 0. -1.
        -13    1    5    5    0    0  0.21143458980E+03  0.82861248914E+02 -0.20312063720E+03  0.30467780620E+03  0.00000000000E+00 0.  1.
          3    1    6    6  503    0  0.11057948314E+03 -0.83653894040E+02  0.10826968133E+03  0.17592077755E+03  0.00000000000E+00 0.  1.
         -3    1    6    6    0  503  0.20926178277E+03 -0.37580576593E+02  0.24216304691E+03  0.32225104306E+03  0.00000000000E+00 0. -1.
<mgrwt>
<rscale>  0 0.20426708E+04</rscale>
<asrwt>0</asrwt>
<pdfrwt beam="1">  1        2 0.15941689E+00 0.20426708E+04</pdfrwt>
<pdfrwt beam="2">  1       -1 0.15487301E+00 0.20426708E+04</pdfrwt>
<totfact> 0.80668449E+00</totfact>
</mgrwt>
</event>
<event>
12    7  0.1572140E-007  0.1122107E+04  0.7818608E-02  0.9183909E-01
         -1   -1    0    0    0  501 -0.00000000000E+00  0.00000000000E+00  0.41969842048E+03  0.41969842048E+03  0.00000000000E+00 0.  1.
          2   -1    0    0  501    0  0.00000000000E+00 -0.00000000000E+00 -0.75001680664E+03  0.75001680664E+03  0.00000000000E+00 0. -1.
         24    2    1    2    0    0 -0.41304027671E+01 -0.17500032945E+03 -0.10695013930E+03  0.22452835616E+03  0.91282390910E+02 0.  0.
        254    2    1    2    0    0  0.41304027671E+01  0.17500032945E+03 -0.22336824686E+03  0.94518687096E+03  0.90157787894E+03 0.  0.
         23    2    4    4    0    0 -0.22354109187E+03 -0.51448048568E+02 -0.46869997333E+03  0.53051821422E+03  0.95668119878E+02 0.  0.
         23    2    4    4    0    0  0.22767149463E+03  0.22644837802E+03  0.24533172647E+03  0.41466865675E+03  0.93001405899E+02 0.  0.
          4    1    3    3  502    0 -0.18257877088E+02 -0.87715262420E+02 -0.10229666118E+03  0.13598501471E+03  0.00000000000E+00 0. -1.
         -3    1    3    3    0  502  0.14127474321E+02 -0.87285067031E+02 -0.46534781203E+01  0.88543341454E+02  0.00000000000E+00 0.  1.
         13    1    5    5    0    0 -0.81877004625E+02 -0.66157877021E+02 -0.17782203097E+03  0.20664313025E+03  0.00000000000E+00 0. -1.
        -13    1    5    5    0    0 -0.14166408724E+03  0.14709828452E+02 -0.29087794236E+03  0.32387508397E+03  0.00000000000E+00 0.  1.
          1    1    6    6  503    0 -0.67380967695E+01  0.23712549877E+01  0.15902024916E+02  0.17432704744E+02  0.00000000000E+00 0. -1.
         -1    1    6    6    0  503  0.23440959140E+03  0.22407712303E+03  0.22942970156E+03  0.39723595200E+03  0.00000000000E+00 0.  1.
<mgrwt>
<rscale>  0 0.11221067E+04</rscale>
<asrwt>0</asrwt>
<pdfrwt beam="1">  1        2 0.11538720E+00 0.11221067E+04</pdfrwt>
<pdfrwt beam="2">  1       -1 0.64568988E-01 0.11221067E+04</pdfrwt>
<totfact> 0.10328042E+02</totfact>
</mgrwt>
</event>
<event>
12    7  0.1572140E-007  0.1701567E+04  0.7818608E-02  0.8760471E-01
         -1   -1    0    0    0  501 -0.00000000000E+00  0.00000000000E+00  0.67494665497E+03  0.67494665497E+03  0.00000000000E+00 0.  1.
          2   -1    0    0  501    0  0.00000000000E+00 -0.00000000000E+00 -0.10724296656E+04  0.10724296656E+04  0.00000000000E+00 0. -1.
         24    2    1    2    0    0  0.49612538267E+03 -0.32382353389E+03 -0.28892722293E+03  0.66390954614E+03  0.79340209707E+02 0.  0.
        254    2    1    2    0    0 -0.49612538267E+03  0.32382353389E+03 -0.10855578770E+03  0.10834667744E+04  0.90061857400E+03 0.  0.
         23    2    4    4    0    0 -0.53675080711E+03 -0.15550476253E+03 -0.16708304280E+03  0.59043189554E+03  0.91705615832E+02 0.  0.
         23    2    4    4    0    0  0.40625424439E+02  0.47932829642E+03  0.58527255095E+02  0.49303487890E+03  0.90840031717E+02 0.  0.
          4    1    3    3  502    0  0.41144701239E+03 -0.28803860689E+03 -0.21671809035E+03  0.54701152982E+03  0.00000000000E+00 0. -1.
         -3    1    3    3    0  502  0.84678370274E+02 -0.35784927001E+02 -0.72209132573E+02  0.11689801632E+03  0.00000000000E+00 0.  1.
         13    1    5    5    0    0 -0.46684803856E+03 -0.16624569605E+03 -0.14734394931E+03  0.51700576589E+03  0.00000000000E+00 0. -1.
        -13    1    5    5    0    0 -0.69902768545E+02  0.10740933519E+02 -0.19739093487E+02  0.73426129646E+02  0.00000000000E+00 0.  1.
          1    1    6    6  503    0  0.52510652534E+02  0.39819696298E+03  0.77058471690E+02  0.40896967860E+03  0.00000000000E+00 0. -1.
         -1    1    6    6    0  503 -0.11885228095E+02  0.81131333445E+02 -0.18531216595E+02  0.84065200302E+02  0.00000000000E+00 0.  1.
<mgrwt>
<rscale>  0 0.17015673E+04</rscale>
<asrwt>0</asrwt>
<pdfrwt beam="1">  1        2 0.16498918E+00 0.17015673E+04</pdfrwt>
<pdfrwt beam="2">  1       -1 0.10383795E+00 0.17015673E+04</pdfrwt>
<totfact> 0.21492421E+01</totfact>
</mgrwt>
</event>
<event>
12    7  0.1572140E-007  0.2592608E+04  0.7818608E-02  0.8370716E-01
         -1   -1    0    0    0  501 -0.00000000000E+00  0.00000000000E+00  0.11607283298E+04  0.11607283298E+04  0.00000000000E+00 0.  1.
          2   -1    0    0  501    0  0.00000000000E+00 -0.00000000000E+00 -0.14477151354E+04  0.14477151354E+04  0.00000000000E+00 0. -1.
         24    2    1    2    0    0  0.84254261966E+03  0.14890532355E+03  0.62895037712E+03  0.10651434504E+04  0.83073050057E+02 0.  0.
        254    2    1    2    0    0 -0.84254261966E+03 -0.14890532355E+03 -0.91593718263E+03  0.15433000148E+04  0.90043497931E+03 0.  0.
         23    2    4    4    0    0 -0.33800223703E+03 -0.38168721221E+03 -0.82302247096E+03  0.97265570392E+03  0.93608175231E+02 0.  0.
         23    2    4    4    0    0 -0.50454038263E+03  0.23278188867E+03 -0.92914711674E+02  0.57064431092E+03  0.90848118017E+02 0.  0.
          4    1    3    3  502    0  0.47371785612E+03  0.11855028066E+03  0.38582466137E+03  0.62235315181E+03  0.00000000000E+00 0. -1.
         -3    1    3    3    0  502  0.36882476354E+03  0.30355042886E+02  0.24312571575E+03  0.44279029855E+03  0.00000000000E+00 0.  1.
         13    1    5    5    0    0 -0.10012535690E+03 -0.63937309150E+02 -0.15053223677E+03  0.19176292891E+03  0.00000000000E+00 0.  1.
        -13    1    5    5    0    0 -0.23787688013E+03 -0.31774990306E+03 -0.67249023418E+03  0.78089277501E+03  0.00000000000E+00 0. -1.
          4    1    6    6  503    0 -0.44784202311E+03  0.18223900251E+03 -0.10201176735E+03  0.49414565907E+03  0.00000000000E+00 0. -1.
         -4    1    6    6    0  503 -0.56698359520E+02  0.50542886159E+02  0.90970556763E+01  0.76498651854E+02  0.00000000000E+00 0.  1.
<mgrwt>
<rscale>  0 0.25926079E+04</rscale>
<asrwt>0</asrwt>
<pdfrwt beam="1">  1        2 0.22272541E+00 0.25926079E+04</pdfrwt>
<pdfrwt beam="2">  1       -1 0.17857359E+00 0.25926079E+04</pdfrwt>
<totfact> 0.29198656E+00</totfact>
</mgrwt>
</event>
<event>
12    7  0.1572140E-007  0.1472070E+04  0.7818608E-02  0.8903242E-01
          2   -1    0    0  501    0  0.00000000000E+00  0.00000000000E+00  0.23056347812E+04  0.23056347812E+04  0.00000000000E+00 0. -1.
         -1   -1    0    0    0  501 -0.00000000000E+00 -0.00000000000E+00 -0.23496669008E+03  0.23496669008E+03  0.00000000000E+00 0.  1.
         24    2    1    2    0    0  0.39286410576E+03 -0.23158444716E+03  0.68655512585E+03  0.82833164439E+03  0.82473089622E+02 0.  0.
        254    2    1    2    0    0 -0.39286410576E+03  0.23158444716E+03  0.13841129652E+04  0.17122698269E+04  0.89895811787E+03 0.  0.
         23    2    4    4    0    0  0.15957993893E+03 -0.20900771050E+03  0.54274463433E+03  0.60999369574E+03  0.91490932822E+02 0.  0.
         23    2    4    4    0    0 -0.55244404469E+03  0.44059215765E+03  0.84136833091E+03  0.11022761311E+04  0.88295691275E+02 0.  0.
          2    1    3    3  502    0  0.27140003503E+03 -0.14070404083E+03  0.39303726335E+03  0.49792960999E+03  0.00000000000E+00 0. -1.
         -1    1    3    3    0  502  0.12146407073E+03 -0.90880406323E+02  0.29351786250E+03  0.33040203440E+03  0.00000000000E+00 0.  1.
         13    1    5    5    0    0  0.20557079454E+02 -0.38857202541E+02  0.18507839368E+03  0.19022746256E+03  0.00000000000E+00 0. -1.
        -13    1    5    5    0    0  0.13902285948E+03 -0.17015050796E+03  0.35766624065E+03  0.41976623318E+03  0.00000000000E+00 0.  1.
          1    1    6    6  503    0 -0.66982291179E+01  0.21411837458E+02  0.41091672940E+02  0.46817289986E+02  0.00000000000E+00 0. -1.
         -1    1    6    6    0  503 -0.54574581557E+03  0.41918032020E+03  0.80027665797E+03  0.10554588411E+04  0.00000000000E+00 0.  1.
<mgrwt>
<rscale>  0 0.14720698E+04</rscale>
<asrwt>0</asrwt>
<pdfrwt beam="1">  1        2 0.35471303E+00 0.14720698E+04</pdfrwt>
<pdfrwt beam="2">  1       -1 0.36148723E-01 0.14720698E+04</pdfrwt>
<totfact> 0.36398645E+01</totfact>
</mgrwt>
</event>
<event>
12    7  0.1572140E-007  0.2721178E+04  0.7818608E-02  0.8328166E-01
         -1   -1    0    0    0  501 -0.00000000000E+00  0.00000000000E+00  0.82764882878E+03  0.82764882878E+03  0.00000000000E+00 0.  1.
          2   -1    0    0  501    0  0.00000000000E+00 -0.00000000000E+00 -0.22367008396E+04  0.22367008396E+04  0.00000000000E+00 0. -1.
         24    2    1    2    0    0 -0.45329896956E+03 -0.84553491730E+03 -0.14666773115E+04  0.17543375943E+04  0.78414326202E+02 0.  0.
        254    2    1    2    0    0  0.45329896956E+03  0.84553491730E+03  0.57625300669E+02  0.13100120741E+04  0.89016948207E+03 0.  0.
         23    2    4    4    0    0  0.11695296550E+03  0.64508395902E+03  0.40761819483E+03  0.77737260882E+03  0.91346975060E+02 0.  0.
         23    2    4    4    0    0  0.33634600406E+03  0.20045095828E+03 -0.34999289417E+03  0.53263946527E+03  0.88885054308E+02 0.  0.
          4    1    3    3  502    0 -0.35950438268E+03 -0.60347975047E+03 -0.10444523504E+04  0.12586945311E+04  0.00000000000E+00 0. -1.
         -3    1    3    3    0  502 -0.93794586877E+02 -0.24205516683E+03 -0.42222496115E+03  0.49564306324E+03  0.00000000000E+00 0.  1.
         13    1    5    5    0    0  0.23368555807E+02  0.32425299999E+02  0.10607972278E+02  0.41352370625E+02  0.00000000000E+00 0. -1.
        -13    1    5    5    0    0  0.93584409694E+02  0.61265865903E+03  0.39701022256E+03  0.73602023819E+03  0.00000000000E+00 0.  1.
          3    1    6    6  503    0  0.43391929164E+02  0.57765096451E+01 -0.72196160396E+02  0.84430522658E+02  0.00000000000E+00 0. -1.
         -3    1    6    6    0  503  0.29295407489E+03  0.19467444863E+03 -0.27779673377E+03  0.44820894261E+03  0.00000000000E+00 0.  1.
<mgrwt>
<rscale>  0 0.27211783E+04</rscale>
<asrwt>0</asrwt>
<pdfrwt beam="1">  1        2 0.34410782E+00 0.27211783E+04</pdfrwt>
<pdfrwt beam="2">  1       -1 0.12733059E+00 0.27211783E+04</pdfrwt>
<totfact> 0.26200936E+00</totfact>
</mgrwt>
</event>
<event>
12    7  0.1572140E-007  0.1502043E+04  0.7818608E-02  0.8883096E-01
          2   -1    0    0  501    0  0.00000000000E+00  0.00000000000E+00  0.81398150259E+03  0.81398150259E+03  0.00000000000E+00 0. -1.
         -1   -1    0    0    0  501 -0.00000000000E+00 -0.00000000000E+00 -0.69293095645E+03  0.69293095645E+03  0.00000000000E+00 0.  1.
         24    2    1    2    0    0 -0.25209413165E+03  0.13015986338E+03  0.43244626938E+03  0.52311350665E+03  0.78389563661E+02 0.  0.
        254    2    1    2    0    0  0.25209413165E+03 -0.13015986338E+03 -0.31139572324E+03  0.98379895239E+03  0.88904445391E+03 0.  0.
         23    2    4    4    0    0  0.86917966261E+02 -0.26490550285E+03  0.24437891396E+03  0.38178026748E+03  0.91134300640E+02 0.  0.
         23    2    4    4    0    0  0.16517616539E+03  0.13474563947E+03 -0.55577463720E+03  0.60201868491E+03  0.90008314338E+02 0.  0.
          4    1    3    3  502    0 -0.24715112683E+03  0.11687414969E+03  0.37582495575E+03  0.46474470812E+03  0.00000000000E+00 0. -1.
         -3    1    3    3    0  502 -0.49430048211E+01  0.13285713683E+02  0.56621313629E+02  0.58368798530E+02  0.00000000000E+00 0.  1.
         13    1    5    5    0    0  0.48112192515E+02 -0.24414321431E+03  0.19966584875E+03  0.31904097436E+03  0.00000000000E+00 0. -1.
        -13    1    5    5    0    0  0.38805773746E+02 -0.20762288539E+02  0.44713065212E+02  0.62739293126E+02  0.00000000000E+00 0.  1.
          4    1    6    6  503    0  0.13951403544E+03  0.93641422296E+02 -0.50323255442E+03  0.53054301040E+03  0.00000000000E+00 0. -1.
         -4    1    6    6    0  503  0.25662129945E+02  0.41104217179E+02 -0.52542082781E+02  0.71475674506E+02  0.00000000000E+00 0.  1.
<mgrwt>
<rscale>  0 0.15020426E+04</rscale>
<asrwt>0</asrwt>
<pdfrwt beam="1">  1        2 0.12522792E+00 0.15020426E+04</pdfrwt>
<pdfrwt beam="2">  1       -1 0.10660476E+00 0.15020426E+04</pdfrwt>
<totfact> 0.30511278E+01</totfact>
</mgrwt>
</event>
<event>
12    7  0.1572140E-007  0.1726511E+04  0.7818608E-02  0.8746387E-01
          2   -1    0    0  501    0  0.00000000000E+00  0.00000000000E+00  0.99143576548E+03  0.99143576548E+03  0.00000000000E+00 0. -1.
         -1   -1    0    0    0  501 -0.00000000000E+00 -0.00000000000E+00 -0.75164760144E+03  0.75164760144E+03  0.00000000000E+00 0.  1.
         24    2    1    2    0    0  0.38926962046E+03  0.62038311263E+02  0.57680751833E+03  0.70312158094E+03  0.79331298349E+02 0.  0.
        254    2    1    2    0    0 -0.38926962046E+03 -0.62038311263E+02 -0.33701935429E+03  0.10399617860E+04  0.90142047995E+03 0.  0.
         23    2    4    4    0    0 -0.74146858181E+02 -0.11385039266E+03  0.28897031874E+03  0.33177517829E+03  0.90062507900E+02 0.  0.
         23    2    4    4    0    0 -0.31512276228E+03  0.51812081400E+02 -0.62598967303E+03  0.70818660770E+03  0.87626214742E+02 0.  0.
          4    1    3    3  502    0  0.33252169816E+03  0.47524145017E+02  0.43426291213E+03  0.54901138508E+03  0.00000000000E+00 0. -1.
         -3    1    3    3    0  502  0.56747922307E+02  0.14514166245E+02  0.14254460620E+03  0.15411019585E+03  0.00000000000E+00 0.  1.
         13    1    5    5    0    0 -0.62473764541E+02 -0.58152947540E+02  0.24623551983E+03  0.26060826501E+03  0.00000000000E+00 0.  1.
        -13    1    5    5    0    0 -0.11673093641E+02 -0.55697445122E+02  0.42734798904E+02  0.71166913278E+02  0.00000000000E+00 0. -1.
          2    1    6    6  503    0 -0.28842040418E+03  0.35792427298E+02 -0.49930289603E+03  0.57772901033E+03  0.00000000000E+00 0.  1.
         -2    1    6    6    0  503 -0.26702358103E+02  0.16019654102E+02 -0.12668677700E+03  0.13045759737E+03  0.00000000000E+00 0. -1.
<mgrwt>
<rscale>  0 0.17265113E+04</rscale>
<asrwt>0</asrwt>
<pdfrwt beam="1">  1        2 0.15252858E+00 0.17265113E+04</pdfrwt>
<pdfrwt beam="2">  1       -1 0.11563809E+00 0.17265113E+04</pdfrwt>
<totfact> 0.18723379E+01</totfact>
</mgrwt>
</event>
<event>
12    7  0.1572140E-007  0.1362446E+04  0.7818608E-02  0.8981460E-01
          2   -1    0    0  501    0  0.00000000000E+00  0.00000000000E+00  0.34819511294E+04  0.34819511294E+04  0.00000000000E+00 0. -1.
         -1   -1    0    0    0  501 -0.00000000000E+00 -0.00000000000E+00 -0.13327719981E+03  0.13327719981E+03  0.00000000000E+00 0.  1.
         24    2    1    2    0    0 -0.18942476803E+02  0.32859378638E+03  0.14400956650E+04  0.14793064769E+04  0.78354542092E+02 0.  0.
        254    2    1    2    0    0  0.18942476803E+02 -0.32859378638E+03  0.19085782646E+04  0.21359218523E+04  0.90064336638E+03 0.  0.
         23    2    4    4    0    0 -0.24181238541E+03  0.68942595853E+02  0.14321576985E+04  0.14569782992E+04  0.92107435477E+02 0.  0.
         23    2    4    4    0    0  0.26075486222E+03 -0.39753638223E+03  0.47642056600E+03  0.67894355308E+03  0.89216137508E+02 0.  0.
          4    1    3    3  502    0  0.64939129845E+01  0.29776419659E+03  0.12948622545E+04  0.13286737544E+04  0.00000000000E+00 0. -1.
         -3    1    3    3    0  502 -0.25436389788E+02  0.30829589784E+02  0.14523341058E+03  0.15063272247E+03  0.00000000000E+00 0.  1.
         13    1    5    5    0    0 -0.16978882550E+03  0.69308373377E+02  0.11991703311E+04  0.12131122697E+04  0.00000000000E+00 0.  1.
        -13    1    5    5    0    0 -0.72023559910E+02 -0.36577752441E+00  0.23298736747E+03  0.24386602956E+03  0.00000000000E+00 0. -1.
          3    1    6    6  503    0  0.10611947963E+03 -0.17454793482E+03  0.26694896348E+03  0.33613996283E+03  0.00000000000E+00 0. -1.
         -3    1    6    6    0  503  0.15463538258E+03 -0.22298844741E+03  0.20947160252E+03  0.34280359025E+03  0.00000000000E+00 0.  1.
<mgrwt>
<rscale>  0 0.13624459E+04</rscale>
<asrwt>0</asrwt>
<pdfrwt beam="1">  1        2 0.53568472E+00 0.13624459E+04</pdfrwt>
<pdfrwt beam="2">  1       -1 0.20504187E-01 0.13624459E+04</pdfrwt>
<totfact> 0.18582400E+01</totfact>
</mgrwt>
</event>
<event>
12    7  0.1572140E-007  0.1249686E+04  0.7818608E-02  0.9070444E-01
          2   -1    0    0  501    0  0.00000000000E+00  0.00000000000E+00  0.24944913459E+04  0.24944913459E+04  0.00000000000E+00 0. -1.
         -1   -1    0    0    0  501 -0.00000000000E+00 -0.00000000000E+00 -0.15651647589E+03  0.15651647589E+03  0.00000000000E+00 0.  1.
         24    2    1    2    0    0 -0.11096001953E+03  0.20519159890E+03  0.92924815912E+03  0.96145965369E+03  0.80540711771E+02 0.  0.
        254    2    1    2    0    0  0.11096001953E+03 -0.20519159890E+03  0.14087267109E+04  0.16895481681E+04  0.90313141244E+03 0.  0.
         23    2    4    4    0    0  0.36739857421E+03  0.62051707313E+02  0.11887044751E+04  0.12490384633E+04  0.90810941027E+02 0.  0.
         23    2    4    4    0    0 -0.25643855468E+03 -0.26724330621E+03  0.22002223578E+03  0.44050970477E+03  0.91974445984E+02 0.  0.
          2    1    3    3  502    0 -0.55785789455E+02  0.16611863822E+03  0.58702037256E+03  0.61261764100E+03  0.00000000000E+00 0. -1.
         -1    1    3    3    0  502 -0.55174230073E+02  0.39072960679E+02  0.34222778656E+03  0.34884201269E+03  0.00000000000E+00 0.  1.
         13    1    5    5    0    0  0.80756779611E+02  0.45634082767E+02  0.36999149946E+03  0.38144178670E+03  0.00000000000E+00 0.  1.
        -13    1    5    5    0    0  0.28664179460E+03  0.16417624545E+02  0.81871297561E+03  0.86759667660E+03  0.00000000000E+00 0. -1.
          4    1    6    6  503    0 -0.12999976922E+03 -0.76321769179E+02  0.10897158482E+03  0.18601010388E+03  0.00000000000E+00 0. -1.
         -4    1    6    6    0  503 -0.12643878546E+03 -0.19092153703E+03  0.11105065096E+03  0.25449960088E+03  0.00000000000E+00 0.  1.
<mgrwt>
<rscale>  0 0.12496864E+04</rscale>
<asrwt>0</asrwt>
<pdfrwt beam="1">  1        2 0.38376787E+00 0.12496864E+04</pdfrwt>
<pdfrwt beam="2">  1       -1 0.24079460E-01 0.12496864E+04</pdfrwt>
<totfact> 0.59001538E+01</totfact>
</mgrwt>
</event>
<event>
12    7  0.1572140E-007  0.1528601E+04  0.7818608E-02  0.8865653E-01
          2   -1    0    0  501    0  0.00000000000E+00  0.00000000000E+00  0.11663901458E+04  0.11663901458E+04  0.00000000000E+00 0. -1.
         -1   -1    0    0    0  501 -0.00000000000E+00 -0.00000000000E+00 -0.50082332399E+03  0.50082332399E+03  0.00000000000E+00 0.  1.
         24    2    1    2    0    0 -0.25383139499E+03  0.40985462157E+03  0.10337043693E+03  0.49941715107E+03  0.79503808998E+02 0.  0.
        254    2    1    2    0    0  0.25383139499E+03 -0.40985462157E+03  0.56219638485E+03  0.11677963187E+04  0.90292429302E+03 0.  0.
         23    2    4    4    0    0  0.12900231126E+03 -0.31405837359E+03 -0.18571855962E+03  0.39762090578E+03  0.91305766469E+02 0.  0.
         23    2    4    4    0    0  0.12482908373E+03 -0.95796247978E+02  0.74791494447E+03  0.77017541292E+03  0.95048310037E+02 0.  0.
          2    1    3    3  502    0 -0.12899936892E+03  0.18064367897E+03  0.99354684909E+01  0.22219741103E+03  0.00000000000E+00 0. -1.
         -1    1    3    3    0  502 -0.12483202607E+03  0.22921094259E+03  0.93434968444E+02  0.27721974004E+03  0.00000000000E+00 0.  1.
         13    1    5    5    0    0  0.86225266237E+02 -0.10631249046E+03 -0.49583996928E+02  0.14558748201E+03  0.00000000000E+00 0. -1.
        -13    1    5    5    0    0  0.42777045026E+02 -0.20774588313E+03 -0.13613456269E+03  0.25203342377E+03  0.00000000000E+00 0.  1.
          1    1    6    6  503    0  0.63054759326E+02 -0.86742507969E+02  0.31436051780E+03  0.33214861209E+03  0.00000000000E+00 0. -1.
         -1    1    6    6    0  503  0.61774324400E+02 -0.90537400089E+01  0.43355442667E+03  0.43802680083E+03  0.00000000000E+00 0.  1.
<mgrwt>
<rscale>  0 0.15286012E+04</rscale>
<asrwt>0</asrwt>
<pdfrwt beam="1">  1        2 0.17944464E+00 0.15286012E+04</pdfrwt>
<pdfrwt beam="2">  1       -1 0.77049743E-01 0.15286012E+04</pdfrwt>
<totfact> 0.36860622E+01</totfact>
</mgrwt>
</event>
<event>
12    7  0.1572140E-007  0.1465278E+04  0.7818608E-02  0.8907876E-01
         -1   -1    0    0    0  501 -0.00000000000E+00  0.00000000000E+00  0.47416158785E+03  0.47416158785E+03  0.00000000000E+00 0.  1.
          2   -1    0    0  501    0  0.00000000000E+00 -0.00000000000E+00 -0.11320196185E+04  0.11320196185E+04  0.00000000000E+00 0. -1.
         24    2    1    2    0    0 -0.11739257829E+03  0.33351838713E+03 -0.52708363569E+03  0.63998760468E+03  0.82167165802E+02 0.  0.
        254    2    1    2    0    0  0.11739257829E+03 -0.33351838713E+03 -0.13077439496E+03  0.96619360167E+03  0.88961373727E+03 0.  0.
         23    2    4    4    0    0 -0.73205195228E+01 -0.61274397166E+03  0.54635409654E+01  0.61928816529E+03  0.89326460723E+02 0.  0.
         23    2    4    4    0    0  0.12471309781E+03  0.27922558452E+03 -0.13623793592E+03  0.34690543637E+03  0.90897319983E+02 0.  0.
          4    1    3    3  502    0 -0.49270515505E+02  0.24809485987E+03 -0.34816434271E+03  0.43034527153E+03  0.00000000000E+00 0. -1.
         -3    1    3    3    0  502 -0.68122062786E+02  0.85423527265E+02 -0.17891929298E+03  0.20964233315E+03  0.00000000000E+00 0.  1.
         13    1    5    5    0    0 -0.42420219086E+02 -0.43200413779E+03 -0.12780874712E+02  0.43426996306E+03  0.00000000000E+00 0.  1.
        -13    1    5    5    0    0  0.35099699563E+02 -0.18073983387E+03  0.18244415677E+02  0.18501820224E+03  0.00000000000E+00 0. -1.
          3    1    6    6  503    0  0.95557076851E+01 -0.11258950836E+01 -0.20192471685E+02  0.22367724557E+02  0.00000000000E+00 0. -1.
         -3    1    6    6    0  503  0.11515739013E+03  0.28035147961E+03 -0.11604546424E+03  0.32453771182E+03  0.00000000000E+00 0.  1.
<mgrwt>
<rscale>  0 0.14652784E+04</rscale>
<asrwt>0</asrwt>
<pdfrwt beam="1">  1        2 0.17415686E+00 0.14652784E+04</pdfrwt>
<pdfrwt beam="2">  1       -1 0.72947937E-01 0.14652784E+04</pdfrwt>
<totfact> 0.43582432E+01</totfact>
</mgrwt>
</event>
<event>
12    7  0.1572140E-007  0.1834885E+04  0.7818608E-02  0.8687965E-01
          2   -1    0    0  501    0  0.00000000000E+00  0.00000000000E+00  0.17586344873E+04  0.17586344873E+04  0.00000000000E+00 0. -1.
         -1   -1    0    0    0  501 -0.00000000000E+00 -0.00000000000E+00 -0.47861013339E+03  0.47861013339E+03  0.00000000000E+00 0.  1.
         24    2    1    2    0    0 -0.16852630868E+02  0.36728231856E+03 -0.23196108503E+03  0.44601007353E+03  0.99693169407E+02 0.  0.
        254    2    1    2    0    0  0.16852630868E+02 -0.36728231856E+03  0.15119854390E+04  0.17912345472E+04  0.88726598194E+03 0.  0.
         23    2    4    4    0    0  0.12727982472E+03  0.12809728356E+03  0.73179643168E+01  0.20062497894E+03  0.87107759329E+02 0.  0.
         23    2    4    4    0    0 -0.11042719385E+03 -0.49537960211E+03  0.15046674746E+04  0.15906095682E+04  0.91757691943E+02 0.  0.
          2    1    3    3  502    0 -0.38675935127E+02  0.65089636153E+02 -0.27765169086E+02  0.80643619133E+02  0.00000000000E+00 0. -1.
         -3    1    3    3    0  502  0.21823304259E+02  0.30219268240E+03 -0.20419591595E+03  0.36536645439E+03  0.00000000000E+00 0.  1.
         13    1    5    5    0    0  0.13599394509E+03  0.11643646476E+03 -0.83671615507E+01  0.17922559197E+03  0.00000000000E+00 0.  1.
        -13    1    5    5    0    0 -0.87141203674E+01  0.11660818800E+02  0.15685125867E+02  0.21399386962E+02  0.00000000000E+00 0. -1.
          3    1    6    6  503    0 -0.28243298738E+02 -0.45210951383E+02  0.23569131659E+03  0.24164459598E+03  0.00000000000E+00 0. -1.
         -3    1    6    6    0  503 -0.82183895115E+02 -0.45016865073E+03  0.12689761580E+04  0.13489649723E+04  0.00000000000E+00 0.  1.
<mgrwt>
<rscale>  0 0.18348845E+04</rscale>
<asrwt>0</asrwt>
<pdfrwt beam="1">  1        2 0.27055915E+00 0.18348845E+04</pdfrwt>
<pdfrwt beam="2">  1       -1 0.73632329E-01 0.18348845E+04</pdfrwt>
<totfact> 0.18124349E+01</totfact>
</mgrwt>
</event>
<event>
12    7  0.1572140E-007  0.2827536E+04  0.7818608E-02  0.8294770E-01
          2   -1    0    0  501    0  0.00000000000E+00  0.00000000000E+00  0.18341531345E+04  0.18341531345E+04  0.00000000000E+00 0. -1.
         -1   -1    0    0    0  501 -0.00000000000E+00 -0.00000000000E+00 -0.10897344825E+04  0.10897344825E+04  0.00000000000E+00 0.  1.
         24    2    1    2    0    0 -0.15610535993E+03 -0.48079823985E+03 -0.86948721340E+03  0.10089834617E+04  0.80646022328E+02 0.  0.
        254    2    1    2    0    0  0.15610535993E+03  0.48079823985E+03  0.16139058655E+04  0.19149041553E+04  0.89812579874E+03 0.  0.
         23    2    4    4    0    0  0.51510834644E+03  0.17823542537E+03  0.89780515832E+03  0.10541274541E+04  0.89588569571E+02 0.  0.
         23    2    4    4    0    0 -0.35900298651E+03  0.30256281448E+03  0.71610070716E+03  0.86077670114E+03  0.87800372414E+02 0.  0.
          4    1    3    3  502    0 -0.10901802018E+03 -0.21454973081E+03 -0.38037441709E+03  0.45011244472E+03  0.00000000000E+00 0. -1.
         -1    1    3    3    0  502 -0.47087339758E+02 -0.26624850904E+03 -0.48911279631E+03  0.55887101700E+03  0.00000000000E+00 0.  1.
         13    1    5    5    0    0  0.29520139428E+03  0.54931515486E+02  0.48725048284E+03  0.57234112871E+03  0.00000000000E+00 0. -1.
        -13    1    5    5    0    0  0.21990695216E+03  0.12330390988E+03  0.41055467548E+03  0.48178632541E+03  0.00000000000E+00 0.  1.
          2    1    6    6  503    0 -0.63943705149E+02  0.44172627711E+02  0.68129697101E+02  0.10335218476E+03  0.00000000000E+00 0.  1.
         -2    1    6    6    0  503 -0.29505928136E+03  0.25839018677E+03  0.64797101006E+03  0.75742451638E+03  0.00000000000E+00 0. -1.
<mgrwt>
<rscale>  0 0.28275360E+04</rscale>
<asrwt>0</asrwt>
<pdfrwt beam="1">  1        2 0.28217740E+00 0.28275360E+04</pdfrwt>
<pdfrwt beam="2">  1       -1 0.16765146E+00 0.28275360E+04</pdfrwt>
<totfact> 0.20900051E+00</totfact>
</mgrwt>
</event>
<event>
12    7  0.1572140E-007  0.1867877E+04  0.7818608E-02  0.8671013E-01
          2   -1    0    0  501    0  0.00000000000E+00  0.00000000000E+00  0.33599507904E+04  0.33599507904E+04  0.00000000000E+00 0. -1.
         -1   -1    0    0    0  501 -0.00000000000E+00 -0.00000000000E+00 -0.25959936889E+03  0.25959936889E+03  0.00000000000E+00 0.  1.
         24    2    1    2    0    0 -0.11406812088E+03 -0.36936442672E+03  0.32909397728E+02  0.39954151934E+03  0.95439935515E+02 0.  0.
        254    2    1    2    0    0  0.11406812088E+03  0.36936442672E+03  0.30674420237E+04  0.32200086399E+04  0.89989635857E+03 0.  0.
         23    2    4    4    0    0  0.87471826022E+02  0.63562842318E+03  0.16062168581E+04  0.17321109944E+04  0.92742056103E+02 0.  0.
         23    2    4    4    0    0  0.26596294859E+02 -0.26626399646E+03  0.14612251656E+04  0.14878976455E+04  0.84003214927E+02 0.  0.
          4    1    3    3  502    0 -0.60218664591E+02 -0.96796763614E+02  0.42175068493E+02  0.12155096632E+03  0.00000000000E+00 0. -1.
         -3    1    3    3    0  502 -0.53849456291E+02 -0.27256766310E+03 -0.92656707651E+01  0.27799055302E+03  0.00000000000E+00 0.  1.
         13    1    5    5    0    0  0.90202776882E+02  0.47035297143E+03  0.11044540229E+04  0.12038218919E+04  0.00000000000E+00 0. -1.
        -13    1    5    5    0    0 -0.27309508596E+01  0.16527545174E+03  0.50176283517E+03  0.52828910248E+03  0.00000000000E+00 0.  1.
          1    1    6    6  503    0 -0.14177640380E+02 -0.48980252040E+02  0.44447090380E+03  0.44738624800E+03  0.00000000000E+00 0. -1.
         -1    1    6    6    0  503  0.40773935239E+02 -0.21728374442E+03  0.10167542618E+04  0.10405113975E+04  0.00000000000E+00 0.  1.
<mgrwt>
<rscale>  0 0.18678770E+04</rscale>
<asrwt>0</asrwt>
<pdfrwt beam="1">  1        2 0.51691547E+00 0.18678770E+04</pdfrwt>
<pdfrwt beam="2">  1       -1 0.39938367E-01 0.18678770E+04</pdfrwt>
<totfact> 0.66674189E+00</totfact>
</mgrwt>
</event>
<event>
12    7  0.1572140E-007  0.1935921E+04  0.7818608E-02  0.8637180E-01
         -1   -1    0    0    0  501 -0.00000000000E+00  0.00000000000E+00  0.56420681235E+03  0.56420681235E+03  0.00000000000E+00 0.  1.
          2   -1    0    0  501    0  0.00000000000E+00 -0.00000000000E+00 -0.16606451852E+04  0.16606451852E+04  0.00000000000E+00 0. -1.
         24    2    1    2    0    0 -0.42555855325E+03  0.20704199642E+03 -0.11173434181E+04  0.12162724576E+04  0.83041595301E+02 0.  0.
        254    2    1    2    0    0  0.42555855325E+03 -0.20704199642E+03  0.20905045245E+02  0.10085795400E+04  0.89040956701E+03 0.  0.
         23    2    4    4    0    0  0.12042885636E+03 -0.25916720058E+03  0.40702027611E+03  0.50550136276E+03  0.90528312049E+02 0.  0.
         23    2    4    4    0    0  0.30512969689E+03  0.52125204165E+02 -0.38611523087E+03  0.50307817721E+03  0.90451711148E+02 0.  0.
          2    1    3    3  502    0 -0.34512506457E+03  0.18358152300E+03 -0.83914297665E+03  0.92572912941E+03  0.00000000000E+00 0. -1.
         -1    1    3    3    0  502 -0.80433488675E+02  0.23460473414E+02 -0.27820044145E+03  0.29054332815E+03  0.00000000000E+00 0.  1.
         13    1    5    5    0    0  0.51341744747E+02 -0.20668626631E+03  0.28501599458E+03  0.35579390748E+03  0.00000000000E+00 0. -1.
        -13    1    5    5    0    0  0.69087111613E+02 -0.52480934271E+02  0.12200428154E+03  0.14970745528E+03  0.00000000000E+00 0.  1.
          2    1    6    6  503    0  0.18253434592E+03  0.31637815381E+01 -0.16785054605E+03  0.24799718298E+03  0.00000000000E+00 0. -1.
         -2    1    6    6    0  503  0.12259535097E+03  0.48961422627E+02 -0.21826468481E+03  0.25508099424E+03  0.00000000000E+00 0.  1.
<mgrwt>
<rscale>  0 0.19359208E+04</rscale>
<asrwt>0</asrwt>
<pdfrwt beam="1">  1        2 0.25548387E+00 0.19359208E+04</pdfrwt>
<pdfrwt beam="2">  1       -1 0.86801049E-01 0.19359208E+04</pdfrwt>
<totfact> 0.14350889E+01</totfact>
</mgrwt>
</event>
<event>
12    7  0.1572140E-007  0.2178384E+04  0.7818608E-02  0.8527479E-01
         -1   -1    0    0    0  501 -0.00000000000E+00  0.00000000000E+00  0.83891859193E+03  0.83891859193E+03  0.00000000000E+00 0.  1.
          2   -1    0    0  501    0  0.00000000000E+00 -0.00000000000E+00 -0.14141297281E+04  0.14141297281E+04  0.00000000000E+00 0. -1.
         24    2    1    2    0    0 -0.52130116333E+03  0.60996989351E+03 -0.65737046873E+03  0.10402290996E+04  0.78246230758E+02 0.  0.
        254    2    1    2    0    0  0.52130116333E+03 -0.60996989351E+03  0.82159332573E+02  0.12128192204E+04  0.90573844548E+03 0.  0.
         23    2    4    4    0    0 -0.18288668836E+03 -0.14913748077E+03  0.24195353814E+03  0.35146958291E+03  0.96435595836E+02 0.  0.
         23    2    4    4    0    0  0.70418785168E+03 -0.46083241274E+03 -0.15979420557E+03  0.86134963751E+03  0.90232847794E+02 0.  0.
          4    1    3    3  502    0 -0.23244560707E+03  0.32833039391E+03 -0.31041150742E+03  0.50812115853E+03  0.00000000000E+00 0. -1.
         -3    1    3    3    0  502 -0.28885555626E+03  0.28163949960E+03 -0.34695896131E+03  0.53210794107E+03  0.00000000000E+00 0.  1.
         13    1    5    5    0    0 -0.17823684497E+03 -0.13512581065E+03  0.17805057312E+03  0.28588348011E+03  0.00000000000E+00 0. -1.
        -13    1    5    5    0    0 -0.46498433875E+01 -0.14011670120E+02  0.63902965016E+02  0.65586102803E+02  0.00000000000E+00 0.  1.
          4    1    6    6  503    0  0.48986533198E+03 -0.31063358251E+03 -0.68093240018E+02  0.58403591961E+03  0.00000000000E+00 0. -1.
         -4    1    6    6    0  503  0.21432251970E+03 -0.15019883023E+03 -0.91700965549E+02  0.27731371790E+03  0.00000000000E+00 0.  1.
<mgrwt>
<rscale>  0 0.21783845E+04</rscale>
<asrwt>0</asrwt>
<pdfrwt beam="1">  1        2 0.21755842E+00 0.21783845E+04</pdfrwt>
<pdfrwt beam="2">  1       -1 0.12906440E+00 0.21783845E+04</pdfrwt>
<totfact> 0.76543828E+00</totfact>
</mgrwt>
</event>
<event>
12    7  0.1572140E-007  0.1110629E+04  0.7818608E-02  0.9194894E-01
          2   -1    0    0  501    0  0.00000000000E+00  0.00000000000E+00  0.85871038666E+03  0.85871038666E+03  0.00000000000E+00 0. -1.
         -1   -1    0    0    0  501 -0.00000000000E+00 -0.00000000000E+00 -0.35911315827E+03  0.35911315827E+03  0.00000000000E+00 0.  1.
         24    2    1    2    0    0 -0.70055904177E+02  0.10274065387E+03  0.16095451146E+03  0.21826839370E+03  0.79191320616E+02 0.  0.
        254    2    1    2    0    0  0.70055904177E+02 -0.10274065387E+03  0.33864271693E+03  0.99955515123E+03  0.93218460562E+03 0.  0.
         23    2    4    4    0    0 -0.20811722123E+03 -0.29324256337E+03 -0.14894651372E+03  0.40007633118E+03  0.92585247586E+02 0.  0.
         23    2    4    4    0    0  0.27817312541E+03  0.19050190951E+03  0.48758923066E+03  0.59947882006E+03  0.89220696124E+02 0.  0.
          2    1    3    3  502    0 -0.53986840015E+02  0.78853325456E+02  0.16348648430E+03  0.18936804477E+03  0.00000000000E+00 0. -1.
         -1    1    3    3    0  502 -0.16069064162E+02  0.23887328411E+02 -0.25319728429E+01  0.28900348928E+02  0.00000000000E+00 0.  1.
         13    1    5    5    0    0 -0.10496882940E+03 -0.17954993636E+03 -0.39895581411E+02  0.21177415378E+03  0.00000000000E+00 0.  1.
        -13    1    5    5    0    0 -0.10314839183E+03 -0.11369262701E+03 -0.10905093231E+03  0.18830217740E+03  0.00000000000E+00 0. -1.
          1    1    6    6  503    0  0.23035955581E+03  0.16314768487E+03  0.45507151902E+03  0.53551169871E+03  0.00000000000E+00 0. -1.
         -1    1    6    6    0  503  0.47813569598E+02  0.27354224632E+02  0.32517711637E+02  0.63967121344E+02  0.00000000000E+00 0.  1.
<mgrwt>
<rscale>  0 0.11106290E+04</rscale>
<asrwt>0</asrwt>
<pdfrwt beam="1">  1        2 0.13210929E+00 0.11106290E+04</pdfrwt>
<pdfrwt beam="2">  1       -1 0.55248178E-01 0.11106290E+04</pdfrwt>
<totfact> 0.11736330E+02</totfact>
</mgrwt>
</event>
<event>
12    7  0.1572140E-007  0.2689756E+04  0.7818608E-02  0.8338336E-01
         -1   -1    0    0    0  501 -0.00000000000E+00  0.00000000000E+00  0.74301971552E+03  0.74301971552E+03  0.00000000000E+00 0.  1.
          2   -1    0    0  501    0  0.00000000000E+00 -0.00000000000E+00 -0.24342517939E+04  0.24342517939E+04  0.00000000000E+00 0. -1.
         24    2    1    2    0    0  0.65898683991E+03 -0.40331121199E+03  0.32258316011E+03  0.84101726357E+03  0.79539635083E+02 0.  0.
        254    2    1    2    0    0 -0.65898683991E+03  0.40331121199E+03 -0.20138152385E+04  0.23362542459E+04  0.89761266568E+03 0.  0.
         23    2    4    4    0    0 -0.26441958818E+03  0.80482572092E+02 -0.37821505841E+02  0.29344442786E+03  0.91016498019E+02 0.  0.
         23    2    4    4    0    0 -0.39456725172E+03  0.32282863990E+03 -0.19759937327E+04  0.20428098180E+04  0.92838968907E+02 0.  0.
          4    1    3    3  502    0  0.21532098427E+03 -0.95497715799E+02  0.11924660659E+03  0.26401267616E+03  0.00000000000E+00 0. -1.
         -3    1    3    3    0  502  0.44366585563E+03 -0.30781349619E+03  0.20333655353E+03  0.57700458741E+03  0.00000000000E+00 0.  1.
         13    1    5    5    0    0 -0.88009081157E+02  0.28589757491E+02  0.30264431575E+02  0.97359685795E+02  0.00000000000E+00 0. -1.
        -13    1    5    5    0    0 -0.17641050703E+03  0.51892814601E+02 -0.68085937416E+02  0.19608474206E+03  0.00000000000E+00 0.  1.
          2    1    6    6  503    0 -0.59721960882E+02  0.59000808532E+02 -0.21153131424E+03  0.22758142482E+03  0.00000000000E+00 0.  1.
         -2    1    6    6    0  503 -0.33484529084E+03  0.26382783137E+03 -0.17644624184E+04  0.18152283932E+04  0.00000000000E+00 0. -1.
<mgrwt>
<rscale>  0 0.26897562E+04</rscale>
<asrwt>0</asrwt>
<pdfrwt beam="1">  1        2 0.37450027E+00 0.26897562E+04</pdfrwt>
<pdfrwt beam="2">  1       -1 0.11431073E+00 0.26897562E+04</pdfrwt>
<totfact> 0.26409475E+00</totfact>
</mgrwt>
</event>
<event>
12    7  0.1572140E-007  0.1611566E+04  0.7818608E-02  0.8813474E-01
          2   -1    0    0  501    0  0.00000000000E+00  0.00000000000E+00  0.35089357863E+04  0.35089357863E+04  0.00000000000E+00 0. -1.
         -3   -1    0    0    0  501 -0.00000000000E+00 -0.00000000000E+00 -0.18503783317E+03  0.18503783317E+03  0.00000000000E+00 0.  1.
         24    2    1    2    0    0 -0.39738782371E+03 -0.29023385481E+03  0.17148895543E+04  0.17858940060E+04  0.80115194272E+02 0.  0.
        254    2    1    2    0    0  0.39738782371E+03  0.29023385481E+03  0.16090083989E+04  0.19080796135E+04  0.89983721356E+03 0.  0.
         23    2    4    4    0    0  0.30510104664E+03 -0.28101818798E+03  0.84097741707E+03  0.94215763582E+03  0.91433714079E+02 0.  0.
         23    2    4    4    0    0  0.92286777068E+02  0.57125204279E+03  0.76803098184E+03  0.96592197771E+03  0.91038081927E+02 0.  0.
          2    1    3    3  502    0 -0.39340944628E+03 -0.28351579000E+03  0.17079220176E+04  0.17754294731E+04  0.00000000000E+00 0. -1.
         -1    1    3    3    0  502 -0.39783774290E+01 -0.67180648114E+01  0.69675366185E+01  0.10464532876E+02  0.00000000000E+00 0.  1.
         13    1    5    5    0    0  0.22843439476E+03 -0.25800375161E+03  0.69075027362E+03  0.77193532700E+03  0.00000000000E+00 0.  1.
        -13    1    5    5    0    0  0.76666651882E+02 -0.23014436368E+02  0.15022714345E+03  0.17022230882E+03  0.00000000000E+00 0. -1.
          4    1    6    6  503    0 -0.11877372870E+01  0.25572669878E+03  0.30849397845E+03  0.40070698762E+03  0.00000000000E+00 0. -1.
         -4    1    6    6    0  503  0.93474514355E+02  0.31552534401E+03  0.45953700338E+03  0.56521499009E+03  0.00000000000E+00 0.  1.
<mgrwt>
<rscale>  0 0.16115655E+04</rscale>
<asrwt>0</asrwt>
<pdfrwt beam="1">  1        2 0.53983622E+00 0.16115655E+04</pdfrwt>
<pdfrwt beam="2">  1       -3 0.28467362E-01 0.16115655E+04</pdfrwt>
<totfact> 0.60608392E+00</totfact>
</mgrwt>
</event>
<event>
12    7  0.1572140E-007  0.1775551E+04  0.7818608E-02  0.8719410E-01
         -1   -1    0    0    0  501 -0.00000000000E+00  0.00000000000E+00  0.31794836709E+03  0.31794836709E+03  0.00000000000E+00 0.  1.
          2   -1    0    0  501    0  0.00000000000E+00 -0.00000000000E+00 -0.24788469882E+04  0.24788469882E+04  0.00000000000E+00 0. -1.
         24    2    1    2    0    0  0.88516568458E+02 -0.35015514356E+03  0.58837712352E+02  0.37463456861E+03  0.80283100020E+02 0.  0.
        254    2    1    2    0    0 -0.88516568458E+02  0.35015514356E+03 -0.22197363334E+04  0.24221607867E+04  0.89954970902E+03 0.  0.
         23    2    4    4    0    0  0.19645571035E+03 -0.44805147760E+02 -0.95794765565E+02  0.24113299709E+03  0.91466593786E+02 0.  0.
         23    2    4    4    0    0 -0.28497227881E+03  0.39496029132E+03 -0.21239415679E+04  0.21810277896E+04  0.92474881617E+02 0.  0.
          4    1    3    3  502    0  0.20458093649E+02 -0.17428992199E+02  0.18509960372E+02  0.32633142628E+02  0.00000000000E+00 0. -1.
         -1    1    3    3    0  502  0.68058474808E+02 -0.33272615136E+03  0.40327751980E+02  0.34200142598E+03  0.00000000000E+00 0.  1.
         13    1    5    5    0    0  0.18308251400E+03 -0.15002449972E+02 -0.61369519318E+02  0.19367627201E+03  0.00000000000E+00 0.  1.
        -13    1    5    5    0    0  0.13373196354E+02 -0.29802697788E+02 -0.34425246247E+02  0.47456725080E+02  0.00000000000E+00 0. -1.
          3    1    6    6  503    0 -0.12740168106E+03  0.25399612482E+03 -0.11905950335E+04  0.12240350295E+04  0.00000000000E+00 0. -1.
         -3    1    6    6    0  503 -0.15757059776E+03  0.14096416650E+03 -0.93334653441E+03  0.95699276006E+03  0.00000000000E+00 0.  1.
<mgrwt>
<rscale>  0 0.17755510E+04</rscale>
<asrwt>0</asrwt>
<pdfrwt beam="1">  1        2 0.38136108E+00 0.17755510E+04</pdfrwt>
<pdfrwt beam="2">  1       -1 0.48915133E-01 0.17755510E+04</pdfrwt>
<totfact> 0.16159280E+01</totfact>
</mgrwt>
</event>
<event>
12    7  0.1572140E-007  0.1199355E+04  0.7818608E-02  0.9113421E-01
         -1   -1    0    0    0  501 -0.00000000000E+00  0.00000000000E+00  0.83478457077E+03  0.83478457077E+03  0.00000000000E+00 0.  1.
          2   -1    0    0  501    0  0.00000000000E+00 -0.00000000000E+00 -0.43078560144E+03  0.43078560144E+03  0.00000000000E+00 0. -1.
         24    2    1    2    0    0  0.88625693273E+02  0.11511004065E+03 -0.13336356254E+03  0.21241156546E+03  0.78917668250E+02 0.  0.
        254    2    1    2    0    0 -0.88625693273E+02 -0.11511004065E+03  0.53736253186E+03  0.10531586067E+04  0.89402445456E+03 0.  0.
         23    2    4    4    0    0  0.51452795252E+02 -0.16611637617E+02 -0.23403535272E+03  0.25682788522E+03  0.90910283567E+02 0.  0.
         23    2    4    4    0    0 -0.14007848853E+03 -0.98498403032E+02  0.77139788458E+03  0.79633072153E+03  0.98812971654E+02 0.  0.
          4    1    3    3  502    0  0.74337211644E+02  0.51462293647E+02 -0.11163716176E+03  0.14365669002E+03  0.00000000000E+00 0. -1.
         -3    1    3    3    0  502  0.14288481629E+02  0.63647747002E+02 -0.21726400780E+02  0.68754875439E+02  0.00000000000E+00 0.  1.
         13    1    5    5    0    0  0.72049327975E+02 -0.22912337144E+02 -0.21561680377E+03  0.22848782664E+03  0.00000000000E+00 0. -1.
        -13    1    5    5    0    0 -0.20596532722E+02  0.63006995271E+01 -0.18418548954E+02  0.28340058579E+02  0.00000000000E+00 0.  1.
          3    1    6    6  503    0 -0.70723687675E+02 -0.72580808258E+02  0.61499177754E+03  0.62328540827E+03  0.00000000000E+00 0. -1.
         -3    1    6    6    0  503 -0.69354800850E+02 -0.25917594773E+02  0.15640610705E+03  0.17304531326E+03  0.00000000000E+00 0.  1.
<mgrwt>
<rscale>  0 0.11993551E+04</rscale>
<asrwt>0</asrwt>
<pdfrwt beam="1">  1        2 0.66274708E-01 0.11993551E+04</pdfrwt>
<pdfrwt beam="2">  1       -1 0.12842840E+00 0.11993551E+04</pdfrwt>
<totfact> 0.43178419E+01</totfact>
</mgrwt>
</event>
<event>
12    7  0.1572140E-007  0.1008624E+04  0.7818608E-02  0.9299137E-01
         -3   -1    0    0    0  501 -0.00000000000E+00  0.00000000000E+00  0.76063142718E+03  0.76063142718E+03  0.00000000000E+00 0.  1.
          4   -1    0    0  501    0  0.00000000000E+00 -0.00000000000E+00 -0.33436765730E+03  0.33436765730E+03  0.00000000000E+00 0. -1.
         24    2    1    2    0    0 -0.42023018293E+02  0.47432830151E+02 -0.31636927445E+01  0.10185805511E+03  0.79682162344E+02 0.  0.
        254    2    1    2    0    0  0.42023018293E+02 -0.47432830151E+02  0.42942746262E+03  0.99314102937E+03  0.89325547921E+03 0.  0.
         23    2    4    4    0    0  0.22959578303E+03 -0.33313477541E+03 -0.26679576406E+02  0.41561069911E+03  0.91254869722E+02 0.  0.
         23    2    4    4    0    0 -0.18757276474E+03  0.28570194526E+03  0.45610703902E+03  0.57753033026E+03  0.93265790800E+02 0.  0.
          4    1    3    3  502    0 -0.28804577841E+02  0.30177463410E+01 -0.35154154004E+02  0.45548052004E+02  0.00000000000E+00 0. -1.
         -3    1    3    3    0  502 -0.13218440452E+02  0.44415083810E+02  0.31990461260E+02  0.56310003103E+02  0.00000000000E+00 0.  1.
         13    1    5    5    0    0 -0.68039398623E+01 -0.89462620409E+01 -0.82835154658E+01  0.13962300334E+02  0.00000000000E+00 0. -1.
        -13    1    5    5    0    0  0.23639972289E+03 -0.32418851337E+03 -0.18396060941E+02  0.40164839878E+03  0.00000000000E+00 0.  1.
          3    1    6    6  503    0 -0.23654752129E+02  0.68755559754E+02  0.47961700740E+02  0.87104529350E+02  0.00000000000E+00 0. -1.
         -3    1    6    6    0  503 -0.16391801261E+03  0.21694638550E+03  0.40814533828E+03  0.49042580091E+03  0.00000000000E+00 0.  1.
<mgrwt>
<rscale>  0 0.10086239E+04</rscale>
<asrwt>0</asrwt>
<pdfrwt beam="1">  1        4 0.51441178E-01 0.10086239E+04</pdfrwt>
<pdfrwt beam="2">  1       -3 0.11702022E+00 0.10086239E+04</pdfrwt>
<totfact> 0.49783722E+00</totfact>
</mgrwt>
</event>
<event>
12    7  0.1572140E-007  0.1843678E+04  0.7818608E-02  0.8683411E-01
          2   -1    0    0  501    0  0.00000000000E+00  0.00000000000E+00  0.33504702343E+04  0.33504702343E+04  0.00000000000E+00 0. -1.
         -1   -1    0    0    0  501 -0.00000000000E+00 -0.00000000000E+00 -0.25363224153E+03  0.25363224153E+03  0.00000000000E+00 0.  1.
         24    2    1    2    0    0 -0.32559036362E+03 -0.27806068547E+03  0.10421216926E+03  0.44783811027E+03  0.79824602084E+02 0.  0.
        254    2    1    2    0    0  0.32559036362E+03  0.27806068547E+03  0.29926258235E+04  0.31562643656E+04  0.90712104822E+03 0.  0.
         23    2    4    4    0    0  0.49422034992E+03  0.34720782908E+03  0.11536430544E+04  0.13054708373E+04  0.92492049243E+02 0.  0.
         23    2    4    4    0    0 -0.16862998629E+03 -0.69147143608E+02  0.18389827691E+04  0.18507935283E+04  0.10179223706E+03 0.  0.
          2    1    3    3  502    0 -0.91314209708E+02 -0.10075508427E+03 -0.35445692624E+00  0.13597793034E+03  0.00000000000E+00 0. -1.
         -3    1    3    3    0  502 -0.23427615391E+03 -0.17730560120E+03  0.10456662619E+03  0.31186017992E+03  0.00000000000E+00 0.  1.
         13    1    5    5    0    0  0.25423276557E+03  0.19024178120E+03  0.50898762525E+03  0.59991219113E+03  0.00000000000E+00 0. -1.
        -13    1    5    5    0    0  0.23998758434E+03  0.15696604788E+03  0.64465542916E+03  0.70555864616E+03  0.00000000000E+00 0.  1.
          3    1    6    6  503    0 -0.17191004613E+03 -0.42167634932E+02  0.14308565748E+04  0.14417634033E+04  0.00000000000E+00 0. -1.
         -3    1    6    6    0  503  0.32800598338E+01 -0.26979508675E+02  0.40812619432E+03  0.40903012502E+03  0.00000000000E+00 0.  1.
<mgrwt>
<rscale>  0 0.18436781E+04</rscale>
<asrwt>0</asrwt>
<pdfrwt beam="1">  1        2 0.51545693E+00 0.18436781E+04</pdfrwt>
<pdfrwt beam="2">  1       -1 0.39020347E-01 0.18436781E+04</pdfrwt>
<totfact> 0.70757224E+00</totfact>
</mgrwt>
</event>
<event>
12    7  0.1572140E-007  0.1343953E+04  0.7818608E-02  0.8995418E-01
          2   -1    0    0  501    0  0.00000000000E+00  0.00000000000E+00  0.25330000355E+04  0.25330000355E+04  0.00000000000E+00 0. -1.
         -1   -1    0    0    0  501 -0.00000000000E+00 -0.00000000000E+00 -0.17826786827E+03  0.17826786827E+03  0.00000000000E+00 0.  1.
         24    2    1    2    0    0 -0.21527911925E+03  0.11554910399E+03  0.97277100797E+02  0.27498441499E+03  0.80354835120E+02 0.  0.
        254    2    1    2    0    0  0.21527911925E+03 -0.11554910399E+03  0.22574550664E+04  0.24362834888E+04  0.88299329900E+03 0.  0.
         23    2    4    4    0    0 -0.25025459587E+03  0.14238159350E+03  0.39463881866E+03  0.49684548907E+03  0.90640840096E+02 0.  0.
         23    2    4    4    0    0  0.46553371513E+03 -0.25793069750E+03  0.18628162478E+04  0.19394379997E+04  0.89919392071E+02 0.  0.
          4    1    3    3  502    0 -0.42636699544E+02  0.24389308058E+02  0.57709340929E+02  0.75783207415E+02  0.00000000000E+00 0. -1.
         -1    1    3    3    0  502 -0.17264241971E+03  0.91159795937E+02  0.39567759868E+02  0.19920120758E+03  0.00000000000E+00 0.  1.
         13    1    5    5    0    0 -0.89351100475E+02  0.56436551060E+02  0.22113942491E+03  0.24509457093E+03  0.00000000000E+00 0. -1.
        -13    1    5    5    0    0 -0.16090349540E+03  0.85945042444E+02  0.17349939375E+03  0.25175091814E+03  0.00000000000E+00 0.  1.
          3    1    6    6  503    0  0.17880058402E+02  0.62104420539E+01  0.46252493351E+02  0.49975586242E+02  0.00000000000E+00 0. -1.
         -3    1    6    6    0  503  0.44765365673E+03 -0.26414113955E+03  0.18165637544E+04  0.18894624135E+04  0.00000000000E+00 0.  1.
<mgrwt>
<rscale>  0 0.13439531E+04</rscale>
<asrwt>0</asrwt>
<pdfrwt beam="1">  1        2 0.38969229E+00 0.13439531E+04</pdfrwt>
<pdfrwt beam="2">  1       -1 0.27425828E-01 0.13439531E+04</pdfrwt>
<totfact> 0.44449852E+01</totfact>
</mgrwt>
</event>
<event>
12    7  0.1572140E-007  0.4051302E+04  0.7818608E-02  0.7994277E-01
          2   -1    0    0  501    0  0.00000000000E+00  0.00000000000E+00  0.28279369150E+04  0.28279369150E+04  0.00000000000E+00 0. -1.
         -1   -1    0    0    0  501 -0.00000000000E+00 -0.00000000000E+00 -0.14509734723E+04  0.14509734723E+04  0.00000000000E+00 0.  1.
         24    2    1    2    0    0  0.10532675024E+03  0.35981848296E+03 -0.13401513834E+04  0.13938552323E+04  0.79142991849E+02 0.  0.
        254    2    1    2    0    0 -0.10532675024E+03 -0.35981848296E+03  0.27171148261E+04  0.28850551549E+04  0.89457654978E+03 0.  0.
         23    2    4    4    0    0 -0.12884420108E+01 -0.32188794811E+03  0.25804822068E+03  0.42182569774E+03  0.87946141801E+02 0.  0.
         23    2    4    4    0    0 -0.10403830823E+03 -0.37930534854E+02  0.24590666055E+04  0.24632294572E+04  0.90708839132E+02 0.  0.
          2    1    3    3  502    0  0.49475632628E+02  0.58329379874E+02 -0.25671417058E+03  0.26786623556E+03  0.00000000000E+00 0. -1.
         -1    1    3    3    0  502  0.55851117609E+02  0.30148910309E+03 -0.10834372128E+04  0.11259889968E+04  0.00000000000E+00 0.  1.
         13    1    5    5    0    0 -0.18792229372E+02 -0.31376718006E+03  0.24116169010E+03  0.39618423989E+03  0.00000000000E+00 0. -1.
        -13    1    5    5    0    0  0.17503787361E+02 -0.81207680554E+01  0.16886530580E+02  0.25641457853E+02  0.00000000000E+00 0.  1.
          1    1    6    6  503    0 -0.63466391172E+02  0.23188049676E+02  0.13963293245E+04  0.13979632509E+04  0.00000000000E+00 0. -1.
         -1    1    6    6    0  503 -0.40571917055E+02 -0.61118584529E+02  0.10627372810E+04  0.10652662063E+04  0.00000000000E+00 0.  1.
<mgrwt>
<rscale>  0 0.40513017E+04</rscale>
<asrwt>0</asrwt>
<pdfrwt beam="1">  1        2 0.43506722E+00 0.40513017E+04</pdfrwt>
<pdfrwt beam="2">  1       -1 0.22322669E+00 0.40513017E+04</pdfrwt>
<totfact> 0.20776292E-01</totfact>
</mgrwt>
</event>
<event>
12    7  0.1572140E-007  0.2946366E+04  0.7818608E-02  0.8259214E-01
         -1   -1    0    0    0  501 -0.00000000000E+00  0.00000000000E+00  0.61212453518E+03  0.61212453518E+03  0.00000000000E+00 0.  1.
          2   -1    0    0  501    0  0.00000000000E+00 -0.00000000000E+00 -0.35454676468E+04  0.35454676468E+04  0.00000000000E+00 0. -1.
         24    2    1    2    0    0 -0.93981037857E+03 -0.92634509127E+03 -0.10749179948E+04  0.17039179624E+04  0.80801927397E+02 0.  0.
        254    2    1    2    0    0  0.93981037857E+03  0.92634509127E+03 -0.18584251168E+04  0.24536742195E+04  0.90852324397E+03 0.  0.
         23    2    4    4    0    0  0.57897983653E+03  0.84604076031E+03 -0.72788312204E+03  0.12606463906E+04  0.91721664110E+02 0.  0.
         23    2    4    4    0    0  0.36083054205E+03  0.80304330959E+02 -0.11305419948E+04  0.11930278289E+04  0.92426905364E+02 0.  0.
          4    1    3    3  502    0 -0.59691171061E+03 -0.63484620966E+03 -0.68387717787E+03  0.11077099325E+04  0.00000000000E+00 0. -1.
         -3    1    3    3    0  502 -0.34289866797E+03 -0.29149888161E+03 -0.39104081688E+03  0.59620802992E+03  0.00000000000E+00 0.  1.
         13    1    5    5    0    0  0.93224326279E+02  0.13698267343E+03 -0.16108773204E+03  0.23109367201E+03  0.00000000000E+00 0. -1.
        -13    1    5    5    0    0  0.48575551025E+03  0.70905808688E+03 -0.56679539000E+03  0.10295527186E+04  0.00000000000E+00 0.  1.
          1    1    6    6  503    0  0.87021578368E+02  0.25339236273E+02 -0.16924553950E+03  0.19198667828E+03  0.00000000000E+00 0. -1.
         -1    1    6    6    0  503  0.27380896368E+03  0.54965094687E+02 -0.96129645530E+03  0.10010411506E+04  0.00000000000E+00 0.  1.
<mgrwt>
<rscale>  0 0.29463657E+04</rscale>
<asrwt>0</asrwt>
<pdfrwt beam="1">  1        2 0.54545656E+00 0.29463657E+04</pdfrwt>
<pdfrwt beam="2">  1       -1 0.94173005E-01 0.29463657E+04</pdfrwt>
<totfact> 0.80503373E-01</totfact>
</mgrwt>
</event>
<event>
12    7  0.1572140E-007  0.2661927E+04  0.7818608E-02  0.8347465E-01
         -1   -1    0    0    0  501 -0.00000000000E+00  0.00000000000E+00  0.17688132416E+04  0.17688132416E+04  0.00000000000E+00 0.  1.
          2   -1    0    0  501    0  0.00000000000E+00 -0.00000000000E+00 -0.10014988433E+04  0.10014988433E+04  0.00000000000E+00 0. -1.
         24    2    1    2    0    0 -0.35998994840E+02  0.82946741984E+03 -0.53421360638E+03  0.99046818521E+03  0.79567081525E+02 0.  0.
        254    2    1    2    0    0  0.35998994840E+02 -0.82946741984E+03  0.13015280047E+04  0.17798438996E+04  0.88575224068E+03 0.  0.
         23    2    4    4    0    0  0.18704505127E+03 -0.27518095608E+03  0.11178462298E+04  0.11699493290E+04  0.92145694314E+02 0.  0.
         23    2    4    4    0    0 -0.15104605643E+03 -0.55428646376E+03  0.18368177488E+03  0.60989457070E+03  0.90465451238E+02 0.  0.
          4    1    3    3  502    0 -0.33902525104E+02  0.64338455295E+03 -0.45202513624E+03  0.78703226616E+03  0.00000000000E+00 0. -1.
         -3    1    3    3    0  502 -0.20964697360E+01  0.18608286689E+03 -0.82188470142E+02  0.20343591905E+03  0.00000000000E+00 0.  1.
         13    1    5    5    0    0  0.15392081021E+03 -0.26234423469E+03  0.92108979441E+03  0.97001160955E+03  0.00000000000E+00 0. -1.
        -13    1    5    5    0    0  0.33124241060E+02 -0.12836721384E+02  0.19675643541E+03  0.19993771940E+03  0.00000000000E+00 0.  1.
          1    1    6    6  503    0 -0.11751672029E+03 -0.52140906361E+03  0.17233379757E+03  0.56158394649E+03  0.00000000000E+00 0. -1.
         -1    1    6    6    0  503 -0.33529336140E+02 -0.32877400151E+02  0.11347977307E+02  0.48310624211E+02  0.00000000000E+00 0.  1.
<mgrwt>
<rscale>  0 0.26619274E+04</rscale>
<asrwt>0</asrwt>
<pdfrwt beam="1">  1        2 0.15407675E+00 0.26619274E+04</pdfrwt>
<pdfrwt beam="2">  1       -1 0.27212511E+00 0.26619274E+04</pdfrwt>
<totfact> 0.12619651E+00</totfact>
</mgrwt>
</event>
<event>
12    7  0.1572140E-007  0.1691926E+04  0.7818608E-02  0.8765982E-01
          2   -1    0    0  501    0  0.00000000000E+00  0.00000000000E+00  0.14755133389E+04  0.14755133389E+04  0.00000000000E+00 0. -1.
         -1   -1    0    0    0  501 -0.00000000000E+00 -0.00000000000E+00 -0.48502022858E+03  0.48502022858E+03  0.00000000000E+00 0.  1.
         24    2    1    2    0    0  0.26702088837E+02 -0.41011427784E+03  0.86472875213E+03  0.96081047939E+03  0.80586848174E+02 0.  0.
        254    2    1    2    0    0 -0.26702088837E+02  0.41011427784E+03  0.12576435816E+03  0.99972308807E+03  0.90261999567E+03 0.  0.
         23    2    4    4    0    0  0.30850043243E+03 -0.98441170987E+02 -0.88766578512E+02  0.34810930958E+03  0.91855348266E+02 0.  0.
         23    2    4    4    0    0 -0.33520252126E+03  0.50855544883E+03  0.21453093667E+03  0.65161377848E+03  0.87106938438E+02 0.  0.
          2    1    3    3  502    0 -0.18578841701E+02 -0.17250552909E+03  0.30189047295E+03  0.34819705424E+03  0.00000000000E+00 0. -1.
         -1    1    3    3    0  502  0.45280930538E+02 -0.23760874875E+03  0.56283827918E+03  0.61261342515E+03  0.00000000000E+00 0.  1.
         13    1    5    5    0    0  0.68518656859E+01 -0.36291167556E+01  0.13684027477E+02  0.15728037379E+02  0.00000000000E+00 0.  1.
        -13    1    5    5    0    0  0.30164856674E+03 -0.94812054231E+02 -0.10245060599E+03  0.33238127220E+03  0.00000000000E+00 0. -1.
          4    1    6    6  503    0 -0.30145411942E+03  0.40347284391E+03  0.15962474031E+03  0.52834172616E+03  0.00000000000E+00 0.  1.
         -4    1    6    6    0  503 -0.33748401842E+02  0.10508260492E+03  0.54906196358E+02  0.12327205232E+03  0.00000000000E+00 0. -1.
<mgrwt>
<rscale>  0 0.16919265E+04</rscale>
<asrwt>0</asrwt>
<pdfrwt beam="1">  1        2 0.22700205E+00 0.16919265E+04</pdfrwt>
<pdfrwt beam="2">  1       -1 0.74618497E-01 0.16919265E+04</pdfrwt>
<totfact> 0.25696541E+01</totfact>
</mgrwt>
</event>
<event>
12    7  0.1572140E-007  0.1960089E+04  0.7818608E-02  0.8625511E-01
         -1   -1    0    0    0  501 -0.00000000000E+00  0.00000000000E+00  0.86369439045E+03  0.86369439045E+03  0.00000000000E+00 0.  1.
          2   -1    0    0  501    0  0.00000000000E+00 -0.00000000000E+00 -0.11120689136E+04  0.11120689136E+04  0.00000000000E+00 0. -1.
         24    2    1    2    0    0 -0.71612137030E+02  0.63555330994E+02  0.68256249384E+03  0.69199783303E+03  0.61659262542E+02 0.  0.
        254    2    1    2    0    0  0.71612137030E+02 -0.63555330994E+02 -0.93093701699E+03  0.12837654710E+04  0.87877327948E+03 0.  0.
         23    2    4    4    0    0 -0.27966404490E+03 -0.19099523750E+03 -0.80736021243E+03  0.87962626718E+03  0.84974693539E+02 0.  0.
         23    2    4    4    0    0  0.35127618193E+03  0.12743990650E+03 -0.12357680457E+03  0.40413920385E+03  0.91768097411E+02 0.  0.
          2    1    3    3  502    0 -0.16432479691E+02 -0.18605793491E+00  0.29092102236E+03  0.29138480101E+03  0.00000000000E+00 0. -1.
         -1    1    3    3    0  502 -0.55179657338E+02  0.63741388929E+02  0.39164147148E+03  0.40061303202E+03  0.00000000000E+00 0.  1.
         13    1    5    5    0    0 -0.28009352022E+01 -0.13492921597E+02 -0.82556050595E+02  0.83698301423E+02  0.00000000000E+00 0. -1.
        -13    1    5    5    0    0 -0.27686310969E+03 -0.17750231590E+03 -0.72480416183E+03  0.79592796575E+03  0.00000000000E+00 0.  1.
          2    1    6    6  503    0  0.20084383550E+03  0.79216401042E+02 -0.11805479411E+03  0.24606994710E+03  0.00000000000E+00 0. -1.
         -2    1    6    6    0  503  0.15043234642E+03  0.48223505461E+02 -0.55220104552E+01  0.15806925675E+03  0.00000000000E+00 0.  1.
<mgrwt>
<rscale>  0 0.19600895E+04</rscale>
<asrwt>0</asrwt>
<pdfrwt beam="1">  1        2 0.17108752E+00 0.19600895E+04</pdfrwt>
<pdfrwt beam="2">  1       -1 0.13287606E+00 0.19600895E+04</pdfrwt>
<totfact> 0.10921385E+01</totfact>
</mgrwt>
</event>
<event>
12    7  0.1572140E-007  0.1377675E+04  0.7818608E-02  0.8970139E-01
         -1   -1    0    0    0  501 -0.00000000000E+00  0.00000000000E+00  0.34677375534E+03  0.34677375534E+03  0.00000000000E+00 0.  1.
          2   -1    0    0  501    0  0.00000000000E+00 -0.00000000000E+00 -0.13683186978E+04  0.13683186978E+04  0.00000000000E+00 0. -1.
         24    2    1    2    0    0 -0.39186298655E+03  0.92296885191E+02 -0.29583312238E+03  0.50590410964E+03  0.79664399886E+02 0.  0.
        254    2    1    2    0    0  0.39186298655E+03 -0.92296885191E+02 -0.72571182013E+03  0.12091883435E+04  0.87943361833E+03 0.  0.
         23    2    4    4    0    0  0.14397394632E+03 -0.22469586302E+03  0.12534170604E+03  0.30813805322E+03  0.89564437660E+02 0.  0.
         23    2    4    4    0    0  0.24788904023E+03  0.13239897783E+03 -0.85105352616E+03  0.90105029032E+03  0.92849640262E+02 0.  0.
          2    1    3    3  502    0 -0.31509020877E+03  0.40817051334E+02 -0.23621208182E+03  0.39590910439E+03  0.00000000000E+00 0. -1.
         -3    1    3    3    0  502 -0.76772777782E+02  0.51479833858E+02 -0.59621040558E+02  0.10999500525E+03  0.00000000000E+00 0.  1.
         13    1    5    5    0    0  0.24115044803E+02 -0.38671768235E+02  0.63873230588E+02  0.78465474127E+02  0.00000000000E+00 0.  1.
        -13    1    5    5    0    0  0.11985890152E+03 -0.18602409479E+03  0.61468475449E+02  0.22967257910E+03  0.00000000000E+00 0. -1.
          4    1    6    6  503    0  0.23403059299E+03  0.13929834343E+03 -0.73254175055E+03  0.78153167769E+03  0.00000000000E+00 0. -1.
         -4    1    6    6    0  503  0.13858447239E+02 -0.68993656033E+01 -0.11851177561E+03  0.11951861263E+03  0.00000000000E+00 0.  1.
<mgrwt>
<rscale>  0 0.13776749E+04</rscale>
<asrwt>0</asrwt>
<pdfrwt beam="1">  1        2 0.21051057E+00 0.13776749E+04</pdfrwt>
<pdfrwt beam="2">  1       -1 0.53349809E-01 0.13776749E+04</pdfrwt>
<totfact> 0.59415854E+01</totfact>
</mgrwt>
</event>
<event>
12    7  0.1572140E-007  0.2596441E+04  0.7818608E-02  0.8369411E-01
          2   -1    0    0  501    0  0.00000000000E+00  0.00000000000E+00  0.20555544198E+04  0.20555544198E+04  0.00000000000E+00 0. -1.
         -1   -1    0    0    0  501 -0.00000000000E+00 -0.00000000000E+00 -0.81991348328E+03  0.81991348328E+03  0.00000000000E+00 0.  1.
         24    2    1    2    0    0  0.72528339236E+03  0.75344095041E+01 -0.43975924354E+03  0.85186644696E+03  0.78711400768E+02 0.  0.
        254    2    1    2    0    0 -0.72528339236E+03 -0.75344095041E+01  0.16754001801E+04  0.20236014562E+04  0.87287130972E+03 0.  0.
         23    2    4    4    0    0 -0.10303639702E+03 -0.26170866517E+03  0.10849362379E+04  0.11244811729E+04  0.90902933698E+02 0.  0.
         23    2    4    4    0    0 -0.62224699535E+03  0.25417425567E+03  0.59046394216E+03  0.89912028322E+03  0.89295807579E+02 0.  0.
          4    1    3    3  502    0  0.72096516330E+02 -0.20003313364E+02 -0.59158697206E+02  0.95382344633E+02  0.00000000000E+00 0. -1.
         -3    1    3    3    0  502  0.65318687603E+03  0.27537722869E+02 -0.38060054633E+03  0.75648410232E+03  0.00000000000E+00 0.  1.
         13    1    5    5    0    0 -0.16760912803E+02 -0.85012638345E+02  0.49801863543E+03  0.50550038389E+03  0.00000000000E+00 0.  1.
        -13    1    5    5    0    0 -0.86275484212E+02 -0.17669602683E+03  0.58691760250E+03  0.61898078904E+03  0.00000000000E+00 0. -1.
          3    1    6    6  503    0 -0.28374868767E+03  0.12430829771E+03  0.21433328593E+03  0.37670230700E+03  0.00000000000E+00 0. -1.
         -3    1    6    6    0  503 -0.33849830767E+03  0.12986595796E+03  0.37613065623E+03  0.52241797623E+03  0.00000000000E+00 0.  1.
<mgrwt>
<rscale>  0 0.25964412E+04</rscale>
<asrwt>0</asrwt>
<pdfrwt beam="1">  1        2 0.31623914E+00 0.25964412E+04</pdfrwt>
<pdfrwt beam="2">  1       -1 0.12614054E+00 0.25964412E+04</pdfrwt>
<totfact> 0.34260978E+00</totfact>
</mgrwt>
</event>
<event>
12    7  0.1572140E-007  0.2415310E+04  0.7818608E-02  0.8433794E-01
          2   -1    0    0  501    0  0.00000000000E+00  0.00000000000E+00  0.15739689102E+04  0.15739689102E+04  0.00000000000E+00 0. -1.
         -1   -1    0    0    0  501 -0.00000000000E+00 -0.00000000000E+00 -0.92659426601E+03  0.92659426601E+03  0.00000000000E+00 0.  1.
         24    2    1    2    0    0 -0.38989037605E+03  0.55388707108E+03  0.10956844577E+04  0.12907235888E+04  0.81471216167E+02 0.  0.
        254    2    1    2    0    0  0.38989037605E+03 -0.55388707108E+03 -0.44830981348E+03  0.12098395874E+04  0.89661850615E+03 0.  0.
         23    2    4    4    0    0  0.46960052773E+03 -0.33480917567E+02 -0.47466601376E+03  0.67490085769E+03  0.92399759776E+02 0.  0.
         23    2    4    4    0    0 -0.79710151684E+02 -0.52040615352E+03  0.26356200282E+02  0.53493872972E+03  0.91041322298E+02 0.  0.
          2    1    3    3  502    0 -0.14480334375E+03  0.17077443841E+03  0.30167136313E+03  0.37568274981E+03  0.00000000000E+00 0. -1.
         -1    1    3    3    0  502 -0.24508703230E+03  0.38311263267E+03  0.79401309457E+03  0.91504083902E+03  0.00000000000E+00 0.  1.
         13    1    5    5    0    0  0.42847624047E+03 -0.67517194207E+01 -0.40445548692E+03  0.58925522081E+03  0.00000000000E+00 0.  1.
        -13    1    5    5    0    0  0.41124287268E+02 -0.26729198147E+02 -0.70210526844E+02  0.85645636880E+02  0.00000000000E+00 0. -1.
          1    1    6    6  503    0 -0.52728194689E+02 -0.10566515982E+03  0.16202755295E+02  0.11919697057E+03  0.00000000000E+00 0. -1.
         -1    1    6    6    0  503 -0.26981956995E+02 -0.41474099370E+03  0.10153444988E+02  0.41574175915E+03  0.00000000000E+00 0.  1.
<mgrwt>
<rscale>  0 0.24153100E+04</rscale>
<asrwt>0</asrwt>
<pdfrwt beam="1">  1        2 0.24214906E+00 0.24153100E+04</pdfrwt>
<pdfrwt beam="2">  1       -1 0.14255296E+00 0.24153100E+04</pdfrwt>
<totfact> 0.47152140E+00</totfact>
</mgrwt>
</event>
<event>
12    7  0.1572140E-007  0.2055615E+04  0.7818608E-02  0.8581051E-01
         -1   -1    0    0    0  501 -0.00000000000E+00  0.00000000000E+00  0.10599698619E+04  0.10599698619E+04  0.00000000000E+00 0.  1.
          2   -1    0    0  501    0  0.00000000000E+00 -0.00000000000E+00 -0.99662121897E+03  0.99662121897E+03  0.00000000000E+00 0. -1.
         24    2    1    2    0    0  0.52044743275E+03  0.69409267975E+02  0.66482736942E+03  0.85102487528E+03  0.81023024423E+02 0.  0.
        254    2    1    2    0    0 -0.52044743275E+03 -0.69409267975E+02 -0.60147872649E+03  0.12055662056E+04  0.90328845940E+03 0.  0.
         23    2    4    4    0    0 -0.16801619453E+03  0.14120948896E+03 -0.72855213697E+03  0.76626982555E+03  0.90618253522E+02 0.  0.
         23    2    4    4    0    0 -0.35243123821E+03 -0.21061875693E+03  0.12707341048E+03  0.43929638003E+03  0.90915452033E+02 0.  0.
          2    1    3    3  502    0  0.39307763872E+03  0.83134236056E+02  0.47682969913E+03  0.62352858253E+03  0.00000000000E+00 0. -1.
         -1    1    3    3    0  502  0.12736979403E+03 -0.13724968081E+02  0.18799767029E+03  0.22749629275E+03  0.00000000000E+00 0.  1.
         13    1    5    5    0    0 -0.10183147791E+03  0.10886943362E+03 -0.59868940852E+03  0.61696937634E+03  0.00000000000E+00 0.  1.
        -13    1    5    5    0    0 -0.66184716625E+02  0.32340055337E+02 -0.12986272845E+03  0.14930044921E+03  0.00000000000E+00 0. -1.
          1    1    6    6  503    0 -0.27647768359E+03 -0.14129384909E+03  0.12954865302E+03  0.33643233318E+03  0.00000000000E+00 0.  1.
         -1    1    6    6    0  503 -0.75953554625E+02 -0.69324907843E+02 -0.24752425483E+01  0.10286404685E+03  0.00000000000E+00 0. -1.
<mgrwt>
<rscale>  0 0.20556152E+04</rscale>
<asrwt>0</asrwt>
<pdfrwt beam="1">  1        2 0.15332634E+00 0.20556152E+04</pdfrwt>
<pdfrwt beam="2">  1       -1 0.16307229E+00 0.20556152E+04</pdfrwt>
<totfact> 0.73991154E+00</totfact>
</mgrwt>
</event>
<event>
12    7  0.1572140E-007  0.1564163E+04  0.7818608E-02  0.8842872E-01
          2   -1    0    0  501    0  0.00000000000E+00  0.00000000000E+00  0.13858189076E+04  0.13858189076E+04  0.00000000000E+00 0. -1.
         -3   -1    0    0    0  501 -0.00000000000E+00 -0.00000000000E+00 -0.44136471908E+03  0.44136471908E+03  0.00000000000E+00 0.  1.
         24    2    1    2    0    0  0.14134019746E+03 -0.32388768997E+03 -0.12135506157E+03  0.38271675804E+03  0.82853960605E+02 0.  0.
        254    2    1    2    0    0 -0.14134019746E+03  0.32388768997E+03  0.10658092501E+04  0.14444668687E+04  0.90865553974E+03 0.  0.
         23    2    4    4    0    0 -0.34447094124E+03 -0.12813020085E+03  0.16657445679E+03  0.41375726423E+03  0.91490143305E+02 0.  0.
         23    2    4    4    0    0  0.20313074378E+03  0.45201789082E+03  0.89923479335E+03  0.10307096044E+04  0.90315017870E+02 0.  0.
          4    1    3    3  502    0 -0.10671650073E+02 -0.14738523086E+02 -0.94005130175E+01  0.20481157756E+02  0.00000000000E+00 0. -1.
         -3    1    3    3    0  502  0.15201184753E+03 -0.30914916688E+03 -0.11195454855E+03  0.36223560029E+03  0.00000000000E+00 0.  1.
         13    1    5    5    0    0 -0.23217871467E+03 -0.12036568227E+03  0.14538973392E+03  0.29922070072E+03  0.00000000000E+00 0. -1.
        -13    1    5    5    0    0 -0.11229222657E+03 -0.77645185770E+01  0.21184722874E+02  0.11453656351E+03  0.00000000000E+00 0.  1.
          3    1    6    6  503    0  0.50234822195E+02  0.82799843233E+02  0.11360778386E+03  0.14928523020E+03  0.00000000000E+00 0. -1.
         -3    1    6    6    0  503  0.15289592158E+03  0.36921804758E+03  0.78562700948E+03  0.88142437425E+03  0.00000000000E+00 0.  1.
<mgrwt>
<rscale>  0 0.15641631E+04</rscale>
<asrwt>0</asrwt>
<pdfrwt beam="1">  1        2 0.21320291E+00 0.15641631E+04</pdfrwt>
<pdfrwt beam="2">  1       -3 0.67902265E-01 0.15641631E+04</pdfrwt>
<totfact> 0.18853324E+01</totfact>
</mgrwt>
</event>
<event>
12    7  0.1572140E-007  0.3310435E+04  0.7818608E-02  0.8160245E-01
         -1   -1    0    0    0  501 -0.00000000000E+00  0.00000000000E+00  0.26808843385E+04  0.26808843385E+04  0.00000000000E+00 0.  1.
          2   -1    0    0  501    0  0.00000000000E+00 -0.00000000000E+00 -0.10219557800E+04  0.10219557800E+04  0.00000000000E+00 0. -1.
         24    2    1    2    0    0 -0.91524476843E+03  0.10951432565E+04  0.14976410618E+03  0.14372222609E+04  0.78528982896E+02 0.  0.
        254    2    1    2    0    0  0.91524476843E+03 -0.10951432565E+04  0.15091644523E+04  0.22656178577E+04  0.90467408184E+03 0.  0.
         23    2    4    4    0    0  0.34539246683E+03  0.36392026523E+02  0.10934828750E+03  0.37551839701E+03  0.91851416841E+02 0.  0.
         23    2    4    4    0    0  0.56985230160E+03 -0.11315352830E+04  0.13998161648E+04  0.18900994607E+04  0.88808408628E+02 0.  0.
          4    1    3    3  502    0 -0.80530212464E+03  0.99432041294E+03  0.14782958640E+03  0.12880365609E+04  0.00000000000E+00 0. -1.
         -3    1    3    3    0  502 -0.10994264379E+03  0.10082284358E+03  0.19345197755E+01  0.14918569998E+03  0.00000000000E+00 0.  1.
         13    1    5    5    0    0  0.48491240167E+02 -0.53326782726E+01 -0.14849443465E+02  0.50993566278E+02  0.00000000000E+00 0. -1.
        -13    1    5    5    0    0  0.29690122666E+03  0.41724704795E+02  0.12419773097E+03  0.32452483073E+03  0.00000000000E+00 0.  1.
          1    1    6    6  503    0  0.12992053238E+03 -0.22364221273E+03  0.33538674344E+03  0.42353211416E+03  0.00000000000E+00 0. -1.
         -1    1    6    6    0  503  0.43993176923E+03 -0.90789307032E+03  0.10644294214E+04  0.14665673465E+04  0.00000000000E+00 0.  1.
<mgrwt>
<rscale>  0 0.33104352E+04</rscale>
<asrwt>0</asrwt>
<pdfrwt beam="1">  1        2 0.15722397E+00 0.33104352E+04</pdfrwt>
<pdfrwt beam="2">  1       -1 0.41244374E+00 0.33104352E+04</pdfrwt>
<totfact> 0.13616487E-01</totfact>
</mgrwt>
</event>
<event>
12    7  0.1572140E-007  0.1211389E+04  0.7818608E-02  0.9102946E-01
         -1   -1    0    0    0  501 -0.00000000000E+00  0.00000000000E+00  0.22892976752E+03  0.22892976752E+03  0.00000000000E+00 0.  1.
          2   -1    0    0  501    0  0.00000000000E+00 -0.00000000000E+00 -0.16025255037E+04  0.16025255037E+04  0.00000000000E+00 0. -1.
         24    2    1    2    0    0 -0.21806169427E+03  0.57665032395E+02 -0.11206877529E+03  0.26430667437E+03  0.80140185021E+02 0.  0.
        254    2    1    2    0    0  0.21806169427E+03 -0.57665032395E+02 -0.12615269609E+04  0.15671485969E+04  0.90201346616E+03 0.  0.
         23    2    4    4    0    0  0.42871702165E+03 -0.33586998967E+03 -0.62615658752E+03  0.83491751362E+03  0.91696498535E+02 0.  0.
         23    2    4    4    0    0 -0.21065532738E+03  0.27820495728E+03 -0.63537037341E+03  0.73223108328E+03  0.10340784642E+03 0.  0.
          4    1    3    3  502    0 -0.24419713050E+02 -0.18730898474E+02 -0.92792396207E+01  0.32144567675E+02  0.00000000000E+00 0. -1.
         -3    1    3    3    0  502 -0.19364198122E+03  0.76395930870E+02 -0.10278953567E+03  0.23216210670E+03  0.00000000000E+00 0.  1.
         13    1    5    5    0    0  0.36378158911E+03 -0.32181871137E+03 -0.55688544731E+03  0.73893553778E+03  0.00000000000E+00 0. -1.
        -13    1    5    5    0    0  0.64935432541E+02 -0.14051278300E+02 -0.69271140203E+02  0.95981975840E+02  0.00000000000E+00 0.  1.
          1    1    6    6  503    0 -0.22126916230E+03  0.25334547982E+03 -0.57657412994E+03  0.66751906463E+03  0.00000000000E+00 0. -1.
         -1    1    6    6    0  503  0.10613834917E+02  0.24859477454E+02 -0.58796243471E+02  0.64712018646E+02  0.00000000000E+00 0.  1.
<mgrwt>
<rscale>  0 0.12113889E+04</rscale>
<asrwt>0</asrwt>
<pdfrwt beam="1">  1        2 0.24654238E+00 0.12113889E+04</pdfrwt>
<pdfrwt beam="2">  1       -1 0.35219965E-01 0.12113889E+04</pdfrwt>
<totfact> 0.95782587E+01</totfact>
</mgrwt>
</event>
<event>
12    7  0.1572140E-007  0.3775631E+04  0.7818608E-02  0.8051405E-01
         -1   -1    0    0    0  501 -0.00000000000E+00  0.00000000000E+00  0.16978412620E+04  0.16978412620E+04  0.00000000000E+00 0.  1.
          2   -1    0    0  501    0  0.00000000000E+00 -0.00000000000E+00 -0.20990460971E+04  0.20990460971E+04  0.00000000000E+00 0. -1.
         24    2    1    2    0    0  0.15062308569E+04  0.28174371229E+03  0.72058159760E+03  0.16951788366E+04  0.79262446391E+02 0.  0.
        254    2    1    2    0    0 -0.15062308569E+04 -0.28174371229E+03 -0.11217864326E+04  0.21017085225E+04  0.90036825762E+03 0.  0.
         23    2    4    4    0    0 -0.45179809288E+03  0.31559822373E+03 -0.29586104755E+03  0.63219315225E+03  0.91709687295E+02 0.  0.
         23    2    4    4    0    0 -0.10544327641E+04 -0.59734193601E+03 -0.82592538507E+03  0.14695153703E+04  0.93149553163E+02 0.  0.
          2    1    3    3  502    0  0.10522433090E+04  0.20217284823E+03  0.54321870964E+03  0.12013227744E+04  0.00000000000E+00 0. -1.
         -1    1    3    3    0  502  0.45398754794E+03  0.79570864064E+02  0.17736288796E+03  0.49385606215E+03  0.00000000000E+00 0.  1.
         13    1    5    5    0    0 -0.42862893204E+03  0.27874465253E+03 -0.29122364360E+03  0.58841528981E+03  0.00000000000E+00 0.  1.
        -13    1    5    5    0    0 -0.23169160840E+02  0.36853571195E+02 -0.46374039496E+01  0.43777862434E+02  0.00000000000E+00 0. -1.
          4    1    6    6  503    0 -0.73506508502E+03 -0.38863294809E+03 -0.60890508877E+03  0.10305928656E+04  0.00000000000E+00 0. -1.
         -4    1    6    6    0  503 -0.31936767905E+03 -0.20870898793E+03 -0.21702029630E+03  0.43892250463E+03  0.00000000000E+00 0.  1.
<mgrwt>
<rscale>  0 0.37756308E+04</rscale>
<asrwt>0</asrwt>
<pdfrwt beam="1">  1        2 0.32293017E+00 0.37756308E+04</pdfrwt>
<pdfrwt beam="2">  1       -1 0.26120635E+00 0.37756308E+04</pdfrwt>
<totfact> 0.31679372E-01</totfact>
</mgrwt>
</event>
<event>
12    7  0.1572140E-007  0.1885857E+04  0.7818608E-02  0.8661929E-01
         -1   -1    0    0    0  501 -0.00000000000E+00  0.00000000000E+00  0.73506854761E+03  0.73506854761E+03  0.00000000000E+00 0.  1.
          2   -1    0    0  501    0  0.00000000000E+00 -0.00000000000E+00 -0.12095659617E+04  0.12095659617E+04  0.00000000000E+00 0. -1.
         24    2    1    2    0    0  0.35601963016E+03 -0.61522251584E+03 -0.12583505215E+03  0.72641276673E+03  0.81193141675E+02 0.  0.
        254    2    1    2    0    0 -0.35601963016E+03  0.61522251584E+03 -0.34866236196E+03  0.12182217426E+04  0.92587798895E+03 0.  0.
         23    2    4    4    0    0 -0.60391593960E+03  0.65878744079E+03 -0.29725816287E+03  0.94632094810E+03  0.91899766995E+02 0.  0.
         23    2    4    4    0    0  0.24789630944E+03 -0.43564924947E+02 -0.51404199087E+02  0.27190079450E+03  0.89090782050E+02 0.  0.
          2    1    3    3  502    0  0.76970116089E+01 -0.44692343923E+02 -0.20263648494E+02  0.49671571782E+02  0.00000000000E+00 0. -1.
         -1    1    3    3    0  502  0.34832261855E+03 -0.57053017192E+03 -0.10557140366E+03  0.67674119495E+03  0.00000000000E+00 0.  1.
         13    1    5    5    0    0 -0.41405305275E+03  0.41264942555E+03 -0.15697929543E+03  0.60527843023E+03  0.00000000000E+00 0. -1.
        -13    1    5    5    0    0 -0.18986288684E+03  0.24613801524E+03 -0.14027886744E+03  0.34104251787E+03  0.00000000000E+00 0.  1.
          1    1    6    6  503    0  0.16081475718E+03 -0.75436203607E+01 -0.70494207802E+02  0.17574904173E+03  0.00000000000E+00 0. -1.
         -1    1    6    6    0  503  0.87081552256E+02 -0.36021304587E+02  0.19090008715E+02  0.96151752767E+02  0.00000000000E+00 0.  1.
<mgrwt>
<rscale>  0 0.18858567E+04</rscale>
<asrwt>0</asrwt>
<pdfrwt beam="1">  1        2 0.18608707E+00 0.18858567E+04</pdfrwt>
<pdfrwt beam="2">  1       -1 0.11308747E+00 0.18858567E+04</pdfrwt>
<totfact> 0.14281101E+01</totfact>
</mgrwt>
</event>
<event>
12    7  0.1572140E-007  0.3300708E+04  0.7818608E-02  0.8162715E-01
          2   -1    0    0  501    0  0.00000000000E+00  0.00000000000E+00  0.37536645259E+04  0.37536645259E+04  0.00000000000E+00 0. -1.
         -1   -1    0    0    0  501 -0.00000000000E+00 -0.00000000000E+00 -0.72560268098E+03  0.72560268098E+03  0.00000000000E+00 0.  1.
         24    2    1    2    0    0 -0.12533550192E+04 -0.28338762974E+03  0.25256056089E+04  0.28348595024E+04  0.80853903758E+02 0.  0.
        254    2    1    2    0    0  0.12533550192E+04  0.28338762974E+03  0.50245623599E+03  0.16444077044E+04  0.89465472471E+03 0.  0.
         23    2    4    4    0    0  0.56814637647E+03  0.56278580275E+03  0.37490743547E+03  0.88791190306E+03  0.91180028256E+02 0.  0.
         23    2    4    4    0    0  0.68520864276E+03 -0.27939817301E+03  0.12754880052E+03  0.75649580138E+03  0.91885677923E+02 0.  0.
          4    1    3    3  502    0 -0.16784852474E+03 -0.63060528272E+02  0.32298693196E+03  0.36941888921E+03  0.00000000000E+00 0. -1.
         -3    1    3    3    0  502 -0.10855064945E+04 -0.22032710147E+03  0.22026186769E+04  0.24654406132E+04  0.00000000000E+00 0.  1.
         13    1    5    5    0    0  0.36856768042E+03  0.41398434375E+03  0.23207992705E+03  0.60090453855E+03  0.00000000000E+00 0. -1.
        -13    1    5    5    0    0  0.19957869605E+03  0.14880145901E+03  0.14282750842E+03  0.28700736451E+03  0.00000000000E+00 0.  1.
          3    1    6    6  503    0  0.52795480250E+03 -0.19501615175E+03  0.13153935971E+03  0.57798804147E+03  0.00000000000E+00 0. -1.
         -3    1    6    6    0  503  0.15725384025E+03 -0.84382021264E+02 -0.39905591928E+01  0.17850775991E+03  0.00000000000E+00 0.  1.
<mgrwt>
<rscale>  0 0.33007084E+04</rscale>
<asrwt>0</asrwt>
<pdfrwt beam="1">  1        2 0.57748684E+00 0.33007084E+04</pdfrwt>
<pdfrwt beam="2">  1       -1 0.11163118E+00 0.33007084E+04</pdfrwt>
<totfact> 0.37136544E-01</totfact>
</mgrwt>
</event>
<event>
12    7  0.1572140E-007  0.1640825E+04  0.7818608E-02  0.8795853E-01
         -1   -1    0    0    0  501 -0.00000000000E+00  0.00000000000E+00  0.20035608204E+03  0.20035608204E+03  0.00000000000E+00 0.  1.
          2   -1    0    0  501    0  0.00000000000E+00 -0.00000000000E+00 -0.33594040235E+04  0.33594040235E+04  0.00000000000E+00 0. -1.
         24    2    1    2    0    0 -0.66275463824E+02  0.23754258873E+03  0.35559995229E+01  0.26156036454E+03  0.87076176984E+02 0.  0.
        254    2    1    2    0    0  0.66275463824E+02 -0.23754258873E+03 -0.31626039409E+04  0.32981997410E+04  0.90290582314E+03 0.  0.
         23    2    4    4    0    0 -0.10188983323E+03  0.29222507074E+03 -0.69122365735E+03  0.76349364511E+03  0.96723169724E+02 0.  0.
         23    2    4    4    0    0  0.16816529705E+03 -0.52976765947E+03 -0.24713802836E+04  0.25347060959E+04  0.89895194947E+02 0.  0.
          4    1    3    3  502    0  0.10872658634E+02  0.61539838751E+02  0.26788195715E+02  0.67992454647E+02  0.00000000000E+00 0. -1.
         -3    1    3    3    0  502 -0.77148122458E+02  0.17600274998E+03 -0.23232196192E+02  0.19356790989E+03  0.00000000000E+00 0.  1.
         13    1    5    5    0    0 -0.11187061018E+03  0.18356384281E+03 -0.46956826274E+03  0.51643496317E+03  0.00000000000E+00 0. -1.
        -13    1    5    5    0    0  0.99807769552E+01  0.10866122793E+03 -0.22165539461E+03  0.24705868194E+03  0.00000000000E+00 0.  1.
          1    1    6    6  503    0  0.11725131371E+03 -0.30789974476E+03 -0.16373474340E+04  0.16701666812E+04  0.00000000000E+00 0. -1.
         -1    1    6    6    0  503  0.50913983339E+02 -0.22186791471E+03 -0.83403284961E+03  0.86453941466E+03  0.00000000000E+00 0.  1.
<mgrwt>
<rscale>  0 0.16408254E+04</rscale>
<asrwt>0</asrwt>
<pdfrwt beam="1">  1        2 0.51683135E+00 0.16408254E+04</pdfrwt>
<pdfrwt beam="2">  1       -1 0.30824015E-01 0.16408254E+04</pdfrwt>
<totfact> 0.10858296E+01</totfact>
</mgrwt>
</event>
<event>
12    7  0.1572140E-007  0.1913271E+04  0.7818608E-02  0.8648279E-01
          2   -1    0    0  501    0  0.00000000000E+00  0.00000000000E+00  0.61180159068E+03  0.61180159068E+03  0.00000000000E+00 0. -1.
         -1   -1    0    0    0  501 -0.00000000000E+00 -0.00000000000E+00 -0.14958300462E+04  0.14958300462E+04  0.00000000000E+00 0.  1.
         24    2    1    2    0    0  0.14883942419E+03 -0.35302115335E+03 -0.10587528278E+04  0.11286998333E+04  0.78921824847E+02 0.  0.
        254    2    1    2    0    0 -0.14883942419E+03  0.35302115335E+03  0.17472437226E+03  0.97893180358E+03  0.88374304008E+03 0.  0.
         23    2    4    4    0    0 -0.20633891282E+03  0.62708012206E+03  0.14585240033E+03  0.68165418726E+03  0.87030350461E+02 0.  0.
         23    2    4    4    0    0  0.57499488628E+02 -0.27405896871E+03  0.28871971940E+02  0.29727761632E+03  0.95529476486E+02 0.  0.
          2    1    3    3  502    0  0.95030200682E+02 -0.15968571977E+03 -0.59622335675E+03  0.62450985523E+03  0.00000000000E+00 0. -1.
         -1    1    3    3    0  502  0.53809223509E+02 -0.19333543358E+03 -0.46252947103E+03  0.50418997807E+03  0.00000000000E+00 0.  1.
         13    1    5    5    0    0 -0.19622468554E+03  0.59444657329E+03  0.11678342469E+03  0.63679606154E+03  0.00000000000E+00 0.  1.
        -13    1    5    5    0    0 -0.10114227284E+02  0.32633548773E+02  0.29068975631E+02  0.44858125722E+02  0.00000000000E+00 0. -1.
          3    1    6    6  503    0 -0.25422138191E+02 -0.38875512707E+02  0.64983943373E+01  0.46902235846E+02  0.00000000000E+00 0. -1.
         -3    1    6    6    0  503  0.82921626819E+02 -0.23518345601E+03  0.22373577602E+02  0.25037538048E+03  0.00000000000E+00 0.  1.
<mgrwt>
<rscale>  0 0.19132707E+04</rscale>
<asrwt>0</asrwt>
<pdfrwt beam="1">  1        2 0.94123322E-01 0.19132707E+04</pdfrwt>
<pdfrwt beam="2">  1       -1 0.23012770E+00 0.19132707E+04</pdfrwt>
<totfact> 0.48749075E+00</totfact>
</mgrwt>
</event>
<event>
12    7  0.1572140E-007  0.1647797E+04  0.7818608E-02  0.8791711E-01
         -1   -1    0    0    0  501 -0.00000000000E+00  0.00000000000E+00  0.51931922154E+03  0.51931922154E+03  0.00000000000E+00 0.  1.
          2   -1    0    0  501    0  0.00000000000E+00 -0.00000000000E+00 -0.13071128469E+04  0.13071128469E+04  0.00000000000E+00 0. -1.
         24    2    1    2    0    0  0.11154939578E+02  0.57767018631E+03 -0.24214791407E+03  0.63135203711E+03  0.78374138861E+02 0.  0.
        254    2    1    2    0    0 -0.11154939578E+02 -0.57767018631E+03 -0.54564571127E+03  0.11950800313E+04  0.89255798814E+03 0.  0.
         23    2    4    4    0    0 -0.15429483674E+03 -0.30683507291E+02  0.19076688294E+03  0.26217278641E+03  0.87144661591E+02 0.  0.
         23    2    4    4    0    0  0.14313989716E+03 -0.54698667902E+03 -0.73641259421E+03  0.93290724490E+03  0.91263144254E+02 0.  0.
          2    1    3    3  502    0 -0.11187503104E+02  0.32837742764E+02  0.55627763849E-01  0.34691218918E+02  0.00000000000E+00 0. -1.
         -1    1    3    3    0  502  0.22342442682E+02  0.54483244354E+03 -0.24220354184E+03  0.59666081819E+03  0.00000000000E+00 0.  1.
         13    1    5    5    0    0 -0.33810110755E+02  0.29731458110E+02  0.45578413117E+02  0.64066176200E+02  0.00000000000E+00 0.  1.
        -13    1    5    5    0    0 -0.12048472598E+03 -0.60414965401E+02  0.14518846982E+03  0.19810661021E+03  0.00000000000E+00 0. -1.
          1    1    6    6  503    0  0.12206961513E+03 -0.30124898518E+03 -0.39064784555E+03  0.50819059539E+03  0.00000000000E+00 0. -1.
         -1    1    6    6    0  503  0.21070282029E+02 -0.24573769384E+03 -0.34576474866E+03  0.42471664951E+03  0.00000000000E+00 0.  1.
<mgrwt>
<rscale>  0 0.16477971E+04</rscale>
<asrwt>0</asrwt>
<pdfrwt beam="1">  1        2 0.20109428E+00 0.16477971E+04</pdfrwt>
<pdfrwt beam="2">  1       -1 0.79895266E-01 0.16477971E+04</pdfrwt>
<totfact> 0.27898740E+01</totfact>
</mgrwt>
</event>
<event>
12    7  0.1572140E-007  0.1437690E+04  0.7818608E-02  0.8926980E-01
         -1   -1    0    0    0  501 -0.00000000000E+00  0.00000000000E+00  0.20461852025E+03  0.20461852025E+03  0.00000000000E+00 0.  1.
          2   -1    0    0  501    0  0.00000000000E+00 -0.00000000000E+00 -0.25253728865E+04  0.25253728865E+04  0.00000000000E+00 0. -1.
         24    2    1    2    0    0 -0.92505296231E+02  0.19548112032E+03 -0.14277866575E+04  0.14463314784E+04  0.80807844395E+02 0.  0.
        254    2    1    2    0    0  0.92505296231E+02 -0.19548112032E+03 -0.89296770876E+03  0.12836599284E+04  0.89644932075E+03 0.  0.
         23    2    4    4    0    0 -0.85998903139E+02  0.82887303984E+02 -0.92583001477E+03  0.93808942635E+03  0.92652248075E+02 0.  0.
         23    2    4    4    0    0  0.17850419937E+03 -0.27836842431E+03  0.32862306008E+02  0.34557050206E+03  0.94796159686E+02 0.  0.
          2    1    3    3  502    0 -0.53900019307E+02  0.97389165061E+02 -0.48186415254E+03  0.49455325604E+03  0.00000000000E+00 0. -1.
         -1    1    3    3    0  502 -0.38605276925E+02  0.98091955263E+02 -0.94592250498E+03  0.95177822235E+03  0.00000000000E+00 0.  1.
         13    1    5    5    0    0  0.18671423386E+02  0.93770981020E+01 -0.19871650746E+03  0.19981191746E+03  0.00000000000E+00 0. -1.
        -13    1    5    5    0    0 -0.10467032652E+03  0.73510205882E+02 -0.72711350731E+03  0.73827750889E+03  0.00000000000E+00 0.  1.
          1    1    6    6  503    0  0.49232641523E+02 -0.21255672495E+02  0.20858318707E+02  0.57538909129E+02  0.00000000000E+00 0. -1.
         -1    1    6    6    0  503  0.12927155785E+03 -0.25711275181E+03  0.12003987301E+02  0.28803159293E+03  0.00000000000E+00 0.  1.
<mgrwt>
<rscale>  0 0.14376899E+04</rscale>
<asrwt>0</asrwt>
<pdfrwt beam="1">  1        2 0.38851889E+00 0.14376899E+04</pdfrwt>
<pdfrwt beam="2">  1       -1 0.31479773E-01 0.14376899E+04</pdfrwt>
<totfact> 0.34989702E+01</totfact>
</mgrwt>
</event>
<event>
12    7  0.1572140E-007  0.2212491E+04  0.7818608E-02  0.8513247E-01
         -1   -1    0    0    0  501 -0.00000000000E+00  0.00000000000E+00  0.14759404941E+04  0.14759404941E+04  0.00000000000E+00 0.  1.
          2   -1    0    0  501    0  0.00000000000E+00 -0.00000000000E+00 -0.82915189684E+03  0.82915189684E+03  0.00000000000E+00 0. -1.
         24    2    1    2    0    0  0.11561930848E+02  0.61396847586E+03  0.98431662658E+03  0.11632235352E+04  0.84373003879E+02 0.  0.
        254    2    1    2    0    0 -0.11561930848E+02 -0.61396847586E+03 -0.33752802932E+03  0.11418688558E+04  0.90158102555E+03 0.  0.
         23    2    4    4    0    0 -0.36753849762E+03 -0.58048514068E+03 -0.34202594980E+03  0.77304040546E+03  0.92532007241E+02 0.  0.
         23    2    4    4    0    0  0.35597656677E+03 -0.33483335179E+02  0.44979204731E+01  0.36882845032E+03  0.90408764235E+02 0.  0.
          4    1    3    3  502    0 -0.69784537108E+01  0.33242793810E+01  0.22438492055E+02  0.23732584673E+02  0.00000000000E+00 0. -1.
         -3    1    3    3    0  502  0.18540384559E+02  0.61064419648E+03  0.96187813453E+03  0.11394909505E+04  0.00000000000E+00 0.  1.
         13    1    5    5    0    0 -0.21065760840E+03 -0.32373317376E+03 -0.14096395428E+03  0.41115767313E+03  0.00000000000E+00 0. -1.
        -13    1    5    5    0    0 -0.15688088922E+03 -0.25675196691E+03 -0.20106199551E+03  0.36188273233E+03  0.00000000000E+00 0.  1.
          2    1    6    6  503    0  0.13306720484E+02 -0.36042206599E+01  0.20250618669E+02  0.24497893237E+02  0.00000000000E+00 0.  1.
         -2    1    6    6    0  503  0.34266984629E+03 -0.29879114519E+02 -0.15752698196E+02  0.34433055708E+03  0.00000000000E+00 0. -1.
<mgrwt>
<rscale>  0 0.22124908E+04</rscale>
<asrwt>0</asrwt>
<pdfrwt beam="1">  1        2 0.12756183E+00 0.22124908E+04</pdfrwt>
<pdfrwt beam="2">  1       -1 0.22706777E+00 0.22124908E+04</pdfrwt>
<totfact> 0.33759351E+00</totfact>
</mgrwt>
</event>
<event>
12    7  0.1572140E-007  0.3219962E+04  0.7818608E-02  0.8183565E-01
         -1   -1    0    0    0  501 -0.00000000000E+00  0.00000000000E+00  0.96772493515E+03  0.96772493515E+03  0.00000000000E+00 0.  1.
          2   -1    0    0  501    0  0.00000000000E+00 -0.00000000000E+00 -0.26784877518E+04  0.26784877518E+04  0.00000000000E+00 0. -1.
         24    2    1    2    0    0 -0.46403563803E+03  0.65570691824E+03  0.61981016266E+03  0.10178127841E+04  0.80607628206E+02 0.  0.
        254    2    1    2    0    0  0.46403563803E+03 -0.65570691824E+03 -0.23305729793E+04  0.26283999028E+04  0.91194024006E+03 0.  0.
         23    2    4    4    0    0  0.24212506209E+03 -0.76647326211E+03 -0.21770889514E+04  0.23228368539E+04  0.98736720950E+02 0.  0.
         23    2    4    4    0    0  0.22191057594E+03  0.11076634386E+03 -0.15348402785E+03  0.30556304895E+03  0.91093048214E+02 0.  0.
          4    1    3    3  502    0 -0.11259598527E+02  0.38651307763E+02  0.46748773244E+02  0.61694002550E+02  0.00000000000E+00 0. -1.
         -3    1    3    3    0  502 -0.45277603950E+03  0.61705561048E+03  0.57306138941E+03  0.95611878154E+03  0.00000000000E+00 0.  1.
         13    1    5    5    0    0  0.94807477211E+02 -0.28316330676E+03 -0.67670233321E+03  0.73965935660E+03  0.00000000000E+00 0. -1.
        -13    1    5    5    0    0  0.14731758488E+03 -0.48330995535E+03 -0.15003866182E+04  0.15831774973E+04  0.00000000000E+00 0.  1.
          3    1    6    6  503    0  0.12042408771E+03  0.10933535084E+03 -0.91118782392E+02  0.18643715389E+03  0.00000000000E+00 0. -1.
         -3    1    6    6    0  503  0.10148648823E+03  0.14309930208E+01 -0.62365245454E+02  0.11912589506E+03  0.00000000000E+00 0.  1.
<mgrwt>
<rscale>  0 0.32199624E+04</rscale>
<asrwt>0</asrwt>
<pdfrwt beam="1">  1        2 0.41207503E+00 0.32199624E+04</pdfrwt>
<pdfrwt beam="2">  1       -1 0.14888076E+00 0.32199624E+04</pdfrwt>
<totfact> 0.92970786E-01</totfact>
</mgrwt>
</event>
<event>
12    7  0.1572140E-007  0.1761824E+04  0.7818608E-02  0.8726869E-01
         -1   -1    0    0    0  501 -0.00000000000E+00  0.00000000000E+00  0.28505732227E+03  0.28505732227E+03  0.00000000000E+00 0.  1.
          2   -1    0    0  501    0  0.00000000000E+00 -0.00000000000E+00 -0.27222794620E+04  0.27222794620E+04  0.00000000000E+00 0. -1.
         24    2    1    2    0    0 -0.56938662868E+03 -0.19904680496E+03 -0.51375906635E+03  0.79648462848E+03  0.81354911777E+02 0.  0.
        254    2    1    2    0    0  0.56938662868E+03  0.19904680496E+03 -0.19234630733E+04  0.22108521558E+04  0.90792967602E+03 0.  0.
         23    2    4    4    0    0  0.70882399410E+03  0.21485641642E+02 -0.85175288751E+03  0.11119012728E+04  0.89153640555E+02 0.  0.
         23    2    4    4    0    0 -0.13943736542E+03  0.17756116332E+03 -0.10717101858E+04  0.10989508830E+04  0.90330366822E+02 0.  0.
          4    1    3    3  502    0 -0.30911877967E+03 -0.12603593710E+03 -0.23542748784E+03  0.40849183519E+03  0.00000000000E+00 0. -1.
         -3    1    3    3    0  502 -0.26026784901E+03 -0.73010867862E+02 -0.27833157850E+03  0.38799279330E+03  0.00000000000E+00 0.  1.
         13    1    5    5    0    0  0.25733380730E+03  0.29861943349E+02 -0.25454062736E+03  0.36318501486E+03  0.00000000000E+00 0. -1.
        -13    1    5    5    0    0  0.45149018680E+03 -0.83763017076E+01 -0.59721226015E+03  0.74871625793E+03  0.00000000000E+00 0.  1.
          4    1    6    6  503    0 -0.22201411937E+02  0.10037556525E+03 -0.45070941130E+03  0.46228468526E+03  0.00000000000E+00 0. -1.
         -4    1    6    6    0  503 -0.11723595348E+03  0.77185598074E+02 -0.62100077453E+03  0.63666619771E+03  0.00000000000E+00 0.  1.
<mgrwt>
<rscale>  0 0.17618237E+04</rscale>
<asrwt>0</asrwt>
<pdfrwt beam="1">  1        2 0.41881223E+00 0.17618237E+04</pdfrwt>
<pdfrwt beam="2">  1       -1 0.43854972E-01 0.17618237E+04</pdfrwt>
<totfact> 0.14303337E+01</totfact>
</mgrwt>
</event>
<event>
12    7  0.1572140E-007  0.1789037E+04  0.7818608E-02  0.8712151E-01
          2   -1    0    0  501    0  0.00000000000E+00  0.00000000000E+00  0.36831280732E+03  0.36831280732E+03  0.00000000000E+00 0. -1.
         -1   -1    0    0    0  501 -0.00000000000E+00 -0.00000000000E+00 -0.21725104640E+04  0.21725104640E+04  0.00000000000E+00 0.  1.
         24    2    1    2    0    0 -0.12143379522E+03 -0.60899205727E+03 -0.96635030195E+03  0.11513883155E+04  0.79023126016E+02 0.  0.
        254    2    1    2    0    0  0.12143379522E+03  0.60899205727E+03 -0.83784735470E+03  0.13894349558E+04  0.91810882485E+03 0.  0.
         23    2    4    4    0    0  0.16580713120E+03 -0.20925532733E+03 -0.25576681643E+03  0.38086208840E+03  0.91430133024E+02 0.  0.
         23    2    4    4    0    0 -0.44373335978E+02  0.81824738460E+03 -0.58208053827E+03  0.10085728674E+04  0.83088510227E+02 0.  0.
          4    1    3    3  502    0 -0.62183389770E+02 -0.15619022530E+03 -0.29268347268E+03  0.33752892561E+03  0.00000000000E+00 0. -1.
         -3    1    3    3    0  502 -0.59250405447E+02 -0.45280183196E+03 -0.67366682927E+03  0.81385938984E+03  0.00000000000E+00 0.  1.
         13    1    5    5    0    0  0.86129343998E+02 -0.12811495374E+03 -0.20422435487E+03  0.25600643037E+03  0.00000000000E+00 0. -1.
        -13    1    5    5    0    0  0.79677787197E+02 -0.81140373585E+02 -0.51542461558E+02  0.12485565803E+03  0.00000000000E+00 0.  1.
          3    1    6    6  503    0 -0.48914766515E+02  0.62004349156E+03 -0.40074018256E+03  0.73989139725E+03  0.00000000000E+00 0. -1.
         -3    1    6    6    0  503  0.45414305369E+01  0.19820389304E+03 -0.18134035571E+03  0.26868147018E+03  0.00000000000E+00 0.  1.
<mgrwt>
<rscale>  0 0.17890371E+04</rscale>
<asrwt>0</asrwt>
<pdfrwt beam="1">  1        2 0.56663508E-01 0.17890371E+04</pdfrwt>
<pdfrwt beam="2">  1       -1 0.33423238E+00 0.17890371E+04</pdfrwt>
<totfact> 0.18661833E+00</totfact>
</mgrwt>
</event>
<event>
12    7  0.1572140E-007  0.1254537E+04  0.7818608E-02  0.9066415E-01
          2   -1    0    0  501    0  0.00000000000E+00  0.00000000000E+00  0.38724440710E+03  0.38724440710E+03  0.00000000000E+00 0. -1.
         -1   -1    0    0    0  501 -0.00000000000E+00 -0.00000000000E+00 -0.10160664651E+04  0.10160664651E+04  0.00000000000E+00 0.  1.
         24    2    1    2    0    0  0.27532885442E+03  0.79795613500E+02 -0.56356045487E+02  0.30277838116E+03  0.79532548208E+02 0.  0.
        254    2    1    2    0    0 -0.27532885442E+03 -0.79795613500E+02 -0.57246601250E+03  0.11005324910E+04  0.89514306697E+03 0.  0.
         23    2    4    4    0    0 -0.53142674484E+03  0.75807299835E+02 -0.13525134350E+03  0.56153437686E+03  0.94163679996E+02 0.  0.
         23    2    4    4    0    0  0.25609789043E+03 -0.15560291334E+03 -0.43721466900E+03  0.53899811417E+03  0.97795215505E+02 0.  0.
          2    1    3    3  502    0  0.23608228005E+03  0.86962468757E+02 -0.69083234301E+02  0.26090191104E+03  0.00000000000E+00 0. -1.
         -1    1    3    3    0  502  0.39246574369E+02 -0.71668552568E+01  0.12727188814E+02  0.41876470113E+02  0.00000000000E+00 0.  1.
         13    1    5    5    0    0 -0.28055219572E+02 -0.10756419489E+02  0.79473193630E+01  0.31079829319E+02  0.00000000000E+00 0. -1.
        -13    1    5    5    0    0 -0.50337152527E+03  0.86563719325E+02 -0.14319866287E+03  0.53045454754E+03  0.00000000000E+00 0.  1.
          3    1    6    6  503    0 -0.78677411786E+00  0.78773417561E+01 -0.25990762728E+01  0.83322700464E+01  0.00000000000E+00 0. -1.
         -3    1    6    6    0  503  0.25688466455E+03 -0.16348025509E+03 -0.43461559272E+03  0.53066584413E+03  0.00000000000E+00 0.  1.
<mgrwt>
<rscale>  0 0.12545375E+04</rscale>
<asrwt>0</asrwt>
<pdfrwt beam="1">  1        2 0.59576062E-01 0.12545375E+04</pdfrwt>
<pdfrwt beam="2">  1       -1 0.15631792E+00 0.12545375E+04</pdfrwt>
<totfact> 0.28939653E+01</totfact>
</mgrwt>
</event>
<event>
12    7  0.1572140E-007  0.1753699E+04  0.7818608E-02  0.8731317E-01
         -1   -1    0    0    0  501 -0.00000000000E+00  0.00000000000E+00  0.28983901049E+03  0.28983901049E+03  0.00000000000E+00 0.  1.
          2   -1    0    0  501    0  0.00000000000E+00 -0.00000000000E+00 -0.26527306580E+04  0.26527306580E+04  0.00000000000E+00 0. -1.
         24    2    1    2    0    0  0.25357914539E+03  0.35169569419E+03 -0.17815719331E+04  0.18359965164E+04  0.94299581638E+02 0.  0.
        254    2    1    2    0    0 -0.25357914539E+03 -0.35169569419E+03 -0.58131971442E+03  0.11065731521E+04  0.83581055647E+03 0.  0.
         23    2    4    4    0    0 -0.22985020603E+03 -0.51002324619E+03 -0.80044492411E+02  0.57263646597E+03  0.92469305830E+02 0.  0.
         23    2    4    4    0    0 -0.23728939361E+02  0.15832755200E+03 -0.50127522201E+03  0.53393668614E+03  0.90448108456E+02 0.  0.
          2    1    3    3  502    0  0.85170698243E+02  0.68098178423E+02 -0.56964291726E+03  0.57998660581E+03  0.00000000000E+00 0. -1.
         -3    1    3    3    0  502  0.16840844715E+03  0.28359751577E+03 -0.12119290158E+04  0.12560099106E+04  0.00000000000E+00 0.  1.
         13    1    5    5    0    0 -0.21824386964E+01 -0.74217532903E+02  0.13108344511E+01  0.74261184450E+02  0.00000000000E+00 0. -1.
        -13    1    5    5    0    0 -0.22766776733E+03 -0.43580571329E+03 -0.81355326863E+02  0.49837528152E+03  0.00000000000E+00 0.  1.
          2    1    6    6  503    0 -0.30331160340E+02  0.26698212588E+02 -0.21521979246E+03  0.21898021123E+03  0.00000000000E+00 0. -1.
         -2    1    6    6    0  503  0.66022209787E+01  0.13162933942E+03 -0.28605542955E+03  0.31495647492E+03  0.00000000000E+00 0.  1.
<mgrwt>
<rscale>  0 0.17536988E+04</rscale>
<asrwt>0</asrwt>
<pdfrwt beam="1">  1        2 0.40811242E+00 0.17536988E+04</pdfrwt>
<pdfrwt beam="2">  1       -1 0.44590615E-01 0.17536988E+04</pdfrwt>
<totfact> 0.15258195E+01</totfact>
</mgrwt>
</event>
<event>
12    7  0.1572140E-007  0.1877675E+04  0.7818608E-02  0.8666050E-01
         -1   -1    0    0    0  501 -0.00000000000E+00  0.00000000000E+00  0.73926969294E+03  0.73926969294E+03  0.00000000000E+00 0.  1.
          2   -1    0    0  501    0  0.00000000000E+00 -0.00000000000E+00 -0.11922787751E+04  0.11922787751E+04  0.00000000000E+00 0. -1.
         24    2    1    2    0    0 -0.39326421437E+03 -0.24844946947E+03  0.38822126353E+03  0.61085935039E+03  0.77778630251E+02 0.  0.
        254    2    1    2    0    0  0.39326421437E+03  0.24844946947E+03 -0.84123034564E+03  0.13206891176E+04  0.90563092360E+03 0.  0.
         23    2    4    4    0    0  0.34735046979E+03 -0.21582714444E+03 -0.88381220576E+02  0.43032166640E+03  0.10065679946E+03 0.  0.
         23    2    4    4    0    0  0.45913744573E+02  0.46427661391E+03 -0.75284912507E+03  0.89036745121E+03  0.91167685630E+02 0.  0.
          4    1    3    3  502    0 -0.18244249461E+03 -0.10001292593E+03  0.12664906399E+03  0.24357305804E+03  0.00000000000E+00 0. -1.
         -3    1    3    3    0  502 -0.21082171976E+03 -0.14843654354E+03  0.26157219954E+03  0.36728629235E+03  0.00000000000E+00 0.  1.
         13    1    5    5    0    0  0.11693837768E+02 -0.89490306101E+01  0.16705375740E+02  0.22268825053E+02  0.00000000000E+00 0. -1.
        -13    1    5    5    0    0  0.33565663202E+03 -0.20687811383E+03 -0.10508659632E+03  0.40805284135E+03  0.00000000000E+00 0.  1.
          3    1    6    6  503    0 -0.81215919804E+01  0.46544246883E+02 -0.13127138499E+03  0.13951524537E+03  0.00000000000E+00 0. -1.
         -3    1    6    6    0  503  0.54035336553E+02  0.41773236703E+03 -0.62157774008E+03  0.75085220584E+03  0.00000000000E+00 0.  1.
<mgrwt>
<rscale>  0 0.18776747E+04</rscale>
<asrwt>0</asrwt>
<pdfrwt beam="1">  1        2 0.18342750E+00 0.18776747E+04</pdfrwt>
<pdfrwt beam="2">  1       -1 0.11373380E+00 0.18776747E+04</pdfrwt>
<totfact> 0.14437524E+01</totfact>
</mgrwt>
</event>
<event>
12    7  0.1572140E-007  0.2320828E+04  0.7818608E-02  0.8469754E-01
         -1   -1    0    0    0  501 -0.00000000000E+00  0.00000000000E+00  0.81544195589E+03  0.81544195589E+03  0.00000000000E+00 0.  1.
          2   -1    0    0  501    0  0.00000000000E+00 -0.00000000000E+00 -0.16513262059E+04  0.16513262059E+04  0.00000000000E+00 0. -1.
         24    2    1    2    0    0 -0.12360286343E+03  0.36883188632E+02  0.68169239606E+03  0.69917541049E+03  0.86623866987E+02 0.  0.
        254    2    1    2    0    0  0.12360286343E+03 -0.36883188632E+02 -0.15175766461E+04  0.17675927513E+04  0.89705474764E+03 0.  0.
         23    2    4    4    0    0  0.27419259889E+03  0.25997074858E+03 -0.26822554427E+03  0.47121198662E+03  0.85612045485E+02 0.  0.
         23    2    4    4    0    0 -0.15058973547E+03 -0.29685393721E+03 -0.12493511018E+04  0.12963807647E+04  0.94474244975E+02 0.  0.
          4    1    3    3  502    0 -0.33599580265E+02  0.12050561567E+02  0.55011114876E+02  0.65577210889E+02  0.00000000000E+00 0. -1.
         -3    1    3    3    0  502 -0.90003283162E+02  0.24832627065E+02  0.62668128119E+03  0.63359819960E+03  0.00000000000E+00 0.  1.
         13    1    5    5    0    0  0.60321963539E+02  0.16314097345E+02 -0.54325262169E+02  0.82801709928E+02  0.00000000000E+00 0.  1.
        -13    1    5    5    0    0  0.21387063535E+03  0.24365665124E+03 -0.21390028210E+03  0.38841027669E+03  0.00000000000E+00 0. -1.
          3    1    6    6  503    0 -0.15453012809E+02 -0.13148726953E+03 -0.48991791997E+03  0.50749114865E+03  0.00000000000E+00 0. -1.
         -3    1    6    6    0  503 -0.13513672266E+03 -0.16536666769E+03 -0.75943318183E+03  0.78888961601E+03  0.00000000000E+00 0.  1.
<mgrwt>
<rscale>  0 0.23208280E+04</rscale>
<asrwt>0</asrwt>
<pdfrwt beam="1">  1        2 0.25405019E+00 0.23208280E+04</pdfrwt>
<pdfrwt beam="2">  1       -1 0.12545261E+00 0.23208280E+04</pdfrwt>
<totfact> 0.59671779E+00</totfact>
</mgrwt>
</event>
<event>
12    7  0.1572140E-007  0.4275197E+04  0.7818608E-02  0.7951220E-01
          2   -1    0    0  501    0  0.00000000000E+00  0.00000000000E+00  0.20926825640E+04  0.20926825640E+04  0.00000000000E+00 0. -1.
         -1   -1    0    0    0  501 -0.00000000000E+00 -0.00000000000E+00 -0.21834783805E+04  0.21834783805E+04  0.00000000000E+00 0.  1.
         24    2    1    2    0    0  0.15258329194E+04 -0.13407281927E+04 -0.27032955609E+03  0.20506666035E+04  0.80232570281E+02 0.  0.
        254    2    1    2    0    0 -0.15258329194E+04  0.13407281927E+04  0.17953373961E+03  0.22254943410E+04  0.89155735294E+03 0.  0.
         23    2    4    4    0    0 -0.90141254241E+03  0.96853197379E+03 -0.28678975689E+03  0.13569677005E+04  0.92272529217E+02 0.  0.
         23    2    4    4    0    0 -0.62442037697E+03  0.37219621890E+03  0.46632349650E+03  0.86852664050E+03  0.91924367464E+02 0.  0.
          2    1    3    3  502    0  0.43594616307E+03 -0.37344988169E+03 -0.11219831693E+03  0.58489514748E+03  0.00000000000E+00 0. -1.
         -1    1    3    3    0  502  0.10898867563E+04 -0.96727831100E+03 -0.15813123917E+03  0.14657714560E+04  0.00000000000E+00 0.  1.
         13    1    5    5    0    0 -0.11322713179E+03  0.12346463626E+03 -0.68292335114E+02  0.18090810599E+03  0.00000000000E+00 0. -1.
        -13    1    5    5    0    0 -0.78818541062E+03  0.84506733754E+03 -0.21849742177E+03  0.11760595945E+04  0.00000000000E+00 0.  1.
          4    1    6    6  503    0 -0.18820187200E+03  0.92509620683E+02  0.90487836459E+02  0.22839882462E+03  0.00000000000E+00 0. -1.
         -4    1    6    6    0  503 -0.43621850497E+03  0.27968659822E+03  0.37583566004E+03  0.64012781588E+03  0.00000000000E+00 0.  1.
<mgrwt>
<rscale>  0 0.42751969E+04</rscale>
<asrwt>0</asrwt>
<pdfrwt beam="1">  1        2 0.32195116E+00 0.42751969E+04</pdfrwt>
<pdfrwt beam="2">  1       -1 0.33591975E+00 0.42751969E+04</pdfrwt>
<totfact> 0.10022034E-01</totfact>
</mgrwt>
</event>
<event>
12    7  0.1572140E-007  0.1846141E+04  0.7818608E-02  0.8682140E-01
         -1   -1    0    0    0  501 -0.00000000000E+00  0.00000000000E+00  0.42205937456E+03  0.42205937456E+03  0.00000000000E+00 0.  1.
          2   -1    0    0  501    0  0.00000000000E+00 -0.00000000000E+00 -0.20188128853E+04  0.20188128853E+04  0.00000000000E+00 0. -1.
         24    2    1    2    0    0 -0.33419202512E+03  0.55232280927E+03 -0.96010871599E+03  0.11597652906E+04  0.80634902698E+02 0.  0.
        254    2    1    2    0    0  0.33419202512E+03 -0.55232280927E+03 -0.63664479470E+03  0.12811069692E+04  0.90508213802E+03 0.  0.
         23    2    4    4    0    0 -0.28387099975E+02  0.15609647713E+03 -0.40861163229E+03  0.44811333437E+03  0.93113676645E+02 0.  0.
         23    2    4    4    0    0  0.36257912510E+03 -0.70841928640E+03 -0.22803316241E+03  0.83299363481E+03  0.92508189773E+02 0.  0.
          4    1    3    3  502    0 -0.33815198577E+03  0.53737252109E+03 -0.94133436828E+03  0.11354410530E+04  0.00000000000E+00 0. -1.
         -3    1    3    3    0  502  0.39599606465E+01  0.14950288179E+02 -0.18774347715E+02  0.24324237646E+02  0.00000000000E+00 0.  1.
         13    1    5    5    0    0  0.82777669398E+01  0.13036868527E+03 -0.23553498475E+03  0.26933481870E+03  0.00000000000E+00 0.  1.
        -13    1    5    5    0    0 -0.36664866915E+02  0.25727791862E+02 -0.17307664754E+03  0.17877851567E+03  0.00000000000E+00 0. -1.
          1    1    6    6  503    0  0.14135779805E+03 -0.26992404664E+03 -0.40984125038E+02  0.30744221657E+03  0.00000000000E+00 0. -1.
         -1    1    6    6    0  503  0.22122132705E+03 -0.43849523976E+03 -0.18704903737E+03  0.52555141824E+03  0.00000000000E+00 0.  1.
<mgrwt>
<rscale>  0 0.18461407E+04</rscale>
<asrwt>0</asrwt>
<pdfrwt beam="1">  1        2 0.31058661E+00 0.18461407E+04</pdfrwt>
<pdfrwt beam="2">  1       -1 0.64932209E-01 0.18461407E+04</pdfrwt>
<totfact> 0.16799017E+01</totfact>
</mgrwt>
</event>
<event>
12    7  0.1572140E-007  0.2296041E+04  0.7818608E-02  0.8479484E-01
          2   -1    0    0  501    0  0.00000000000E+00  0.00000000000E+00  0.11546993488E+04  0.11546993488E+04  0.00000000000E+00 0. -1.
         -1   -1    0    0    0  501 -0.00000000000E+00 -0.00000000000E+00 -0.11413801119E+04  0.11413801119E+04  0.00000000000E+00 0.  1.
         24    2    1    2    0    0 -0.20646410448E+03 -0.41854313471E+03 -0.83210864146E+03  0.95737233762E+03  0.79694539246E+02 0.  0.
        254    2    1    2    0    0  0.20646410448E+03  0.41854313471E+03  0.84542787833E+03  0.13387071231E+04  0.92713681938E+03 0.  0.
         23    2    4    4    0    0 -0.17891349610E+03  0.64299593782E+02 -0.11704436545E+03  0.23930431464E+03  0.86155061812E+02 0.  0.
         23    2    4    4    0    0  0.38537760058E+03  0.35424354093E+03  0.96247224378E+03  0.10994028084E+04  0.91265184127E+02 0.  0.
          2    1    3    3  502    0 -0.17848793633E+02 -0.75188329599E+02 -0.19109329300E+03  0.20612741441E+03  0.00000000000E+00 0. -1.
         -1    1    3    3    0  502 -0.18861531085E+03 -0.34335480511E+03 -0.64101534846E+03  0.75124492321E+03  0.00000000000E+00 0.  1.
         13    1    5    5    0    0 -0.46354929351E+02 -0.16975657523E+02 -0.49069973814E+02  0.69604703531E+02  0.00000000000E+00 0. -1.
        -13    1    5    5    0    0 -0.13255856675E+03  0.81275251305E+02 -0.67974391632E+02  0.16969961111E+03  0.00000000000E+00 0.  1.
          4    1    6    6  503    0  0.69752970445E+02  0.11671424441E+03  0.26453235519E+03  0.29743076283E+03  0.00000000000E+00 0. -1.
         -4    1    6    6    0  503  0.31562463013E+03  0.23752929651E+03  0.69793988858E+03  0.80197204560E+03  0.00000000000E+00 0.  1.
<mgrwt>
<rscale>  0 0.22960408E+04</rscale>
<asrwt>0</asrwt>
<pdfrwt beam="1">  1        2 0.17764605E+00 0.22960408E+04</pdfrwt>
<pdfrwt beam="2">  1       -1 0.17559694E+00 0.22960408E+04</pdfrwt>
<totfact> 0.46698166E+00</totfact>
</mgrwt>
</event>
<event>
12    7  0.1572140E-007  0.1152664E+04  0.7818608E-02  0.9155329E-01
          2   -1    0    0  501    0  0.00000000000E+00  0.00000000000E+00  0.17893555702E+04  0.17893555702E+04  0.00000000000E+00 0. -1.
         -1   -1    0    0    0  501 -0.00000000000E+00 -0.00000000000E+00 -0.18563025573E+03  0.18563025573E+03  0.00000000000E+00 0.  1.
         24    2    1    2    0    0 -0.97194661481E+02 -0.43044314260E+02  0.63035572791E+03  0.64447351450E+03  0.81842238298E+02 0.  0.
        254    2    1    2    0    0  0.97194661481E+02  0.43044314260E+02  0.97336958657E+03  0.13305123114E+04  0.90084129769E+03 0.  0.
         23    2    4    4    0    0 -0.24366840011E+03 -0.30465376481E+03  0.53823600902E+03  0.67125266977E+03  0.93241297957E+02 0.  0.
         23    2    4    4    0    0  0.34086306159E+03  0.34769807907E+03  0.43513357755E+03  0.65925964167E+03  0.90556412647E+02 0.  0.
          4    1    3    3  502    0 -0.70673059076E+02 -0.59027756171E+02  0.33257426097E+03  0.34508636069E+03  0.00000000000E+00 0. -1.
         -3    1    3    3    0  502 -0.26521602405E+02  0.15983441910E+02  0.29778146694E+03  0.29938715380E+03  0.00000000000E+00 0.  1.
         13    1    5    5    0    0 -0.24792875896E+03 -0.28603836738E+03  0.48863566554E+03  0.61810309073E+03  0.00000000000E+00 0.  1.
        -13    1    5    5    0    0  0.42603588490E+01 -0.18615397432E+02  0.49600343479E+02  0.53149579042E+02  0.00000000000E+00 0. -1.
          1    1    6    6  503    0  0.49205981625E+02  0.10261397300E+03  0.87874801984E+02  0.14378051643E+03  0.00000000000E+00 0. -1.
         -1    1    6    6    0  503  0.29165707996E+03  0.24508410608E+03  0.34725877557E+03  0.51547912524E+03  0.00000000000E+00 0.  1.
<mgrwt>
<rscale>  0 0.11526639E+04</rscale>
<asrwt>0</asrwt>
<pdfrwt beam="1">  1        2 0.27528546E+00 0.11526639E+04</pdfrwt>
<pdfrwt beam="2">  1       -1 0.28558502E-01 0.11526639E+04</pdfrwt>
<totfact> 0.10973813E+02</totfact>
</mgrwt>
</event>
<event>
12    7  0.1572140E-007  0.1342214E+04  0.7818608E-02  0.8996743E-01
         -1   -1    0    0    0  501 -0.00000000000E+00  0.00000000000E+00  0.68471910981E+03  0.68471910981E+03  0.00000000000E+00 0.  1.
          2   -1    0    0  501    0  0.00000000000E+00 -0.00000000000E+00 -0.65776542555E+03  0.65776542555E+03  0.00000000000E+00 0. -1.
         24    2    1    2    0    0  0.12433193108E+03  0.32275093935E+03 -0.12533850525E+03  0.37657158396E+03  0.80435185122E+02 0.  0.
        254    2    1    2    0    0 -0.12433193108E+03 -0.32275093935E+03  0.15229218950E+03  0.96591295141E+03  0.88891412452E+03 0.  0.
         23    2    4    4    0    0 -0.18299219058E+03 -0.12027152182E+03  0.49774367854E+03  0.55145176422E+03  0.91645501595E+02 0.  0.
         23    2    4    4    0    0  0.58660259504E+02 -0.20247941753E+03 -0.34545148904E+03  0.41446118718E+03  0.89456155929E+02 0.  0.
          4    1    3    3  502    0  0.35038174689E+02  0.15954364539E+03 -0.92310757944E+02  0.18762495703E+03  0.00000000000E+00 0. -1.
         -3    1    3    3    0  502  0.89293756390E+02  0.16320729396E+03 -0.33027747306E+02  0.18894662692E+03  0.00000000000E+00 0.  1.
         13    1    5    5    0    0 -0.16712770542E+03 -0.85798828724E+02  0.33245739747E+03  0.38186519881E+03  0.00000000000E+00 0. -1.
        -13    1    5    5    0    0 -0.15864485164E+02 -0.34472693098E+02  0.16528628107E+03  0.16958656542E+03  0.00000000000E+00 0.  1.
          2    1    6    6  503    0  0.72924107633E+02 -0.16473099199E+03 -0.22996115906E+03  0.29212387762E+03  0.00000000000E+00 0. -1.
         -2    1    6    6    0  503 -0.14263848129E+02 -0.37748425541E+02 -0.11549032997E+03  0.12233730957E+03  0.00000000000E+00 0.  1.
<mgrwt>
<rscale>  0 0.13422139E+04</rscale>
<asrwt>0</asrwt>
<pdfrwt beam="1">  1        2 0.10119468E+00 0.13422139E+04</pdfrwt>
<pdfrwt beam="2">  1       -1 0.10534140E+00 0.13422139E+04</pdfrwt>
<totfact> 0.41816507E+01</totfact>
</mgrwt>
</event>
<event>
12    7  0.1626788E-007  0.2791888E+04  0.7818608E-02  0.8305791E-01
          2   -1    0    0  501    0  0.00000000000E+00  0.00000000000E+00  0.31331422096E+04  0.31331422096E+04  0.00000000000E+00 0. -1.
         -1   -1    0    0    0  501 -0.00000000000E+00 -0.00000000000E+00 -0.62195050873E+03  0.62195050873E+03  0.00000000000E+00 0.  1.
         24    2    1    2    0    0  0.67407391380E+03 -0.97230151996E+03  0.58843376262E+03  0.13237649809E+04  0.79709124830E+02 0.  0.
        254    2    1    2    0    0 -0.67407391380E+03  0.97230151996E+03  0.19227579383E+04  0.24313277375E+04  0.90255780476E+03 0.  0.
         23    2    4    4    0    0 -0.63180301285E+03  0.14790785501E+03  0.90774869290E+03  0.11194651696E+04  0.90237441455E+02 0.  0.
         23    2    4    4    0    0 -0.42270900948E+02  0.82439366495E+03  0.10150092454E+04  0.13118625679E+04  0.96580976408E+02 0.  0.
          4    1    3    3  502    0  0.33020029138E+03 -0.46769428053E+03  0.24064689148E+03  0.62103228487E+03  0.00000000000E+00 0. -1.
         -3    1    3    3    0  502  0.34387362242E+03 -0.50460723942E+03  0.34778687115E+03  0.70273269599E+03  0.00000000000E+00 0.  1.
         13    1    5    5    0    0 -0.62418892827E+03  0.13362368466E+03  0.87692160084E+03  0.10846467634E+04  0.00000000000E+00 0.  1.
        -13    1    5    5    0    0 -0.76140845824E+01  0.14284170346E+02  0.30827092066E+02  0.34818406221E+02  0.00000000000E+00 0. -1.
          3    1    6    6  503    0 -0.23928834347E+02  0.34922375239E+03  0.35664230581E+03  0.49972347618E+03  0.00000000000E+00 0. -1.
         -3    1    6    6    0  503 -0.18342066601E+02  0.47516991256E+03  0.65836693954E+03  0.81213909171E+03  0.00000000000E+00 0.  1.
<mgrwt>
<rscale>  0 0.27918878E+04</rscale>
<asrwt>0</asrwt>
<pdfrwt beam="1">  1        2 0.48202187E+00 0.27918878E+04</pdfrwt>
<pdfrwt beam="2">  1       -1 0.95684695E-01 0.27918878E+04</pdfrwt>
<totfact> 0.14934666E+00</totfact>
</mgrwt>
</event>
<event>
12    7  0.1572140E-007  0.1415807E+04  0.7818608E-02  0.8942455E-01
          2   -1    0    0  501    0  0.00000000000E+00  0.00000000000E+00  0.34430986587E+04  0.34430986587E+04  0.00000000000E+00 0. -1.
         -1   -1    0    0    0  501 -0.00000000000E+00 -0.00000000000E+00 -0.14554548379E+03  0.14554548379E+03  0.00000000000E+00 0.  1.
         24    2    1    2    0    0  0.10186408215E+03  0.27226332275E+03  0.21657191851E+03  0.36808150240E+03  0.63851298916E+02 0.  0.
        254    2    1    2    0    0 -0.10186408215E+03 -0.27226332275E+03  0.30809812564E+04  0.32205626401E+04  0.89166956233E+03 0.  0.
         23    2    4    4    0    0  0.10870659971E+02 -0.55244083794E+03  0.24687584768E+04  0.25317083702E+04  0.97312918225E+02 0.  0.
         23    2    4    4    0    0 -0.11273474212E+03  0.28017751519E+03  0.61222277954E+03  0.68885426989E+03  0.92167842866E+02 0.  0.
          2    1    3    3  502    0  0.13890607651E+02  0.11820742451E+03  0.70946209617E+02  0.13856157061E+03  0.00000000000E+00 0. -1.
         -1    1    3    3    0  502  0.87973474503E+02  0.15405589824E+03  0.14562570890E+03  0.22951993179E+03  0.00000000000E+00 0.  1.
         13    1    5    5    0    0 -0.11572647815E+02 -0.35548742002E+03  0.13830464172E+04  0.14280485370E+04  0.00000000000E+00 0.  1.
        -13    1    5    5    0    0  0.22443307786E+02 -0.19695341792E+03  0.10857120597E+04  0.11036598332E+04  0.00000000000E+00 0. -1.
          1    1    6    6  503    0 -0.47917881485E+02  0.85391389953E+02  0.11573655549E+03  0.15160066992E+03  0.00000000000E+00 0. -1.
         -1    1    6    6    0  503 -0.64816860640E+02  0.19478612524E+03  0.49648622405E+03  0.53725359997E+03  0.00000000000E+00 0.  1.
<mgrwt>
<rscale>  0 0.14158071E+04</rscale>
<asrwt>0</asrwt>
<pdfrwt beam="1">  1        2 0.52970743E+00 0.14158071E+04</pdfrwt>
<pdfrwt beam="2">  1       -1 0.22391615E-01 0.14158071E+04</pdfrwt>
<totfact> 0.16932817E+01</totfact>
</mgrwt>
</event>
<event>
12    7  0.1572140E-007  0.1163661E+04  0.7818608E-02  0.9145272E-01
          2   -1    0    0  501    0  0.00000000000E+00  0.00000000000E+00  0.12476740871E+04  0.12476740871E+04  0.00000000000E+00 0. -1.
         -1   -1    0    0    0  501 -0.00000000000E+00 -0.00000000000E+00 -0.27132627590E+03  0.27132627590E+03  0.00000000000E+00 0.  1.
         24    2    1    2    0    0  0.12718258971E+03 -0.11249616773E+03  0.10838208978E+02  0.18774062362E+03  0.79361679081E+02 0.  0.
        254    2    1    2    0    0 -0.12718258971E+03  0.11249616773E+03  0.96550960220E+03  0.13312597393E+04  0.90067358282E+03 0.  0.
         23    2    4    4    0    0 -0.25449339634E+03 -0.20253116635E+03  0.91536868888E+03  0.97563623519E+03  0.90445921496E+02 0.  0.
         23    2    4    4    0    0  0.12731080663E+03  0.31502733408E+03  0.50140913323E+02  0.35562350416E+03  0.92215523717E+02 0.  0.
          2    1    3    3  502    0 -0.10372274279E+02 -0.14680233642E+02  0.57650087815E+01  0.18876669721E+02  0.00000000000E+00 0. -1.
         -1    1    3    3    0  502  0.13755486399E+03 -0.97815934087E+02  0.50732001966E+01  0.16886395390E+03  0.00000000000E+00 0.  1.
         13    1    5    5    0    0 -0.18432776473E+03 -0.14173949303E+03  0.52175646144E+03  0.57122378609E+03  0.00000000000E+00 0. -1.
        -13    1    5    5    0    0 -0.70165631614E+02 -0.60791673326E+02  0.39361222743E+03  0.40441244910E+03  0.00000000000E+00 0.  1.
          3    1    6    6  503    0  0.11726671573E+03  0.28747150305E+03  0.72405458286E+02  0.31880071844E+03  0.00000000000E+00 0. -1.
         -3    1    6    6    0  503  0.10044090903E+02  0.27555831029E+02 -0.22264544962E+02  0.36822785720E+02  0.00000000000E+00 0.  1.
<mgrwt>
<rscale>  0 0.11636611E+04</rscale>
<asrwt>0</asrwt>
<pdfrwt beam="1">  1        2 0.19194986E+00 0.11636611E+04</pdfrwt>
<pdfrwt beam="2">  1       -1 0.41742505E-01 0.11636611E+04</pdfrwt>
<totfact> 0.11257435E+02</totfact>
</mgrwt>
</event>
<event>
12    7  0.1572140E-007  0.2800667E+04  0.7818608E-02  0.8303061E-01
          2   -1    0    0  501    0  0.00000000000E+00  0.00000000000E+00  0.37711945240E+04  0.37711945240E+04  0.00000000000E+00 0. -1.
         -1   -1    0    0    0  501 -0.00000000000E+00 -0.00000000000E+00 -0.51997701992E+03  0.51997701992E+03  0.00000000000E+00 0.  1.
         24    2    1    2    0    0  0.10269090471E+04 -0.48689719841E+03  0.64176140805E+03  0.13075572707E+04  0.78976189478E+02 0.  0.
        254    2    1    2    0    0 -0.10269090471E+04  0.48689719841E+03  0.26094560960E+04  0.29836142731E+04  0.89503181007E+03 0.  0.
         23    2    4    4    0    0 -0.11228191711E+04  0.38708765430E+03  0.18064176975E+04  0.21638155245E+04  0.91613226127E+02 0.  0.
         23    2    4    4    0    0  0.95910123979E+02  0.99809544113E+02  0.80303839851E+03  0.81979874863E+03  0.89658361503E+02 0.  0.
          2    1    3    3  502    0  0.43242451448E+02 -0.20516547132E+02  0.10007571798E+02  0.48897748483E+02  0.00000000000E+00 0. -1.
         -1    1    3    3    0  502  0.98366659569E+03 -0.46638065128E+03  0.63175383625E+03  0.12586595223E+04  0.00000000000E+00 0.  1.
         13    1    5    5    0    0 -0.29228927379E+01  0.55022867678E+01  0.21537363618E+02  0.22420448105E+02  0.00000000000E+00 0. -1.
        -13    1    5    5    0    0 -0.11198962784E+04  0.38158536753E+03  0.17848803339E+04  0.21413950764E+04  0.00000000000E+00 0.  1.
          1    1    6    6  503    0  0.62462293435E+02  0.31573802288E+01  0.29071593602E+03  0.29736721844E+03  0.00000000000E+00 0. -1.
         -1    1    6    6    0  503  0.33447830543E+02  0.96652163885E+02  0.51232246250E+03  0.52243153018E+03  0.00000000000E+00 0.  1.
<mgrwt>
<rscale>  0 0.28006674E+04</rscale>
<asrwt>0</asrwt>
<pdfrwt beam="1">  1        2 0.58018376E+00 0.28006674E+04</pdfrwt>
<pdfrwt beam="2">  1       -1 0.79996467E-01 0.28006674E+04</pdfrwt>
<totfact> 0.79690843E-01</totfact>
</mgrwt>
</event>
<event>
12    7  0.1572140E-007  0.3250945E+04  0.7818608E-02  0.8175491E-01
          2   -1    0    0  501    0  0.00000000000E+00  0.00000000000E+00  0.13490759817E+04  0.13490759817E+04  0.00000000000E+00 0. -1.
         -1   -1    0    0    0  501 -0.00000000000E+00 -0.00000000000E+00 -0.19584970019E+04  0.19584970019E+04  0.00000000000E+00 0.  1.
         24    2    1    2    0    0  0.63750495728E+03 -0.11522746876E+04 -0.10123495432E+04  0.16628835496E+04  0.78616637883E+02 0.  0.
        254    2    1    2    0    0 -0.63750495728E+03  0.11522746876E+04  0.40292852300E+03  0.16446894339E+04  0.89916762244E+03 0.  0.
         23    2    4    4    0    0 -0.37335264413E+03  0.23735535716E+03 -0.22124528272E+03  0.50291625889E+03  0.90804878070E+02 0.  0.
         23    2    4    4    0    0 -0.26415231315E+03  0.91491933041E+03  0.62417380571E+03  0.11417731750E+04  0.84848204350E+02 0.  0.
          4    1    3    3  502    0  0.38406478331E+02 -0.11427025828E+03 -0.10047126748E+03  0.15693063784E+03  0.00000000000E+00 0. -1.
         -3    1    3    3    0  502  0.59909847895E+03 -0.10380044293E+04 -0.91187827575E+03  0.15059529118E+04  0.00000000000E+00 0.  1.
         13    1    5    5    0    0 -0.28880778044E+03  0.16539554808E+03 -0.12347838186E+03  0.35498243922E+03  0.00000000000E+00 0. -1.
        -13    1    5    5    0    0 -0.84544863690E+02  0.71959809073E+02 -0.97766900861E+02  0.14793381967E+03  0.00000000000E+00 0.  1.
          3    1    6    6  503    0 -0.18861944632E+03  0.76725124809E+03  0.50956287292E+03  0.94016280222E+03  0.00000000000E+00 0. -1.
         -3    1    6    6    0  503 -0.75532866834E+02  0.14766808232E+03  0.11461093280E+03  0.20161037281E+03  0.00000000000E+00 0.  1.
<mgrwt>
<rscale>  0 0.32509453E+04</rscale>
<asrwt>0</asrwt>
<pdfrwt beam="1">  1        2 0.20755015E+00 0.32509453E+04</pdfrwt>
<pdfrwt beam="2">  1       -1 0.30130723E+00 0.32509453E+04</pdfrwt>
<totfact> 0.47873387E-01</totfact>
</mgrwt>
</event>
<event>
12    7  0.1572140E-007  0.1656565E+04  0.7818608E-02  0.8786532E-01
         -1   -1    0    0    0  501 -0.00000000000E+00  0.00000000000E+00  0.52014117582E+03  0.52014117582E+03  0.00000000000E+00 0.  1.
          2   -1    0    0  501    0  0.00000000000E+00 -0.00000000000E+00 -0.13189724207E+04  0.13189724207E+04  0.00000000000E+00 0. -1.
         24    2    1    2    0    0  0.14354944955E+03 -0.14740717238E+03 -0.88624173094E+03  0.91340018513E+03  0.80871339800E+02 0.  0.
        254    2    1    2    0    0 -0.14354944955E+03  0.14740717238E+03  0.87410486089E+02  0.92571341135E+03  0.89831475995E+03 0.  0.
         23    2    4    4    0    0 -0.13354312243E+03 -0.45883908002E+02  0.46351669751E+03  0.49324203345E+03  0.92200195920E+02 0.  0.
         23    2    4    4    0    0 -0.10006327120E+02  0.19329108038E+03 -0.37610621142E+03  0.43247137791E+03  0.90077977905E+02 0.  0.
          4    1    3    3  502    0  0.11763252348E+03 -0.64937288236E+02 -0.56089955094E+03  0.57676907704E+03  0.00000000000E+00 0. -1.
         -3    1    3    3    0  502  0.25916926069E+02 -0.82469884142E+02 -0.32534218001E+03  0.33663110810E+03  0.00000000000E+00 0.  1.
         13    1    5    5    0    0 -0.10512651352E+03 -0.46332998600E+02  0.44435419360E+03  0.45896511847E+03  0.00000000000E+00 0. -1.
        -13    1    5    5    0    0 -0.28416608906E+02  0.44909059795E+00  0.19162503909E+02  0.34276914975E+02  0.00000000000E+00 0.  1.
          3    1    6    6  503    0 -0.43358764460E+02  0.16017456525E+03 -0.27974331657E+03  0.32525712441E+03  0.00000000000E+00 0. -1.
         -3    1    6    6    0  503  0.33352437340E+02  0.33116515128E+02 -0.96362894845E+02  0.10721425350E+03  0.00000000000E+00 0.  1.
<mgrwt>
<rscale>  0 0.16565650E+04</rscale>
<asrwt>0</asrwt>
<pdfrwt beam="1">  1        2 0.20291883E+00 0.16565650E+04</pdfrwt>
<pdfrwt beam="2">  1       -1 0.80021721E-01 0.16565650E+04</pdfrwt>
<totfact> 0.27346705E+01</totfact>
</mgrwt>
</event>
<event>
12    7  0.1572140E-007  0.1788485E+04  0.7818608E-02  0.8712447E-01
         -1   -1    0    0    0  501 -0.00000000000E+00  0.00000000000E+00  0.32115137424E+03  0.32115137424E+03  0.00000000000E+00 0.  1.
          2   -1    0    0  501    0  0.00000000000E+00 -0.00000000000E+00 -0.24900086884E+04  0.24900086884E+04  0.00000000000E+00 0. -1.
         24    2    1    2    0    0 -0.42555970319E+03 -0.38456079405E+02 -0.12662367731E+02  0.43483700587E+03  0.79642671293E+02 0.  0.
        254    2    1    2    0    0  0.42555970319E+03  0.38456079405E+02 -0.21561949465E+04  0.23763230568E+04  0.90285917628E+03 0.  0.
         23    2    4    4    0    0  0.21252615446E+03 -0.42211072464E+03 -0.10960261438E+04  0.11972993020E+04  0.94379450514E+02 0.  0.
         23    2    4    4    0    0  0.21303354873E+03  0.46056680405E+03 -0.10601688027E+04  0.11790237548E+04  0.92919590069E+02 0.  0.
          4    1    3    3  502    0 -0.20390662220E+03  0.21143397569E+02 -0.11215205943E+02  0.20530644092E+03  0.00000000000E+00 0. -1.
         -3    1    3    3    0  502 -0.22165308099E+03 -0.59599476974E+02 -0.14471617885E+01  0.22953056495E+03  0.00000000000E+00 0.  1.
         13    1    5    5    0    0  0.18680524062E+03 -0.41479267091E+03 -0.10437832921E+04  0.11386099941E+04  0.00000000000E+00 0.  1.
        -13    1    5    5    0    0  0.25720913838E+02 -0.73180537376E+01 -0.52242851658E+02  0.58689307958E+02  0.00000000000E+00 0. -1.
          1    1    6    6  503    0  0.31392128050E+01  0.78586973095E+02 -0.13285962637E+03  0.15439380595E+03  0.00000000000E+00 0. -1.
         -1    1    6    6    0  503  0.20989433593E+03  0.38197983095E+03 -0.92730917633E+03  0.10246299488E+04  0.00000000000E+00 0.  1.
<mgrwt>
<rscale>  0 0.17884851E+04</rscale>
<asrwt>0</asrwt>
<pdfrwt beam="1">  1        2 0.38307825E+00 0.17884851E+04</pdfrwt>
<pdfrwt beam="2">  1       -1 0.49407905E-01 0.17884851E+04</pdfrwt>
<totfact> 0.15603667E+01</totfact>
</mgrwt>
</event>
<event>
12    7  0.1572140E-007  0.3590718E+04  0.7818608E-02  0.8092621E-01
          2   -1    0    0  501    0  0.00000000000E+00  0.00000000000E+00  0.16681500797E+04  0.16681500797E+04  0.00000000000E+00 0. -1.
         -1   -1    0    0    0  501 -0.00000000000E+00 -0.00000000000E+00 -0.19322681819E+04  0.19322681819E+04  0.00000000000E+00 0.  1.
         24    2    1    2    0    0  0.13250432944E+04 -0.83793808755E+03  0.49850440315E+03  0.16470975062E+04  0.80892423485E+02 0.  0.
        254    2    1    2    0    0 -0.13250432944E+04  0.83793808755E+03 -0.76262250536E+03  0.19533207555E+04  0.88090233138E+03 0.  0.
         23    2    4    4    0    0 -0.27959416436E+03  0.59955306197E+03 -0.52943840763E+03  0.85216474364E+03  0.90790704123E+02 0.  0.
         23    2    4    4    0    0 -0.10454491301E+04  0.23838502558E+03 -0.23318409772E+03  0.11011560118E+04  0.91533791622E+02 0.  0.
          2    1    3    3  502    0  0.12208661541E+04 -0.75364746265E+03  0.47284904904E+03  0.15106571045E+04  0.00000000000E+00 0. -1.
         -1    1    3    3    0  502  0.10417714036E+03 -0.84290624906E+02  0.25655354104E+02  0.13644040170E+03  0.00000000000E+00 0.  1.
         13    1    5    5    0    0 -0.24337661870E+03  0.53207914932E+03 -0.50161674824E+03  0.77068784977E+03  0.00000000000E+00 0. -1.
        -13    1    5    5    0    0 -0.36217545667E+02  0.67473912657E+02 -0.27821659394E+02  0.81476893871E+02  0.00000000000E+00 0.  1.
          1    1    6    6  503    0 -0.50584900353E+03  0.83121242543E+02 -0.77322587637E+02  0.51843142063E+03  0.00000000000E+00 0. -1.
         -1    1    6    6    0  503 -0.53960012653E+03  0.15526378304E+03 -0.15586151009E+03  0.58272459121E+03  0.00000000000E+00 0.  1.
<mgrwt>
<rscale>  0 0.35907177E+04</rscale>
<asrwt>0</asrwt>
<pdfrwt beam="1">  1        2 0.25663847E+00 0.35907177E+04</pdfrwt>
<pdfrwt beam="2">  1       -1 0.29727203E+00 0.35907177E+04</pdfrwt>
<totfact> 0.32620767E-01</totfact>
</mgrwt>
</event>
<event>
12    7  0.1572140E-007  0.1950927E+04  0.7818608E-02  0.8629914E-01
          2   -1    0    0  501    0  0.00000000000E+00  0.00000000000E+00  0.14712698815E+04  0.14712698815E+04  0.00000000000E+00 0. -1.
         -1   -1    0    0    0  501 -0.00000000000E+00 -0.00000000000E+00 -0.64674001421E+03  0.64674001421E+03  0.00000000000E+00 0.  1.
         24    2    1    2    0    0 -0.50111534431E+03  0.18756002101E+03  0.92349025278E+03  0.10702553043E+04  0.79478422980E+02 0.  0.
        254    2    1    2    0    0  0.50111534431E+03 -0.18756002101E+03 -0.98960385490E+02  0.10477545914E+04  0.89537767229E+03 0.  0.
         23    2    4    4    0    0 -0.14573992200E+03 -0.32858143507E+03  0.89255421729E+01  0.37095094827E+03  0.91208861324E+02 0.  0.
         23    2    4    4    0    0  0.64685526631E+03  0.14102141405E+03 -0.10788592766E+03  0.67680364309E+03  0.90083423198E+02 0.  0.
          4    1    3    3  502    0 -0.33945807334E+03  0.12945827628E+03  0.55006703868E+03  0.65921542450E+03  0.00000000000E+00 0. -1.
         -3    1    3    3    0  502 -0.16165727097E+03  0.58101744731E+02  0.37342321410E+03  0.41103987985E+03  0.00000000000E+00 0.  1.
         13    1    5    5    0    0 -0.38201507462E+01 -0.79171400681E+02  0.26170900189E+02  0.83472272368E+02  0.00000000000E+00 0. -1.
        -13    1    5    5    0    0 -0.14191977126E+03 -0.24941003438E+03 -0.17245358016E+02  0.28747867590E+03  0.00000000000E+00 0.  1.
          4    1    6    6  503    0  0.67345683438E+01 -0.33435159704E+01  0.74067771054E+01  0.10554328823E+02  0.00000000000E+00 0. -1.
         -4    1    6    6    0  503  0.64012069797E+03  0.14436493002E+03 -0.11529270477E+03  0.66624931427E+03  0.00000000000E+00 0.  1.
<mgrwt>
<rscale>  0 0.19509271E+04</rscale>
<asrwt>0</asrwt>
<pdfrwt beam="1">  1        2 0.22634921E+00 0.19509271E+04</pdfrwt>
<pdfrwt beam="2">  1       -1 0.99498464E-01 0.19509271E+04</pdfrwt>
<totfact> 0.13504590E+01</totfact>
</mgrwt>
</event>
<event>
12    7  0.1572140E-007  0.1276379E+04  0.7818608E-02  0.9048509E-01
         -1   -1    0    0    0  501 -0.00000000000E+00  0.00000000000E+00  0.29686998699E+03  0.29686998699E+03  0.00000000000E+00 0.  1.
          2   -1    0    0  501    0  0.00000000000E+00 -0.00000000000E+00 -0.13719333844E+04  0.13719333844E+04  0.00000000000E+00 0. -1.
         24    2    1    2    0    0 -0.24798401313E+03  0.13130996634E+03 -0.10039197093E+03  0.30859244046E+03  0.80077265546E+02 0.  0.
        254    2    1    2    0    0  0.24798401313E+03 -0.13130996634E+03 -0.97467142646E+03  0.13602109309E+04  0.90633934537E+03 0.  0.
         23    2    4    4    0    0 -0.46672694147E+02 -0.32353093498E+03 -0.93558277867E+03  0.99535313685E+03  0.92531751421E+02 0.  0.
         23    2    4    4    0    0  0.29465670728E+03  0.19222096865E+03 -0.39088647794E+02  0.36485779406E+03  0.88441006126E+02 0.  0.
          4    1    3    3  502    0 -0.34727023000E+02  0.56210076947E+01 -0.41005871109E+02  0.54028171535E+02  0.00000000000E+00 0. -1.
         -3    1    3    3    0  502 -0.21325699013E+03  0.12568895864E+03 -0.59386099817E+02  0.25456426893E+03  0.00000000000E+00 0.  1.
         13    1    5    5    0    0 -0.14230327644E+02 -0.11130978996E+03 -0.20288664993E+03  0.23185203101E+03  0.00000000000E+00 0.  1.
        -13    1    5    5    0    0 -0.32442366504E+02 -0.21222114502E+03 -0.73269612874E+03  0.76350110584E+03  0.00000000000E+00 0. -1.
          4    1    6    6  503    0  0.29749622839E+03  0.19529444888E+03 -0.32901267317E+02  0.35738833370E+03  0.00000000000E+00 0. -1.
         -4    1    6    6    0  503 -0.28395211165E+01 -0.30734802285E+01 -0.61873804774E+01  0.74694603593E+01  0.00000000000E+00 0.  1.
<mgrwt>
<rscale>  0 0.12763790E+04</rscale>
<asrwt>0</asrwt>
<pdfrwt beam="1">  1        2 0.21106667E+00 0.12763790E+04</pdfrwt>
<pdfrwt beam="2">  1       -1 0.45672306E-01 0.12763790E+04</pdfrwt>
<totfact> 0.80011286E+01</totfact>
</mgrwt>
</event>
<event>
12    7  0.1572140E-007  0.2610776E+04  0.7818608E-02  0.8364550E-01
          2   -1    0    0  501    0  0.00000000000E+00  0.00000000000E+00  0.29502558371E+04  0.29502558371E+04  0.00000000000E+00 0. -1.
         -1   -1    0    0    0  501 -0.00000000000E+00 -0.00000000000E+00 -0.57759005809E+03  0.57759005809E+03  0.00000000000E+00 0.  1.
         24    2    1    2    0    0  0.75370959514E+03  0.81899498095E+03  0.15054703579E+04  0.18739417409E+04  0.79910683072E+02 0.  0.
        254    2    1    2    0    0 -0.75370959514E+03 -0.81899498095E+03  0.86719542116E+03  0.16539041543E+04  0.86286738293E+03 0.  0.
         23    2    4    4    0    0 -0.10451045080E+03 -0.67518478535E+03  0.22433751426E+03  0.72498826811E+03  0.92107219639E+02 0.  0.
         23    2    4    4    0    0 -0.64919914434E+03 -0.14381019560E+03  0.64285790690E+03  0.92891588619E+03  0.86472734332E+02 0.  0.
          4    1    3    3  502    0  0.75043168786E+03  0.80120666317E+03  0.14789151842E+04  0.18418115966E+04  0.00000000000E+00 0. -1.
         -3    1    3    3    0  502  0.32779072733E+01  0.17788317771E+02  0.26555173735E+02  0.32130144371E+02  0.00000000000E+00 0.  1.
         13    1    5    5    0    0 -0.86434288277E+02 -0.29873693045E+03  0.12553479171E+03  0.33537087491E+03  0.00000000000E+00 0.  1.
        -13    1    5    5    0    0 -0.18076162518E+02 -0.37644785490E+03  0.98802722545E+02  0.38961739321E+03  0.00000000000E+00 0. -1.
          2    1    6    6  503    0 -0.21442115800E+03 -0.28708682553E+02  0.26033255647E+03  0.33848731352E+03  0.00000000000E+00 0.  1.
         -2    1    6    6    0  503 -0.43477798634E+03 -0.11510151305E+03  0.38252535043E+03  0.59042857267E+03  0.00000000000E+00 0. -1.
<mgrwt>
<rscale>  0 0.26107765E+04</rscale>
<asrwt>0</asrwt>
<pdfrwt beam="1">  1        2 0.45388550E+00 0.26107765E+04</pdfrwt>
<pdfrwt beam="2">  1       -1 0.88860011E-01 0.26107765E+04</pdfrwt>
<totfact> 0.23344807E+00</totfact>
</mgrwt>
</event>
<event>
12    7  0.1572140E-007  0.1692591E+04  0.7818608E-02  0.8765601E-01
         -1   -1    0    0    0  501 -0.00000000000E+00  0.00000000000E+00  0.20447904665E+03  0.20447904665E+03  0.00000000000E+00 0.  1.
          2   -1    0    0  501    0  0.00000000000E+00 -0.00000000000E+00 -0.35026397467E+04  0.35026397467E+04  0.00000000000E+00 0. -1.
         24    2    1    2    0    0 -0.22063953047E+03  0.36427833170E+03 -0.21085097812E+04  0.21525538539E+04  0.79335310317E+02 0.  0.
        254    2    1    2    0    0  0.22063953047E+03 -0.36427833170E+03 -0.11896509189E+04  0.15545649394E+04  0.90555084709E+03 0.  0.
         23    2    4    4    0    0  0.53900755012E+03 -0.34948689474E+03 -0.92837700015E+03  0.11326579022E+04  0.91432162820E+02 0.  0.
         23    2    4    4    0    0 -0.31836801965E+03 -0.14791436957E+02 -0.26127391871E+03  0.42190703715E+03  0.90357649666E+02 0.  0.
          4    1    3    3  502    0 -0.14646584519E+03  0.19854429160E+03 -0.13708467753E+04  0.13928721983E+04  0.00000000000E+00 0. -1.
         -3    1    3    3    0  502 -0.74173685282E+02  0.16573404010E+03 -0.73766300586E+03  0.75968165559E+03  0.00000000000E+00 0.  1.
         13    1    5    5    0    0  0.13231765019E+03 -0.48689778803E+02 -0.16693742589E+03  0.21851031847E+03  0.00000000000E+00 0.  1.
        -13    1    5    5    0    0  0.40668989993E+03 -0.30079711594E+03 -0.76143957425E+03  0.91414758376E+03  0.00000000000E+00 0. -1.
          1    1    6    6  503    0 -0.21844245523E+03  0.30233829608E+02 -0.15770375468E+03  0.27111190483E+03  0.00000000000E+00 0. -1.
         -1    1    6    6    0  503 -0.99925564424E+02 -0.45025266565E+02 -0.10357016403E+03  0.15079513232E+03  0.00000000000E+00 0.  1.
<mgrwt>
<rscale>  0 0.16925914E+04</rscale>
<asrwt>0</asrwt>
<pdfrwt beam="1">  1        2 0.53886761E+00 0.16925914E+04</pdfrwt>
<pdfrwt beam="2">  1       -1 0.31458317E-01 0.16925914E+04</pdfrwt>
<totfact> 0.83189979E+00</totfact>
</mgrwt>
</event>
<event>
12    7  0.1572140E-007  0.1291010E+04  0.7818608E-02  0.9036725E-01
          2   -1    0    0  501    0  0.00000000000E+00  0.00000000000E+00  0.40127827718E+03  0.40127827718E+03  0.00000000000E+00 0. -1.
         -1   -1    0    0    0  501 -0.00000000000E+00 -0.00000000000E+00 -0.10383736915E+04  0.10383736915E+04  0.00000000000E+00 0.  1.
         24    2    1    2    0    0  0.25938375983E+02  0.11399108876E+03  0.17700809006E+03  0.22671198605E+03  0.79998081288E+02 0.  0.
        254    2    1    2    0    0 -0.25938375983E+02 -0.11399108876E+03 -0.81410350436E+03  0.12129399826E+04  0.89151114292E+03 0.  0.
         23    2    4    4    0    0 -0.23807056999E+03 -0.29792066255E+03 -0.53274847003E+02  0.39702797171E+03  0.96740289052E+02 0.  0.
         23    2    4    4    0    0  0.21213219401E+03  0.18392957379E+03 -0.76082865736E+03  0.81591201091E+03  0.89565662113E+02 0.  0.
          4    1    3    3  502    0 -0.72703183796E+01  0.10687768280E+03  0.14272569959E+03  0.17845537799E+03  0.00000000000E+00 0. -1.
         -3    1    3    3    0  502  0.33208694363E+02  0.71134059571E+01  0.34282390464E+02  0.48256608061E+02  0.00000000000E+00 0.  1.
         13    1    5    5    0    0 -0.10282424004E+03 -0.79009913869E+02  0.15707859005E+02  0.13062207954E+03  0.00000000000E+00 0. -1.
        -13    1    5    5    0    0 -0.13524632996E+03 -0.21891074868E+03 -0.68982706008E+02  0.26640589217E+03  0.00000000000E+00 0.  1.
          2    1    6    6  503    0  0.40656859225E+01  0.25524223198E+02 -0.13821510448E+03  0.14061092020E+03  0.00000000000E+00 0. -1.
         -2    1    6    6    0  503  0.20806650809E+03  0.15840535060E+03 -0.62261355288E+03  0.67530109071E+03  0.00000000000E+00 0.  1.
<mgrwt>
<rscale>  0 0.12910102E+04</rscale>
<asrwt>0</asrwt>
<pdfrwt beam="1">  1        2 0.61735121E-01 0.12910102E+04</pdfrwt>
<pdfrwt beam="2">  1       -1 0.15974980E+00 0.12910102E+04</pdfrwt>
<totfact> 0.26103177E+01</totfact>
</mgrwt>
</event>
<event>
12    7  0.1572140E-007  0.1474144E+04  0.7818608E-02  0.8901831E-01
         -1   -1    0    0    0  501 -0.00000000000E+00  0.00000000000E+00  0.16187393198E+03  0.16187393198E+03  0.00000000000E+00 0.  1.
          2   -1    0    0  501    0  0.00000000000E+00 -0.00000000000E+00 -0.33561612135E+04  0.33561612135E+04  0.00000000000E+00 0. -1.
         24    2    1    2    0    0 -0.19059649874E+03  0.37743412899E+03 -0.56300439178E+03  0.70855692753E+03  0.79343728998E+02 0.  0.
        254    2    1    2    0    0  0.19059649874E+03 -0.37743412899E+03 -0.26312828897E+04  0.28094782180E+04  0.88923262663E+03 0.  0.
         23    2    4    4    0    0  0.40872487680E+03 -0.45413738891E+03 -0.11283273733E+04  0.12865172058E+04  0.93311663040E+02 0.  0.
         23    2    4    4    0    0 -0.21812837805E+03  0.76703259917E+02 -0.15029555164E+04  0.15229610122E+04  0.84092692182E+02 0.  0.
          4    1    3    3  502    0 -0.16354576052E+00  0.17302580763E+02 -0.56704703974E+01  0.18208796853E+02  0.00000000000E+00 0. -1.
         -3    1    3    3    0  502 -0.19043295298E+03  0.36013154823E+03 -0.55733392138E+03  0.69034813068E+03  0.00000000000E+00 0.  1.
         13    1    5    5    0    0  0.22849684857E+02 -0.67615079479E+01 -0.22550579949E+02  0.32807845767E+02  0.00000000000E+00 0. -1.
        -13    1    5    5    0    0  0.38587519194E+03 -0.44737588096E+03 -0.11057767934E+04  0.12537093600E+04  0.00000000000E+00 0.  1.
          2    1    6    6  503    0 -0.42132328987E+02 -0.11931257976E+02 -0.17148254157E+03  0.17698516922E+03  0.00000000000E+00 0. -1.
         -2    1    6    6    0  503 -0.17599604907E+03  0.88634517893E+02 -0.13314729749E+04  0.13459758430E+04  0.00000000000E+00 0.  1.
<mgrwt>
<rscale>  0 0.14741438E+04</rscale>
<asrwt>0</asrwt>
<pdfrwt beam="1">  1        2 0.51633252E+00 0.14741438E+04</pdfrwt>
<pdfrwt beam="2">  1       -1 0.24903681E-01 0.14741438E+04</pdfrwt>
<totfact> 0.16073985E+01</totfact>
</mgrwt>
</event>
<event>
12    7  0.1572140E-007  0.1721998E+04  0.7818608E-02  0.8748917E-01
         -1   -1    0    0    0  501 -0.00000000000E+00  0.00000000000E+00  0.14267711484E+04  0.14267711484E+04  0.00000000000E+00 0.  1.
          2   -1    0    0  501    0  0.00000000000E+00 -0.00000000000E+00 -0.51957796572E+03  0.51957796572E+03  0.00000000000E+00 0. -1.
         24    2    1    2    0    0  0.50772755203E+03  0.51469636664E+02 -0.67465681389E+02  0.52064713818E+03  0.78009190061E+02 0.  0.
        254    2    1    2    0    0 -0.50772755203E+03 -0.51469636664E+02  0.97465886404E+03  0.14257019759E+04  0.90676889683E+03 0.  0.
         23    2    4    4    0    0 -0.29870947118E+03  0.25802710711E+03  0.30444877913E+02  0.40599416618E+03  0.89994645434E+02 0.  0.
         23    2    4    4    0    0 -0.20901808086E+03 -0.30949674378E+03  0.94421398612E+03  0.10197078097E+04  0.93739922555E+02 0.  0.
          4    1    3    3  502    0  0.38205006825E+03  0.72149447481E+02 -0.46692293508E+02  0.39159669009E+03  0.00000000000E+00 0. -1.
         -3    1    3    3    0  502  0.12567748379E+03 -0.20679810817E+02 -0.20773387881E+02  0.12905044809E+03  0.00000000000E+00 0.  1.
         13    1    5    5    0    0 -0.23056560745E+03  0.24192035879E+03  0.16527386109E+02  0.33460291963E+03  0.00000000000E+00 0. -1.
        -13    1    5    5    0    0 -0.68143863734E+02  0.16106748321E+02  0.13917491804E+02  0.71391246551E+02  0.00000000000E+00 0.  1.
          2    1    6    6  503    0 -0.52495741692E+01 -0.71225885166E+02  0.16580187826E+03  0.18052963076E+03  0.00000000000E+00 0.  1.
         -2    1    6    6    0  503 -0.20376850669E+03 -0.23827085861E+03  0.77841210786E+03  0.83917817896E+03  0.00000000000E+00 0. -1.
<mgrwt>
<rscale>  0 0.17219975E+04</rscale>
<asrwt>0</asrwt>
<pdfrwt beam="1">  1        2 0.79935072E-01 0.17219975E+04</pdfrwt>
<pdfrwt beam="2">  1       -1 0.21950325E+00 0.17219975E+04</pdfrwt>
<totfact> 0.70868922E+00</totfact>
</mgrwt>
</event>
<event>
12    7  0.1572140E-007  0.2089125E+04  0.7818608E-02  0.8566049E-01
         -1   -1    0    0    0  501 -0.00000000000E+00  0.00000000000E+00  0.86888394452E+03  0.86888394452E+03  0.00000000000E+00 0.  1.
          2   -1    0    0  501    0  0.00000000000E+00 -0.00000000000E+00 -0.12557611711E+04  0.12557611711E+04  0.00000000000E+00 0. -1.
         24    2    1    2    0    0  0.58957400128E+03 -0.15947694407E+03  0.43854519510E+03  0.75619139668E+03  0.80455836312E+02 0.  0.
        254    2    1    2    0    0 -0.58957400128E+03  0.15947694407E+03 -0.82542242169E+03  0.13684537189E+04  0.90460654873E+03 0.  0.
         23    2    4    4    0    0  0.79850966797E+02 -0.27657748721E+02 -0.62724727138E+03  0.63945047818E+03  0.91195650263E+02 0.  0.
         23    2    4    4    0    0 -0.66942496807E+03  0.18713469279E+03 -0.19817515031E+03  0.72900324077E+03  0.94990282292E+02 0.  0.
          2    1    3    3  502    0  0.91656821101E+02 -0.53858776875E+02  0.62155562466E+02  0.12314647639E+03  0.00000000000E+00 0. -1.
         -1    1    3    3    0  502  0.49791718017E+03 -0.10561816719E+03  0.37638963263E+03  0.63304492029E+03  0.00000000000E+00 0.  1.
         13    1    5    5    0    0 -0.72082682082E+01  0.27129638986E+01 -0.27424294001E+01  0.81755869936E+01  0.00000000000E+00 0.  1.
        -13    1    5    5    0    0  0.87059235005E+02 -0.30370712620E+02 -0.62450484198E+03  0.63127489118E+03  0.00000000000E+00 0. -1.
          4    1    6    6  503    0 -0.21410089312E+03  0.53262106001E+02 -0.18010213785E+02  0.22136036721E+03  0.00000000000E+00 0. -1.
         -4    1    6    6    0  503 -0.45532407495E+03  0.13387258679E+03 -0.18016493653E+03  0.50764287356E+03  0.00000000000E+00 0.  1.
<mgrwt>
<rscale>  0 0.20891249E+04</rscale>
<asrwt>0</asrwt>
<pdfrwt beam="1">  1        2 0.19319403E+00 0.20891249E+04</pdfrwt>
<pdfrwt beam="2">  1       -1 0.13367445E+00 0.20891249E+04</pdfrwt>
<totfact> 0.87183112E+00</totfact>
</mgrwt>
</event>
<event>
12    7  0.1572140E-007  0.1450544E+04  0.7818608E-02  0.8918024E-01
         -1   -1    0    0    0  501 -0.00000000000E+00  0.00000000000E+00  0.24781815982E+03  0.24781815982E+03  0.00000000000E+00 0.  1.
          2   -1    0    0  501    0  0.00000000000E+00 -0.00000000000E+00 -0.21226012772E+04  0.21226012772E+04  0.00000000000E+00 0. -1.
         24    2    1    2    0    0  0.33937024767E+03 -0.16340529699E+03 -0.95975065722E+03  0.10347065377E+04  0.87308871485E+02 0.  0.
        254    2    1    2    0    0 -0.33937024767E+03  0.16340529699E+03 -0.91503246014E+03  0.13357128993E+04  0.89720181127E+03 0.  0.
         23    2    4    4    0    0 -0.23283581102E+03 -0.26504136956E+03 -0.62092552552E+02  0.37074659383E+03  0.95593458336E+02 0.  0.
         23    2    4    4    0    0 -0.10653443664E+03  0.42844666655E+03 -0.85293990759E+03  0.96496630547E+03  0.93473806287E+02 0.  0.
          2    1    3    3  502    0  0.25854676012E+03 -0.15813673283E+03 -0.70483160042E+03  0.76722958649E+03  0.00000000000E+00 0. -1.
         -1    1    3    3    0  502  0.80823487548E+02 -0.52685641570E+01 -0.25491905680E+03  0.26747695121E+03  0.00000000000E+00 0.  1.
         13    1    5    5    0    0 -0.19465656895E+03 -0.25914271844E+03 -0.40886894701E+02  0.32667700641E+03  0.00000000000E+00 0. -1.
        -13    1    5    5    0    0 -0.38179242077E+02 -0.58986511221E+01 -0.21205657852E+02  0.44069587422E+02  0.00000000000E+00 0.  1.
          3    1    6    6  503    0 -0.11255434669E+03  0.28978337887E+03 -0.55084870793E+03  0.63251655050E+03  0.00000000000E+00 0. -1.
         -3    1    6    6    0  503  0.60199100450E+01  0.13866328768E+03 -0.30209119966E+03  0.33244975496E+03  0.00000000000E+00 0.  1.
<mgrwt>
<rscale>  0 0.14505435E+04</rscale>
<asrwt>0</asrwt>
<pdfrwt beam="1">  1        2 0.32655405E+00 0.14505435E+04</pdfrwt>
<pdfrwt beam="2">  1       -1 0.38125870E-01 0.14505435E+04</pdfrwt>
<totfact> 0.41952353E+01</totfact>
</mgrwt>
</event>
<event>
12    7  0.1572140E-007  0.1418820E+04  0.7818608E-02  0.8940307E-01
         -1   -1    0    0    0  501 -0.00000000000E+00  0.00000000000E+00  0.33639741597E+03  0.33639741597E+03  0.00000000000E+00 0.  1.
          2   -1    0    0  501    0  0.00000000000E+00 -0.00000000000E+00 -0.14960352926E+04  0.14960352926E+04  0.00000000000E+00 0. -1.
         24    2    1    2    0    0  0.39175252304E+03  0.10191476181E+03 -0.34117484036E+03  0.53536060783E+03  0.79712299776E+02 0.  0.
        254    2    1    2    0    0 -0.39175252304E+03 -0.10191476181E+03 -0.81846303626E+03  0.12970721007E+04  0.92122615832E+03 0.  0.
         23    2    4    4    0    0 -0.65630367601E+03 -0.18806927312E+03 -0.43524746429E+03  0.81484510854E+03  0.91802119244E+02 0.  0.
         23    2    4    4    0    0  0.26455115297E+03  0.86154511307E+02 -0.38321557197E+03  0.48222699219E+03  0.90987829085E+02 0.  0.
          2    1    3    3  502    0  0.15613793924E+02  0.47721050998E+01 -0.41905923121E+02  0.44974102997E+02  0.00000000000E+00 0. -1.
         -1    1    3    3    0  502  0.37613872912E+03  0.97142656714E+02 -0.29926891724E+03  0.49038650483E+03  0.00000000000E+00 0.  1.
         13    1    5    5    0    0 -0.41440687445E+02 -0.14456865042E+02 -0.41121186789E+01  0.44082207780E+02  0.00000000000E+00 0. -1.
        -13    1    5    5    0    0 -0.61486298857E+03 -0.17361240808E+03 -0.43113534562E+03  0.77076290076E+03  0.00000000000E+00 0.  1.
          2    1    6    6  503    0  0.20673544297E+03  0.70847951401E+02 -0.35311958938E+03  0.41527390961E+03  0.00000000000E+00 0. -1.
         -2    1    6    6    0  503  0.57815710003E+02  0.15306559906E+02 -0.30095982586E+02  0.66953082581E+02  0.00000000000E+00 0.  1.
<mgrwt>
<rscale>  0 0.14188198E+04</rscale>
<asrwt>0</asrwt>
<pdfrwt beam="1">  1        2 0.23015928E+00 0.14188198E+04</pdfrwt>
<pdfrwt beam="2">  1       -1 0.51753448E-01 0.14188198E+04</pdfrwt>
<totfact> 0.53098566E+01</totfact>
</mgrwt>
</event>
<event>
12    7  0.1572140E-007  0.1974504E+04  0.7818608E-02  0.8618634E-01
         -1   -1    0    0    0  501 -0.00000000000E+00  0.00000000000E+00  0.15003279269E+04  0.15003279269E+04  0.00000000000E+00 0.  1.
          2   -1    0    0  501    0  0.00000000000E+00 -0.00000000000E+00 -0.64963576013E+03  0.64963576013E+03  0.00000000000E+00 0. -1.
         24    2    1    2    0    0  0.46365689457E+03  0.34580405868E+03 -0.22737001472E+03  0.62679191345E+03  0.81319224606E+02 0.  0.
        254    2    1    2    0    0 -0.46365689457E+03 -0.34580405868E+03  0.10780621815E+04  0.15231717736E+04  0.90734559114E+03 0.  0.
         23    2    4    4    0    0 -0.64521403293E+03 -0.43515428607E+03  0.10327184289E+04  0.12963701941E+04  0.91694742883E+02 0.  0.
         23    2    4    4    0    0  0.18155713836E+03  0.89350227391E+02  0.45343752599E+02  0.22680157945E+03  0.91850111152E+02 0.  0.
          4    1    3    3  502    0  0.35340410115E+03  0.30080829939E+03 -0.16648891817E+03  0.49305035398E+03  0.00000000000E+00 0. -1.
         -3    1    3    3    0  502  0.11025279342E+03  0.44995759293E+02 -0.60881096556E+02  0.13374155947E+03  0.00000000000E+00 0.  1.
         13    1    5    5    0    0 -0.25391371454E+03 -0.12005663809E+03  0.35154826842E+03  0.44996883871E+03  0.00000000000E+00 0.  1.
        -13    1    5    5    0    0 -0.39130031839E+03 -0.31509764798E+03  0.68117016046E+03  0.84640135540E+03  0.00000000000E+00 0. -1.
          4    1    6    6  503    0  0.99665783877E+02  0.88766722828E+02  0.56615680722E+00  0.13346580120E+03  0.00000000000E+00 0. -1.
         -4    1    6    6    0  503  0.81891354480E+02  0.58350456284E+00  0.44777595792E+02  0.93335778247E+02  0.00000000000E+00 0.  1.
<mgrwt>
<rscale>  0 0.19745042E+04</rscale>
<asrwt>0</asrwt>
<pdfrwt beam="1">  1        2 0.99943963E-01 0.19745042E+04</pdfrwt>
<pdfrwt beam="2">  1       -1 0.23081968E+00 0.19745042E+04</pdfrwt>
<totfact> 0.44578997E+00</totfact>
</mgrwt>
</event>
<event>
12    7  0.1604419E-007  0.1940262E+04  0.7818608E-02  0.8635071E-01
          2   -1    0    0  501    0  0.00000000000E+00  0.00000000000E+00  0.13574038280E+04  0.13574038280E+04  0.00000000000E+00 0. -1.
         -1   -1    0    0    0  501 -0.00000000000E+00 -0.00000000000E+00 -0.69334833555E+03  0.69334833555E+03  0.00000000000E+00 0.  1.
         24    2    1    2    0    0 -0.14732119770E+03 -0.66321502672E+03  0.62318867508E+03  0.92480088594E+03  0.73040036537E+02 0.  0.
        254    2    1    2    0    0  0.14732119770E+03  0.66321502672E+03  0.40866817409E+02  0.11259512776E+04  0.89696068805E+03 0.  0.
         23    2    4    4    0    0 -0.12532978305E+03  0.62142276831E+03  0.32645076345E+03  0.71792332878E+03  0.83486487268E+02 0.  0.
         23    2    4    4    0    0  0.27265098074E+03  0.41792258404E+02 -0.28558394604E+03  0.40802794886E+03  0.94039707821E+02 0.  0.
          4    1    3    3  502    0 -0.10069606269E+03 -0.56437987624E+03  0.50736792509E+03  0.76556289954E+03  0.00000000000E+00 0. -1.
         -3    1    3    3    0  502 -0.46625135008E+02 -0.98835150475E+02  0.11582074999E+03  0.15923798640E+03  0.00000000000E+00 0.  1.
         13    1    5    5    0    0 -0.10513103589E+02  0.19395194776E+03  0.12958503793E+03  0.23349553624E+03  0.00000000000E+00 0. -1.
        -13    1    5    5    0    0 -0.11481667946E+03  0.42747082055E+03  0.19686572552E+03  0.48442779254E+03  0.00000000000E+00 0.  1.
          3    1    6    6  503    0  0.57408664466E+02  0.18193162031E+02 -0.12400207804E+03  0.13785231685E+03  0.00000000000E+00 0. -1.
         -3    1    6    6    0  503  0.21524231628E+03  0.23599096373E+02 -0.16158186800E+03  0.27017563201E+03  0.00000000000E+00 0.  1.
<mgrwt>
<rscale>  0 0.19402615E+04</rscale>
<asrwt>0</asrwt>
<pdfrwt beam="1">  1        2 0.20883136E+00 0.19402615E+04</pdfrwt>
<pdfrwt beam="2">  1       -1 0.10666897E+00 0.19402615E+04</pdfrwt>
<totfact> 0.13367676E+01</totfact>
</mgrwt>
</event>
<event>
12    7  0.1572140E-007  0.2645870E+04  0.7818608E-02  0.8352785E-01
          2   -1    0    0  501    0  0.00000000000E+00  0.00000000000E+00  0.84056766622E+03  0.84056766622E+03  0.00000000000E+00 0. -1.
         -1   -1    0    0    0  501 -0.00000000000E+00 -0.00000000000E+00 -0.20821136181E+04  0.20821136181E+04  0.00000000000E+00 0.  1.
         24    2    1    2    0    0 -0.32083764681E+03 -0.10273030461E+04 -0.51317103995E+02  0.10803108634E+04  0.78420483337E+02 0.  0.
        254    2    1    2    0    0  0.32083764681E+03  0.10273030461E+04 -0.11902288479E+04  0.18423704210E+04  0.90520479086E+03 0.  0.
         23    2    4    4    0    0  0.29413953934E+03  0.11832454578E+04 -0.10204143130E+04  0.15924763759E+04  0.90264918111E+02 0.  0.
         23    2    4    4    0    0  0.26698107469E+02 -0.15594241168E+03 -0.16981453491E+03  0.24989404509E+03  0.92624148047E+02 0.  0.
          2    1    3    3  502    0 -0.30868672301E+03 -0.94828112720E+03 -0.64226932058E+02  0.99932461591E+03  0.00000000000E+00 0. -1.
         -1    1    3    3    0  502 -0.12150923799E+02 -0.79021918940E+02  0.12909828063E+02  0.80986247491E+02  0.00000000000E+00 0.  1.
         13    1    5    5    0    0  0.20774777723E+03  0.90175144759E+03 -0.81877405838E+03  0.12355993569E+04  0.00000000000E+00 0.  1.
        -13    1    5    5    0    0  0.86391762110E+02  0.28149401024E+03 -0.20164025463E+03  0.35687701894E+03  0.00000000000E+00 0. -1.
          2    1    6    6  503    0  0.36147477141E+02 -0.16291771909E+03 -0.13992358166E+03  0.21777840113E+03  0.00000000000E+00 0.  1.
         -2    1    6    6    0  503 -0.94493696711E+01  0.69753074039E+01 -0.29890953251E+02  0.32115643957E+02  0.00000000000E+00 0. -1.
<mgrwt>
<rscale>  0 0.26458703E+04</rscale>
<asrwt>0</asrwt>
<pdfrwt beam="1">  1        2 0.12931810E+00 0.26458703E+04</pdfrwt>
<pdfrwt beam="2">  1       -1 0.32032517E+00 0.26458703E+04</pdfrwt>
<totfact> 0.78871669E-01</totfact>
</mgrwt>
</event>
<event>
12    7  0.1572140E-007  0.1303813E+04  0.7818608E-02  0.9026547E-01
         -1   -1    0    0    0  501 -0.00000000000E+00  0.00000000000E+00  0.20828305009E+03  0.20828305009E+03  0.00000000000E+00 0.  1.
          2   -1    0    0  501    0  0.00000000000E+00 -0.00000000000E+00 -0.20404060666E+04  0.20404060666E+04  0.00000000000E+00 0. -1.
         24    2    1    2    0    0  0.29715737410E+03 -0.74085219357E+02 -0.25088555145E+03  0.40389183041E+03  0.79962028711E+02 0.  0.
        254    2    1    2    0    0 -0.29715737410E+03  0.74085219357E+02 -0.15812374651E+04  0.18447972863E+04  0.89954098399E+03 0.  0.
         23    2    4    4    0    0 -0.33819690735E+03 -0.18543229341E+03 -0.15032535127E+04  0.15545755084E+04  0.90396927049E+02 0.  0.
         23    2    4    4    0    0  0.41039533254E+02  0.25951751276E+03 -0.77983952349E+02  0.29022177784E+03  0.95465181021E+02 0.  0.
          2    1    3    3  502    0  0.33446001358E+02  0.41225086677E+01 -0.60875783970E+02  0.69580824647E+02  0.00000000000E+00 0. -1.
         -1    1    3    3    0  502  0.26371137274E+03 -0.78207728025E+02 -0.19000976748E+03  0.33431100576E+03  0.00000000000E+00 0.  1.
         13    1    5    5    0    0 -0.95459313728E+02 -0.83670731292E+02 -0.62360638845E+03  0.63639468851E+03  0.00000000000E+00 0. -1.
        -13    1    5    5    0    0 -0.24273759362E+03 -0.10176156211E+03 -0.87964712426E+03  0.91818081993E+03  0.00000000000E+00 0.  1.
          4    1    6    6  503    0 -0.10292402715E+02  0.18825741493E+03 -0.32500697437E+02  0.19131932251E+03  0.00000000000E+00 0. -1.
         -4    1    6    6    0  503  0.51331935969E+02  0.71260097830E+02 -0.45483254912E+02  0.98902455331E+02  0.00000000000E+00 0.  1.
<mgrwt>
<rscale>  0 0.13038129E+04</rscale>
<asrwt>0</asrwt>
<pdfrwt beam="1">  1        2 0.31390863E+00 0.13038129E+04</pdfrwt>
<pdfrwt beam="2">  1       -1 0.32043546E-01 0.13038129E+04</pdfrwt>
<totfact> 0.64388831E+01</totfact>
</mgrwt>
</event>
<event>
12    7  0.1572140E-007  0.1789525E+04  0.7818608E-02  0.8711890E-01
          2   -1    0    0  501    0  0.00000000000E+00  0.00000000000E+00  0.21067265004E+04  0.21067265004E+04  0.00000000000E+00 0. -1.
         -1   -1    0    0    0  501 -0.00000000000E+00 -0.00000000000E+00 -0.38002087632E+03  0.38002087632E+03  0.00000000000E+00 0.  1.
         24    2    1    2    0    0  0.81693585147E+02 -0.47627385049E+03  0.91947216069E+01  0.48932158259E+03  0.76422809191E+02 0.  0.
        254    2    1    2    0    0 -0.81693585147E+02  0.47627385049E+03  0.17175109025E+04  0.19974257942E+04  0.89797298424E+03 0.  0.
         23    2    4    4    0    0 -0.85407169344E+02  0.61910844435E+03  0.61389885100E+03  0.88079498639E+03  0.91314611874E+02 0.  0.
         23    2    4    4    0    0  0.37135841963E+01 -0.14283459385E+03  0.11036120515E+04  0.11166308078E+04  0.92137336262E+02 0.  0.
          2    1    3    3  502    0  0.13089285117E+02 -0.21778424768E+03  0.33691850065E+02  0.22076333184E+03  0.00000000000E+00 0. -1.
         -1    1    3    3    0  502  0.68604300030E+02 -0.25848960281E+03 -0.24497128458E+02  0.26855825075E+03  0.00000000000E+00 0.  1.
         13    1    5    5    0    0 -0.85608839961E+02  0.58598595906E+03  0.60477041606E+03  0.84643704659E+03  0.00000000000E+00 0.  1.
        -13    1    5    5    0    0  0.20167061731E+00  0.33122485288E+02  0.91284349436E+01  0.34357939798E+02  0.00000000000E+00 0. -1.
          2    1    6    6  503    0 -0.39579718953E+02 -0.59998723899E+02  0.61255778136E+03  0.61676043690E+03  0.00000000000E+00 0. -1.
         -2    1    6    6    0  503  0.43293303149E+02 -0.82835869955E+02  0.49105427016E+03  0.49987037088E+03  0.00000000000E+00 0.  1.
<mgrwt>
<rscale>  0 0.17895251E+04</rscale>
<asrwt>0</asrwt>
<pdfrwt beam="1">  1        2 0.32411176E+00 0.17895251E+04</pdfrwt>
<pdfrwt beam="2">  1       -1 0.58464752E-01 0.17895251E+04</pdfrwt>
<totfact> 0.18584524E+01</totfact>
</mgrwt>
</event>
<event>
12    7  0.1572140E-007  0.1807493E+04  0.7818608E-02  0.8702325E-01
         -1   -1    0    0    0  501 -0.00000000000E+00  0.00000000000E+00  0.16853724790E+04  0.16853724790E+04  0.00000000000E+00 0.  1.
          2   -1    0    0  501    0  0.00000000000E+00 -0.00000000000E+00 -0.48461554489E+03  0.48461554489E+03  0.00000000000E+00 0. -1.
         24    2    1    2    0    0 -0.36904325824E+03 -0.53704817931E+03  0.67102871488E+03  0.93883053551E+03  0.80681874323E+02 0.  0.
        254    2    1    2    0    0  0.36904325824E+03  0.53704817931E+03  0.52972821925E+03  0.12311574884E+04  0.90029056511E+03 0.  0.
         23    2    4    4    0    0  0.73111814750E+02  0.62493393169E+03  0.62856866851E+03  0.89409395227E+03  0.91747850275E+02 0.  0.
         23    2    4    4    0    0  0.29593144349E+03 -0.87885752376E+02 -0.98840449256E+02  0.33706353613E+03  0.92428719920E+02 0.  0.
          2    1    3    3  502    0 -0.24570755051E+03 -0.37182412980E+03  0.50945609596E+03  0.67688322301E+03  0.00000000000E+00 0. -1.
         -1    1    3    3    0  502 -0.12333570773E+03 -0.16522404951E+03  0.16157261892E+03  0.26194731250E+03  0.00000000000E+00 0.  1.
         13    1    5    5    0    0  0.15482716039E+02  0.16842739275E+02  0.10657854946E+02  0.25238506974E+02  0.00000000000E+00 0.  1.
        -13    1    5    5    0    0  0.57629098711E+02  0.60809119242E+03  0.61791081356E+03  0.86885544530E+03  0.00000000000E+00 0. -1.
          2    1    6    6  503    0  0.19047937203E+03 -0.76653312149E+02 -0.22833978870E+02  0.20659020311E+03  0.00000000000E+00 0. -1.
         -2    1    6    6    0  503  0.10545207146E+03 -0.11232440228E+02 -0.76006470386E+02  0.13047333302E+03  0.00000000000E+00 0.  1.
<mgrwt>
<rscale>  0 0.18074930E+04</rscale>
<asrwt>0</asrwt>
<pdfrwt beam="1">  1        2 0.74556239E-01 0.18074930E+04</pdfrwt>
<pdfrwt beam="2">  1       -1 0.25928807E+00 0.18074930E+04</pdfrwt>
<totfact> 0.41767116E+00</totfact>
</mgrwt>
</event>
<event>
12    7  0.2142288E-007  0.3147594E+04  0.7818608E-02  0.8202796E-01
         -1   -1    0    0    0  501 -0.00000000000E+00  0.00000000000E+00  0.89596880295E+03  0.89596880295E+03  0.00000000000E+00 0.  1.
          2   -1    0    0  501    0  0.00000000000E+00 -0.00000000000E+00 -0.27644241117E+04  0.27644241117E+04  0.00000000000E+00 0. -1.
         24    2    1    2    0    0 -0.11281852284E+04  0.36224252677E+01 -0.18895750824E+04  0.22022417628E+04  0.80992333147E+02 0.  0.
        254    2    1    2    0    0  0.11281852284E+04 -0.36224252677E+01  0.21119773640E+02  0.14581511519E+04  0.92354951431E+03 0.  0.
         23    2    4    4    0    0  0.30845091179E+03 -0.32400101374E+03 -0.26530767951E+03  0.52807265659E+03  0.91399912190E+02 0.  0.
         23    2    4    4    0    0  0.81973431663E+03  0.32037858847E+03  0.28642745315E+03  0.93007849531E+03  0.91643503424E+02 0.  0.
          4    1    3    3  502    0 -0.97878987008E+03 -0.15562844530E+02 -0.15963415553E+04  0.18725859588E+04  0.00000000000E+00 0. -1.
         -1    1    3    3    0  502 -0.14939535834E+03  0.19185269797E+02 -0.29323352716E+03  0.32965580401E+03  0.00000000000E+00 0.  1.
         13    1    5    5    0    0  0.22026900164E+03 -0.28020762205E+03 -0.18847680172E+03  0.40318513033E+03  0.00000000000E+00 0. -1.
        -13    1    5    5    0    0  0.88181910149E+02 -0.43793391694E+02 -0.76830877788E+02  0.12488752626E+03  0.00000000000E+00 0.  1.
          3    1    6    6  503    0  0.76314648170E+03  0.32124383216E+03  0.27373166536E+03  0.87207750622E+03  0.00000000000E+00 0. -1.
         -3    1    6    6    0  503  0.56587834928E+02 -0.86524368735E+00  0.12695787786E+02  0.58000989095E+02  0.00000000000E+00 0.  1.
<mgrwt>
<rscale>  0 0.31475945E+04</rscale>
<asrwt>0</asrwt>
<pdfrwt beam="1">  1        2 0.42529601E+00 0.31475945E+04</pdfrwt>
<pdfrwt beam="2">  1       -1 0.13784136E+00 0.31475945E+04</pdfrwt>
<totfact> 0.10186142E+00</totfact>
</mgrwt>
</event>
<event>
12    7  0.1572140E-007  0.1999562E+04  0.7818608E-02  0.8606825E-01
         -1   -1    0    0    0  501 -0.00000000000E+00  0.00000000000E+00  0.12024884409E+04  0.12024884409E+04  0.00000000000E+00 0.  1.
          2   -1    0    0  501    0  0.00000000000E+00 -0.00000000000E+00 -0.83124463351E+03  0.83124463351E+03  0.00000000000E+00 0. -1.
         24    2    1    2    0    0  0.33369316406E+03  0.18070545638E+03 -0.55061214937E+03  0.67351408167E+03  0.80261382132E+02 0.  0.
        254    2    1    2    0    0 -0.33369316406E+03 -0.18070545638E+03  0.92185595673E+03  0.13602189927E+04  0.92540354086E+03 0.  0.
         23    2    4    4    0    0 -0.11164880183E+02 -0.47563651325E+03  0.22998752706E+03  0.53611233560E+03  0.90373815274E+02 0.  0.
         23    2    4    4    0    0 -0.32252828388E+03  0.29493105688E+03  0.69186842967E+03  0.82410665710E+03  0.97267857444E+02 0.  0.
          2    1    3    3  502    0  0.23873677468E+03  0.11377538605E+03 -0.31875149910E+03  0.41417702040E+03  0.00000000000E+00 0. -1.
         -1    1    3    3    0  502  0.94956389388E+02  0.66930070329E+02 -0.23186065027E+03  0.25933706127E+03  0.00000000000E+00 0.  1.
         13    1    5    5    0    0  0.12057475071E+02 -0.41758521550E+02 -0.20960795446E+01  0.43514944290E+02  0.00000000000E+00 0. -1.
        -13    1    5    5    0    0 -0.23222355254E+02 -0.43387799170E+03  0.23208360660E+03  0.49259739131E+03  0.00000000000E+00 0.  1.
          2    1    6    6  503    0 -0.39133265592E+02  0.51375697572E+02  0.17320992621E+03  0.18485819785E+03  0.00000000000E+00 0. -1.
         -2    1    6    6    0  503 -0.28339501829E+03  0.24355535930E+03  0.51865850346E+03  0.63924845925E+03  0.00000000000E+00 0.  1.
<mgrwt>
<rscale>  0 0.19995620E+04</rscale>
<asrwt>0</asrwt>
<pdfrwt beam="1">  1        2 0.12788379E+00 0.19995620E+04</pdfrwt>
<pdfrwt beam="2">  1       -1 0.18499822E+00 0.19995620E+04</pdfrwt>
<totfact> 0.66486482E+00</totfact>
</mgrwt>
</event>
<event>
12    7  0.1572140E-007  0.4286796E+04  0.7818608E-02  0.7949064E-01
          2   -1    0    0  501    0  0.00000000000E+00  0.00000000000E+00  0.33440512113E+04  0.33440512113E+04  0.00000000000E+00 0. -1.
         -1   -1    0    0    0  501 -0.00000000000E+00 -0.00000000000E+00 -0.13738293183E+04  0.13738293183E+04  0.00000000000E+00 0.  1.
         24    2    1    2    0    0  0.17871757332E+04 -0.70299372578E+03  0.15490379592E+03  0.19284661809E+04  0.82397482524E+02 0.  0.
        254    2    1    2    0    0 -0.17871757332E+04  0.70299372578E+03  0.18153180971E+04  0.27894143486E+04  0.89289155817E+03 0.  0.
         23    2    4    4    0    0 -0.97334724131E+03  0.52690551687E+02  0.12875675337E+04  0.16181820426E+04  0.10247840185E+03 0.  0.
         23    2    4    4    0    0 -0.81382849191E+03  0.65030317409E+03  0.52775056338E+03  0.11712323060E+04  0.89740876473E+02 0.  0.
          4    1    3    3  502    0  0.68506692603E+03 -0.26865441251E+03  0.19204409125E+02  0.73611187725E+03  0.00000000000E+00 0. -1.
         -3    1    3    3    0  502  0.11021088072E+04 -0.43433931327E+03  0.13569938679E+03  0.11923543037E+04  0.00000000000E+00 0.  1.
         13    1    5    5    0    0 -0.54973538209E+03 -0.15482846641E+02  0.68457845458E+03  0.87812093093E+03  0.00000000000E+00 0.  1.
        -13    1    5    5    0    0 -0.42361185922E+03  0.68173398328E+02  0.60298907911E+03  0.74006111169E+03  0.00000000000E+00 0. -1.
          2    1    6    6  503    0 -0.30725481146E+02  0.40643194234E+02  0.43302299496E+02  0.66865638192E+02  0.00000000000E+00 0.  1.
         -2    1    6    6    0  503 -0.78310301076E+03  0.60965997986E+03  0.48444826389E+03  0.11043666678E+04  0.00000000000E+00 0. -1.
<mgrwt>
<rscale>  0 0.42867963E+04</rscale>
<asrwt>0</asrwt>
<pdfrwt beam="1">  1        2 0.51446942E+00 0.42867963E+04</pdfrwt>
<pdfrwt beam="2">  1       -1 0.21135836E+00 0.42867963E+04</pdfrwt>
<totfact> 0.11444818E-01</totfact>
</mgrwt>
</event>
<event>
12    7  0.1572140E-007  0.1863149E+04  0.7818608E-02  0.8673420E-01
          2   -1    0    0  501    0  0.00000000000E+00  0.00000000000E+00  0.99947242847E+03  0.99947242847E+03  0.00000000000E+00 0. -1.
         -1   -1    0    0    0  501 -0.00000000000E+00 -0.00000000000E+00 -0.86828949349E+03  0.86828949349E+03  0.00000000000E+00 0.  1.
         24    2    1    2    0    0  0.28150018376E+03  0.58896378296E+03 -0.80686124314E+02  0.66265197962E+03  0.80477974280E+02 0.  0.
        254    2    1    2    0    0 -0.28150018376E+03 -0.58896378296E+03  0.21186905929E+03  0.12051099423E+04  0.99059617592E+03 0.  0.
         23    2    4    4    0    0  0.12179967632E+03  0.65164623840E+02  0.37921970690E+03  0.41352995969E+03  0.90099123748E+02 0.  0.
         23    2    4    4    0    0 -0.40329986008E+03 -0.65412840680E+03 -0.16735064761E+03  0.79157998265E+03  0.89765694780E+02 0.  0.
          4    1    3    3  502    0  0.28290324926E+03  0.56123190794E+03 -0.68152264777E+02  0.63218686646E+03  0.00000000000E+00 0. -1.
         -3    1    3    3    0  502 -0.14030655025E+01  0.27731875015E+02 -0.12533859537E+02  0.30465113155E+02  0.00000000000E+00 0.  1.
         13    1    5    5    0    0  0.48338343870E+02 -0.16514650025E+02  0.81454144831E+02  0.96146278470E+02  0.00000000000E+00 0.  1.
        -13    1    5    5    0    0  0.73461332453E+02  0.81679273864E+02  0.29776556207E+03  0.31738368122E+03  0.00000000000E+00 0. -1.
          1    1    6    6  503    0 -0.15719224613E+03 -0.31525148523E+03 -0.10882639707E+03  0.36869511236E+03  0.00000000000E+00 0. -1.
         -1    1    6    6    0  503 -0.24610761395E+03 -0.33887692157E+03 -0.58524250541E+02  0.42288487029E+03  0.00000000000E+00 0.  1.
<mgrwt>
<rscale>  0 0.18631494E+04</rscale>
<asrwt>0</asrwt>
<pdfrwt beam="1">  1        2 0.15376499E+00 0.18631494E+04</pdfrwt>
<pdfrwt beam="2">  1       -1 0.13358300E+00 0.18631494E+04</pdfrwt>
<totfact> 0.12785607E+01</totfact>
</mgrwt>
</event>
<event>
12    7  0.1572140E-007  0.2557953E+04  0.7818608E-02  0.8382626E-01
         -1   -1    0    0    0  501 -0.00000000000E+00  0.00000000000E+00  0.80012515949E+03  0.80012515949E+03  0.00000000000E+00 0.  1.
          2   -1    0    0  501    0  0.00000000000E+00 -0.00000000000E+00 -0.20444062029E+04  0.20444062029E+04  0.00000000000E+00 0. -1.
         24    2    1    2    0    0  0.97810236897E+03  0.54838312813E+03 -0.57288961981E+03  0.12619311826E+04  0.82822061396E+02 0.  0.
        254    2    1    2    0    0 -0.97810236897E+03 -0.54838312813E+03 -0.67139142358E+03  0.15826001797E+04  0.89243968189E+03 0.  0.
         23    2    4    4    0    0 -0.48667636690E+03 -0.30006698380E+03  0.14075878731E+03  0.59709672909E+03  0.99082727151E+02 0.  0.
         23    2    4    4    0    0 -0.49142600207E+03 -0.24831614433E+03 -0.81215021090E+03  0.98550345064E+03  0.92025339524E+02 0.  0.
          4    1    3    3  502    0  0.78929642460E+03  0.41129230610E+03 -0.43155081482E+03  0.98913412271E+03  0.00000000000E+00 0. -1.
         -3    1    3    3    0  502  0.18880594437E+03  0.13709082203E+03 -0.14133880498E+03  0.27279705994E+03  0.00000000000E+00 0.  1.
         13    1    5    5    0    0 -0.39856379074E+03 -0.26170821278E+03  0.80191951267E+02  0.48350287794E+03  0.00000000000E+00 0.  1.
        -13    1    5    5    0    0 -0.88112576156E+02 -0.38358771029E+02  0.60566836045E+02  0.11359385115E+03  0.00000000000E+00 0. -1.
          4    1    6    6  503    0 -0.61635130015E+02 -0.69007839389E+02 -0.13750386997E+03  0.16573558883E+03  0.00000000000E+00 0. -1.
         -4    1    6    6    0  503 -0.42979087205E+03 -0.17930830494E+03 -0.67464634093E+03  0.81976786181E+03  0.00000000000E+00 0.  1.
<mgrwt>
<rscale>  0 0.25579530E+04</rscale>
<asrwt>0</asrwt>
<pdfrwt beam="1">  1        2 0.31452402E+00 0.25579530E+04</pdfrwt>
<pdfrwt beam="2">  1       -1 0.12309618E+00 0.25579530E+04</pdfrwt>
<totfact> 0.37053837E+00</totfact>
</mgrwt>
</event>
<event>
12    7  0.1572140E-007  0.2094537E+04  0.7818608E-02  0.8563654E-01
         -1   -1    0    0    0  501 -0.00000000000E+00  0.00000000000E+00  0.50871109617E+03  0.50871109617E+03  0.00000000000E+00 0.  1.
          2   -1    0    0  501    0  0.00000000000E+00 -0.00000000000E+00 -0.21559806977E+04  0.21559806977E+04  0.00000000000E+00 0. -1.
         24    2    1    2    0    0 -0.78332505413E+03 -0.37935338312E+03 -0.65773447711E+03  0.10940645776E+04  0.82798115242E+02 0.  0.
        254    2    1    2    0    0  0.78332505413E+03  0.37935338312E+03 -0.98953512444E+03  0.15706272163E+04  0.85450743723E+03 0.  0.
         23    2    4    4    0    0  0.88249011531E+03  0.23800737326E+03 -0.50434810276E+03  0.10478661546E+04  0.90665074623E+02 0.  0.
         23    2    4    4    0    0 -0.99165061176E+02  0.14134600986E+03 -0.48518702168E+03  0.52276106172E+03  0.89779049805E+02 0.  0.
          4    1    3    3  502    0 -0.38976986346E+03 -0.19549625662E+03 -0.27824337531E+03  0.51726077439E+03  0.00000000000E+00 0. -1.
         -3    1    3    3    0  502 -0.39355519067E+03 -0.18385712649E+03 -0.37949110179E+03  0.57680380322E+03  0.00000000000E+00 0.  1.
         13    1    5    5    0    0  0.12230074621E+03  0.49730105119E+01 -0.51041110800E+02  0.13261748885E+03  0.00000000000E+00 0.  1.
        -13    1    5    5    0    0  0.76018936910E+03  0.23303436275E+03 -0.45330699196E+03  0.91524866570E+03  0.00000000000E+00 0. -1.
          4    1    6    6  503    0 -0.10964511772E+03  0.14451321074E+03 -0.47177390021E+03  0.50544706235E+03  0.00000000000E+00 0. -1.
         -4    1    6    6    0  503  0.10480056544E+02 -0.31672008871E+01 -0.13413121472E+02  0.17313999372E+02  0.00000000000E+00 0.  1.
<mgrwt>
<rscale>  0 0.20945370E+04</rscale>
<asrwt>0</asrwt>
<pdfrwt beam="1">  1        2 0.33168934E+00 0.20945370E+04</pdfrwt>
<pdfrwt beam="2">  1       -1 0.78263246E-01 0.20945370E+04</pdfrwt>
<totfact> 0.93762013E+00</totfact>
</mgrwt>
</event>
<event>
12    7  0.1572140E-007  0.1615455E+04  0.7818608E-02  0.8811109E-01
         -1   -1    0    0    0  501 -0.00000000000E+00  0.00000000000E+00  0.29138597723E+03  0.29138597723E+03  0.00000000000E+00 0.  1.
          2   -1    0    0  501    0  0.00000000000E+00 -0.00000000000E+00 -0.22390363295E+04  0.22390363295E+04  0.00000000000E+00 0. -1.
         24    2    1    2    0    0  0.51968564808E+03 -0.16943433580E+02 -0.27914271957E+03  0.59549222532E+03  0.79561798394E+02 0.  0.
        254    2    1    2    0    0 -0.51968564808E+03  0.16943433580E+02 -0.16685076327E+04  0.19349300814E+04  0.83046760733E+03 0.  0.
         23    2    4    4    0    0 -0.41819556345E+03  0.32243870086E+03 -0.55170576282E+03  0.76916788918E+03  0.91573729389E+02 0.  0.
         23    2    4    4    0    0 -0.10149008463E+03 -0.30549526728E+03 -0.11168018698E+04  0.11657621922E+04  0.90152518958E+02 0.  0.
          4    1    3    3  502    0  0.41267375207E+02 -0.48118050491E+01 -0.17365892387E+00  0.41547320993E+02  0.00000000000E+00 0. -1.
         -3    1    3    3    0  502  0.47841827288E+03 -0.12131628530E+02 -0.27896906065E+03  0.55394490433E+03  0.00000000000E+00 0.  1.
         13    1    5    5    0    0 -0.30870873046E+03  0.25921018913E+03 -0.36574770591E+03  0.54429990519E+03  0.00000000000E+00 0.  1.
        -13    1    5    5    0    0 -0.10948683300E+03  0.63228511730E+02 -0.18595805691E+03  0.22486798400E+03  0.00000000000E+00 0. -1.
          1    1    6    6  503    0  0.82834526336E+01 -0.10704608927E+03 -0.34298528020E+03  0.35939724992E+03  0.00000000000E+00 0. -1.
         -1    1    6    6    0  503 -0.10977353726E+03 -0.19844917801E+03 -0.77381658964E+03  0.80636494228E+03  0.00000000000E+00 0.  1.
<mgrwt>
<rscale>  0 0.16154551E+04</rscale>
<asrwt>0</asrwt>
<pdfrwt beam="1">  1        2 0.34446713E+00 0.16154551E+04</pdfrwt>
<pdfrwt beam="2">  1       -1 0.44828611E-01 0.16154551E+04</pdfrwt>
<totfact> 0.26433709E+01</totfact>
</mgrwt>
</event>
<event>
12    7  0.1572140E-007  0.2268770E+04  0.7818608E-02  0.8490337E-01
         -1   -1    0    0    0  501 -0.00000000000E+00  0.00000000000E+00  0.45165968515E+03  0.45165968515E+03  0.00000000000E+00 0.  1.
          2   -1    0    0  501    0  0.00000000000E+00 -0.00000000000E+00 -0.28491127599E+04  0.28491127599E+04  0.00000000000E+00 0. -1.
         24    2    1    2    0    0  0.12398700139E+03  0.80980125400E+03 -0.17222148453E+04  0.19089735004E+04  0.83695905060E+02 0.  0.
        254    2    1    2    0    0 -0.12398700139E+03 -0.80980125400E+03 -0.67523822942E+03  0.13917989446E+04  0.90000377121E+03 0.  0.
         23    2    4    4    0    0 -0.32055472505E+02 -0.81857475811E+03 -0.13509033251E+03  0.83535832088E+03  0.92097439660E+02 0.  0.
         23    2    4    4    0    0 -0.91931528883E+02  0.87735041165E+01 -0.54014789691E+03  0.55644062370E+03  0.96633517972E+02 0.  0.
          4    1    3    3  502    0  0.37450956552E+02  0.19501263152E+03 -0.34029823584E+03  0.39399922578E+03  0.00000000000E+00 0. -1.
         -3    1    3    3    0  502  0.86536044836E+02  0.61478862248E+03 -0.13819166095E+04  0.15149742747E+04  0.00000000000E+00 0.  1.
         13    1    5    5    0    0 -0.27902755185E+02 -0.34429265383E+03 -0.13330458531E+02  0.34567860268E+03  0.00000000000E+00 0.  1.
        -13    1    5    5    0    0 -0.41527173199E+01 -0.47428210428E+03 -0.12175987398E+03  0.48967971820E+03  0.00000000000E+00 0. -1.
          2    1    6    6  503    0 -0.24541683237E+02  0.25389857952E+02 -0.48919165677E+02  0.60332610365E+02  0.00000000000E+00 0. -1.
         -2    1    6    6    0  503 -0.67389845645E+02 -0.16616353836E+02 -0.49122873123E+03  0.49610801334E+03  0.00000000000E+00 0.  1.
<mgrwt>
<rscale>  0 0.22687700E+04</rscale>
<asrwt>0</asrwt>
<pdfrwt beam="1">  1        2 0.43832504E+00 0.22687700E+04</pdfrwt>
<pdfrwt beam="2">  1       -1 0.69486106E-01 0.22687700E+04</pdfrwt>
<totfact> 0.46788649E+00</totfact>
</mgrwt>
</event>
<event>
12    7  0.1572140E-007  0.2832855E+04  0.7818608E-02  0.8293140E-01
         -1   -1    0    0    0  501 -0.00000000000E+00  0.00000000000E+00  0.67620531236E+03  0.67620531236E+03  0.00000000000E+00 0.  1.
          2   -1    0    0  501    0  0.00000000000E+00 -0.00000000000E+00 -0.29669501895E+04  0.29669501895E+04  0.00000000000E+00 0. -1.
         24    2    1    2    0    0 -0.65280148364E+03  0.47493198987E+03  0.23301489436E+03  0.84378800403E+03  0.77279251440E+02 0.  0.
        254    2    1    2    0    0  0.65280148364E+03 -0.47493198987E+03 -0.25237597715E+04  0.27993674978E+04  0.90298661764E+03 0.  0.
         23    2    4    4    0    0  0.59292943586E+03 -0.29541103701E+03 -0.71745602849E+03  0.98090273853E+03  0.92704007169E+02 0.  0.
         23    2    4    4    0    0  0.59872047781E+02 -0.17952095286E+03 -0.18063037430E+04  0.18184647593E+04  0.90930930960E+02 0.  0.
          2    1    3    3  502    0 -0.71237358126E+02  0.59863798655E+02  0.26897193701E+01  0.93089581439E+02  0.00000000000E+00 0. -1.
         -1    1    3    3    0  502 -0.58156412551E+03  0.41506819122E+03  0.23032517499E+03  0.75069842259E+03  0.00000000000E+00 0.  1.
         13    1    5    5    0    0  0.31338234994E+03 -0.13647469479E+03 -0.43234310151E+03  0.55113918115E+03  0.00000000000E+00 0.  1.
        -13    1    5    5    0    0  0.27954708591E+03 -0.15893634222E+03 -0.28511292698E+03  0.42976355738E+03  0.00000000000E+00 0. -1.
          3    1    6    6  503    0  0.23886145931E+02 -0.95929911938E+02 -0.13215237418E+04  0.13252162450E+04  0.00000000000E+00 0. -1.
         -3    1    6    6    0  503  0.35985901850E+02 -0.83591040923E+02 -0.48478000120E+03  0.49324851426E+03  0.00000000000E+00 0.  1.
<mgrwt>
<rscale>  0 0.28328554E+04</rscale>
<asrwt>0</asrwt>
<pdfrwt beam="1">  1        2 0.45645387E+00 0.28328554E+04</pdfrwt>
<pdfrwt beam="2">  1       -1 0.10403159E+00 0.28328554E+04</pdfrwt>
<totfact> 0.15660255E+00</totfact>
</mgrwt>
</event>
<event>
12    7  0.1572140E-007  0.2899883E+04  0.7818608E-02  0.8272912E-01
          2   -1    0    0  501    0  0.00000000000E+00  0.00000000000E+00  0.18527338216E+04  0.18527338216E+04  0.00000000000E+00 0. -1.
         -1   -1    0    0    0  501 -0.00000000000E+00 -0.00000000000E+00 -0.11347175875E+04  0.11347175875E+04  0.00000000000E+00 0.  1.
         24    2    1    2    0    0  0.11762878218E+04 -0.39324806103E+03  0.75628902893E+03  0.14548796561E+04  0.80029002634E+02 0.  0.
        254    2    1    2    0    0 -0.11762878218E+04  0.39324806103E+03 -0.38272794870E+02  0.15325717530E+04  0.89945221893E+03 0.  0.
         23    2    4    4    0    0 -0.26219025252E+03 -0.42153246243E+02 -0.36904363009E+03  0.46353210287E+03  0.90267296393E+02 0.  0.
         23    2    4    4    0    0 -0.91409756924E+03  0.43540130727E+03  0.33077083522E+03  0.10690396501E+04  0.91037155321E+02 0.  0.
          4    1    3    3  502    0  0.45964925588E+03 -0.12534101718E+03  0.25745532780E+03  0.54154506260E+03  0.00000000000E+00 0. -1.
         -3    1    3    3    0  502  0.71663856589E+03 -0.26790704385E+03  0.49883370113E+03  0.91333459348E+03  0.00000000000E+00 0.  1.
         13    1    5    5    0    0 -0.16940736482E+03 -0.68411103242E+02 -0.26264529906E+03  0.31993981843E+03  0.00000000000E+00 0. -1.
        -13    1    5    5    0    0 -0.92782887698E+02  0.26257856998E+02 -0.10639833103E+03  0.14359228444E+03  0.00000000000E+00 0.  1.
          4    1    6    6  503    0 -0.75837925788E+03  0.33492357934E+03  0.24258101909E+03  0.86380463857E+03  0.00000000000E+00 0. -1.
         -4    1    6    6    0  503 -0.15571831136E+03  0.10047772793E+03  0.88189816127E+02  0.20523501157E+03  0.00000000000E+00 0.  1.
<mgrwt>
<rscale>  0 0.28998825E+04</rscale>
<asrwt>0</asrwt>
<pdfrwt beam="1">  1        2 0.28503597E+00 0.28998825E+04</pdfrwt>
<pdfrwt beam="2">  1       -1 0.17457194E+00 0.28998825E+04</pdfrwt>
<totfact> 0.18048080E+00</totfact>
</mgrwt>
</event>
<event>
12    7  0.1572140E-007  0.1586624E+04  0.7818608E-02  0.8828808E-01
         -1   -1    0    0    0  501 -0.00000000000E+00  0.00000000000E+00  0.45939319403E+03  0.45939319403E+03  0.00000000000E+00 0.  1.
          2   -1    0    0  501    0  0.00000000000E+00 -0.00000000000E+00 -0.13699463804E+04  0.13699463804E+04  0.00000000000E+00 0. -1.
         24    2    1    2    0    0 -0.18953620651E+03  0.26121782016E+01  0.26495564697E+03  0.33546921027E+03  0.80045606545E+02 0.  0.
        254    2    1    2    0    0  0.18953620651E+03 -0.26121782016E+01 -0.11755088333E+04  0.14938703641E+04  0.90216231942E+03 0.  0.
         23    2    4    4    0    0  0.32926992029E+03 -0.13649900796E+03 -0.78844901785E+02  0.37610162360E+03  0.90472388927E+02 0.  0.
         23    2    4    4    0    0 -0.13973371378E+03  0.13388682976E+03 -0.10966639315E+04  0.11177687405E+04  0.96353436018E+02 0.  0.
          2    1    3    3  502    0 -0.45137850734E+02  0.24682964552E+02  0.11572223575E+03  0.12664245005E+03  0.00000000000E+00 0. -1.
         -1    1    3    3    0  502 -0.14439835577E+03 -0.22070786350E+02  0.14923341122E+03  0.20882676022E+03  0.00000000000E+00 0.  1.
         13    1    5    5    0    0  0.36934886063E+02 -0.46775554815E+02 -0.28967226618E+02  0.66266421019E+02  0.00000000000E+00 0. -1.
        -13    1    5    5    0    0  0.29233503422E+03 -0.89723453146E+02 -0.49877675167E+02  0.30983520258E+03  0.00000000000E+00 0.  1.
          4    1    6    6  503    0 -0.71792304791E+02  0.11765795268E+03 -0.56668123441E+03  0.58320249510E+03  0.00000000000E+00 0. -1.
         -4    1    6    6    0  503 -0.67941408990E+02  0.16228877082E+02 -0.52998269713E+03  0.53456624544E+03  0.00000000000E+00 0.  1.
<mgrwt>
<rscale>  0 0.15866241E+04</rscale>
<asrwt>0</asrwt>
<pdfrwt beam="1">  1        2 0.21076098E+00 0.15866241E+04</pdfrwt>
<pdfrwt beam="2">  1       -1 0.70675877E-01 0.15866241E+04</pdfrwt>
<totfact> 0.33325105E+01</totfact>
</mgrwt>
</event>
<event>
12    7  0.1572140E-007  0.1874794E+04  0.7818608E-02  0.8667506E-01
          2   -1    0    0  501    0  0.00000000000E+00  0.00000000000E+00  0.13017884691E+04  0.13017884691E+04  0.00000000000E+00 0. -1.
         -1   -1    0    0    0  501 -0.00000000000E+00 -0.00000000000E+00 -0.67500468638E+03  0.67500468638E+03  0.00000000000E+00 0.  1.
         24    2    1    2    0    0  0.25556547884E+03 -0.18383444943E+03  0.93015855019E+03  0.98534582570E+03  0.81256685699E+02 0.  0.
        254    2    1    2    0    0 -0.25556547884E+03  0.18383444943E+03 -0.30337476743E+03  0.99144732981E+03  0.88984422204E+03 0.  0.
         23    2    4    4    0    0 -0.89559605486E+02  0.22065867458E+03  0.27997437257E+03  0.37717185486E+03  0.84627331293E+02 0.  0.
         23    2    4    4    0    0 -0.16600587335E+03 -0.36824225152E+02 -0.58334914000E+03  0.61427547494E+03  0.90134157981E+02 0.  0.
          2    1    3    3  502    0  0.16213302671E+03 -0.15760780241E+03  0.59880640535E+03  0.64007534620E+03  0.00000000000E+00 0. -1.
         -1    1    3    3    0  502  0.93432452132E+02 -0.26226647024E+02  0.33135214483E+03  0.34527047950E+03  0.00000000000E+00 0.  1.
         13    1    5    5    0    0 -0.91915836174E+02  0.19755316439E+03  0.27889918262E+03  0.35392164072E+03  0.00000000000E+00 0.  1.
        -13    1    5    5    0    0  0.23562306880E+01  0.23105510194E+02  0.10751899447E+01  0.23250214146E+02  0.00000000000E+00 0. -1.
          3    1    6    6  503    0 -0.14271274209E+03 -0.98717836401E+01 -0.34815889204E+03  0.37640270054E+03  0.00000000000E+00 0. -1.
         -3    1    6    6    0  503 -0.23293131259E+02 -0.26952441512E+02 -0.23519024796E+03  0.23787277440E+03  0.00000000000E+00 0.  1.
<mgrwt>
<rscale>  0 0.18747942E+04</rscale>
<asrwt>0</asrwt>
<pdfrwt beam="1">  1        2 0.20027515E+00 0.18747942E+04</pdfrwt>
<pdfrwt beam="2">  1       -1 0.10384687E+00 0.18747942E+04</pdfrwt>
<totfact> 0.15412491E+01</totfact>
</mgrwt>
</event>
<event>
12    7  0.1572140E-007  0.2005050E+04  0.7818608E-02  0.8604263E-01
          2   -1    0    0  501    0  0.00000000000E+00  0.00000000000E+00  0.19086758588E+04  0.19086758588E+04  0.00000000000E+00 0. -1.
         -1   -1    0    0    0  501 -0.00000000000E+00 -0.00000000000E+00 -0.52657241904E+03  0.52657241904E+03  0.00000000000E+00 0.  1.
         24    2    1    2    0    0 -0.16819014760E+03 -0.77022303427E+03  0.68752924932E+03  0.10489793220E+04  0.78292406948E+02 0.  0.
        254    2    1    2    0    0  0.16819014760E+03  0.77022303427E+03  0.69457419048E+03  0.13862689559E+04  0.90431015905E+03 0.  0.
         23    2    4    4    0    0  0.49118270379E+02  0.41797319710E+03 -0.15217985579E+03  0.45626479279E+03  0.88908124783E+02 0.  0.
         23    2    4    4    0    0  0.11907187722E+03  0.35224983717E+03  0.84675404626E+03  0.93000416312E+03  0.98271403874E+02 0.  0.
          2    1    3    3  502    0 -0.12180702592E+03 -0.60159250297E+03  0.57468750772E+03  0.84084256715E+03  0.00000000000E+00 0. -1.
         -1    1    3    3    0  502 -0.46383121678E+02 -0.16863053130E+03  0.11284174160E+03  0.20813675483E+03  0.00000000000E+00 0.  1.
         13    1    5    5    0    0 -0.11774927650E+02  0.12990645000E+03 -0.14532746668E+02  0.13124608717E+03  0.00000000000E+00 0. -1.
        -13    1    5    5    0    0  0.60893198029E+02  0.28806674710E+03 -0.13764710912E+03  0.32501870562E+03  0.00000000000E+00 0.  1.
          3    1    6    6  503    0 -0.70984776865E+01  0.67262556208E+02  0.21786457078E+03  0.22812192147E+03  0.00000000000E+00 0. -1.
         -3    1    6    6    0  503  0.12617035491E+03  0.28498728096E+03  0.62888947548E+03  0.70188224165E+03  0.00000000000E+00 0.  1.
<mgrwt>
<rscale>  0 0.20050497E+04</rscale>
<asrwt>0</asrwt>
<pdfrwt beam="1">  1        2 0.29364244E+00 0.20050497E+04</pdfrwt>
<pdfrwt beam="2">  1       -1 0.81011142E-01 0.20050497E+04</pdfrwt>
<totfact> 0.12058420E+01</totfact>
</mgrwt>
</event>
<event>
12    7  0.1572140E-007  0.2628028E+04  0.7818608E-02  0.8358743E-01
         -1   -1    0    0    0  501 -0.00000000000E+00  0.00000000000E+00  0.88788517203E+03  0.88788517203E+03  0.00000000000E+00 0.  1.
          2   -1    0    0  501    0  0.00000000000E+00 -0.00000000000E+00 -0.19446572704E+04  0.19446572704E+04  0.00000000000E+00 0. -1.
         24    2    1    2    0    0 -0.17627402442E+03 -0.21375148298E+03  0.74362062334E+03  0.79764228305E+03  0.80618559180E+02 0.  0.
        254    2    1    2    0    0  0.17627402442E+03  0.21375148298E+03 -0.18003927217E+04  0.20349001594E+04  0.90699640471E+03 0.  0.
         23    2    4    4    0    0 -0.70108025175E+02  0.22584156655E+03 -0.42071490231E+02  0.25706968020E+03  0.91625661325E+02 0.  0.
         23    2    4    4    0    0  0.24638204960E+03 -0.12090083573E+02 -0.17583212315E+04  0.17778304792E+04  0.90207400858E+02 0.  0.
          4    1    3    3  502    0 -0.30575472991E+02 -0.77417874774E+01  0.13802345586E+03  0.14158131653E+03  0.00000000000E+00 0. -1.
         -3    1    3    3    0  502 -0.14569855143E+03 -0.20600969550E+03  0.60559716748E+03  0.65606096652E+03  0.00000000000E+00 0.  1.
         13    1    5    5    0    0 -0.52320400236E+02  0.42911253349E+02 -0.26310867864E+02  0.72602077881E+02  0.00000000000E+00 0. -1.
        -13    1    5    5    0    0 -0.17787624939E+02  0.18293031320E+03 -0.15760622367E+02  0.18446760232E+03  0.00000000000E+00 0.  1.
          1    1    6    6  503    0  0.16849923131E+03  0.14164386570E+02 -0.91328951507E+03  0.92881126131E+03  0.00000000000E+00 0. -1.
         -1    1    6    6    0  503  0.77882818292E+02 -0.26254470143E+02 -0.84503171645E+03  0.84901921791E+03  0.00000000000E+00 0.  1.
<mgrwt>
<rscale>  0 0.26280277E+04</rscale>
<asrwt>0</asrwt>
<pdfrwt beam="1">  1        2 0.29917804E+00 0.26280277E+04</pdfrwt>
<pdfrwt beam="2">  1       -1 0.13659772E+00 0.26280277E+04</pdfrwt>
<totfact> 0.32185005E+00</totfact>
</mgrwt>
</event>
<event>
12    7  0.1572140E-007  0.1374567E+04  0.7818608E-02  0.8972436E-01
          2   -1    0    0  501    0  0.00000000000E+00  0.00000000000E+00  0.24328273893E+04  0.24328273893E+04  0.00000000000E+00 0. -1.
         -1   -1    0    0    0  501 -0.00000000000E+00 -0.00000000000E+00 -0.19416045747E+03  0.19416045747E+03  0.00000000000E+00 0.  1.
         24    2    1    2    0    0  0.28032272129E+03  0.12413928687E+03  0.19574300240E+03  0.37253538880E+03  0.80472991144E+02 0.  0.
        254    2    1    2    0    0 -0.28032272129E+03 -0.12413928687E+03  0.20429239294E+04  0.22544524580E+04  0.90278807765E+03 0.  0.
         23    2    4    4    0    0 -0.13456122738E+03 -0.23072271557E+03  0.20308469953E+04  0.20503721945E+04  0.91361490583E+02 0.  0.
         23    2    4    4    0    0 -0.14576149392E+03  0.10658342870E+03  0.12076934085E+02  0.20408026349E+03  0.94321053994E+02 0.  0.
          4    1    3    3  502    0  0.69457533279E+01 -0.90327307194E+01  0.10105856084E+01  0.11439186895E+02  0.00000000000E+00 0. -1.
         -3    1    3    3    0  502  0.27337696797E+03  0.13317201759E+03  0.19473241679E+03  0.36109620190E+03  0.00000000000E+00 0.  1.
         13    1    5    5    0    0 -0.90187101355E+02 -0.18483366974E+03  0.12386837396E+04  0.12556411133E+04  0.00000000000E+00 0. -1.
        -13    1    5    5    0    0 -0.44374126021E+02 -0.45889045828E+02  0.79216325572E+03  0.79473108112E+03  0.00000000000E+00 0.  1.
          3    1    6    6  503    0 -0.47000258239E+02  0.86150601927E+02  0.27824019944E+02  0.10200552227E+03  0.00000000000E+00 0. -1.
         -3    1    6    6    0  503 -0.98761235679E+02  0.20432826773E+02 -0.15747085859E+02  0.10207474122E+03  0.00000000000E+00 0.  1.
<mgrwt>
<rscale>  0 0.13745674E+04</rscale>
<asrwt>0</asrwt>
<pdfrwt beam="1">  1        2 0.37428112E+00 0.13745674E+04</pdfrwt>
<pdfrwt beam="2">  1       -1 0.29870841E-01 0.13745674E+04</pdfrwt>
<totfact> 0.43609878E+01</totfact>
</mgrwt>
</event>
<event>
12    7  0.1572140E-007  0.1645188E+04  0.7818608E-02  0.8793258E-01
          2   -1    0    0  501    0  0.00000000000E+00  0.00000000000E+00  0.11924059966E+04  0.11924059966E+04  0.00000000000E+00 0. -1.
         -1   -1    0    0    0  501 -0.00000000000E+00 -0.00000000000E+00 -0.56747529077E+03  0.56747529077E+03  0.00000000000E+00 0.  1.
         24    2    1    2    0    0  0.14727151811E+03 -0.51223478334E+01  0.82642559925E+03  0.84323087235E+03  0.79648568667E+02 0.  0.
        254    2    1    2    0    0 -0.14727151811E+03  0.51223478334E+01 -0.20149489346E+03  0.91665041498E+03  0.88200490514E+03 0.  0.
         23    2    4    4    0    0 -0.50360987055E+02  0.24762237281E+03  0.26295536529E+03  0.37583869792E+03  0.90863271947E+02 0.  0.
         23    2    4    4    0    0 -0.96910531051E+02 -0.24250002497E+03 -0.46445025876E+03  0.54081171706E+03  0.92549215586E+02 0.  0.
          4    1    3    3  502    0  0.10613043774E+03 -0.36741700647E+02  0.48153413646E+03  0.49445803357E+03  0.00000000000E+00 0. -1.
         -1    1    3    3    0  502  0.41141080363E+02  0.31619352813E+02  0.34489146279E+03  0.34877283878E+03  0.00000000000E+00 0.  1.
         13    1    5    5    0    0  0.14413484895E+02  0.15117025680E+03  0.13764578138E+03  0.20495501023E+03  0.00000000000E+00 0. -1.
        -13    1    5    5    0    0 -0.64774471950E+02  0.96452116011E+02  0.12530958392E+03  0.17088368770E+03  0.00000000000E+00 0.  1.
          3    1    6    6  503    0 -0.43612924734E+02 -0.19500279597E+02 -0.81597372991E+02  0.94554108252E+02  0.00000000000E+00 0. -1.
         -3    1    6    6    0  503 -0.53297606317E+02 -0.22299974538E+03 -0.38285288576E+03  0.44625760880E+03  0.00000000000E+00 0.  1.
<mgrwt>
<rscale>  0 0.16451881E+04</rscale>
<asrwt>0</asrwt>
<pdfrwt beam="1">  1        2 0.18344708E+00 0.16451881E+04</pdfrwt>
<pdfrwt beam="2">  1       -1 0.87303891E-01 0.16451881E+04</pdfrwt>
<totfact> 0.26940703E+01</totfact>
</mgrwt>
</event>
<event>
12    7  0.1572140E-007  0.1659703E+04  0.7818608E-02  0.8784687E-01
          2   -1    0    0  501    0  0.00000000000E+00  0.00000000000E+00  0.12221521189E+04  0.12221521189E+04  0.00000000000E+00 0. -1.
         -1   -1    0    0    0  501 -0.00000000000E+00 -0.00000000000E+00 -0.56347632949E+03  0.56347632949E+03  0.00000000000E+00 0.  1.
         24    2    1    2    0    0 -0.41201716767E+01 -0.21841592388E+03 -0.35013578195E+03  0.42039293021E+03  0.80079075600E+02 0.  0.
        254    2    1    2    0    0  0.41201716767E+01  0.21841592388E+03  0.10088115714E+04  0.13652355182E+04  0.89355735240E+03 0.  0.
         23    2    4    4    0    0  0.25494785089E+03  0.40502600347E+03  0.89803225981E+03  0.10212853584E+04  0.86702788381E+02 0.  0.
         23    2    4    4    0    0 -0.25082767921E+03 -0.18661007958E+03  0.11077931158E+03  0.34395015980E+03  0.91059376732E+02 0.  0.
          2    1    3    3  502    0 -0.13565585488E+01  0.66151167184E+01 -0.17709052008E+02  0.18952850533E+02  0.00000000000E+00 0. -1.
         -1    1    3    3    0  502 -0.27636131279E+01 -0.22503104060E+03 -0.33242672994E+03  0.40144007967E+03  0.00000000000E+00 0.  1.
         13    1    5    5    0    0  0.24721609407E+03  0.33732949501E+03  0.76891486684E+03  0.87529255556E+03  0.00000000000E+00 0. -1.
        -13    1    5    5    0    0  0.77317568237E+01  0.67696508461E+02  0.12911739297E+03  0.14599280287E+03  0.00000000000E+00 0.  1.
          4    1    6    6  503    0 -0.22261812394E+03 -0.12010730819E+03  0.93453255433E+02  0.26966294803E+03  0.00000000000E+00 0. -1.
         -4    1    6    6    0  503 -0.28209555272E+02 -0.66502771391E+02  0.17326056149E+02  0.74287211773E+02  0.00000000000E+00 0.  1.
<mgrwt>
<rscale>  0 0.16597033E+04</rscale>
<asrwt>0</asrwt>
<pdfrwt beam="1">  1        2 0.18802340E+00 0.16597033E+04</pdfrwt>
<pdfrwt beam="2">  1       -1 0.86688666E-01 0.16597033E+04</pdfrwt>
<totfact> 0.26231854E+01</totfact>
</mgrwt>
</event>
<event>
12    7  0.1572140E-007  0.1947614E+04  0.7818608E-02  0.8631512E-01
         -1   -1    0    0    0  501 -0.00000000000E+00  0.00000000000E+00  0.58748790455E+03  0.58748790455E+03  0.00000000000E+00 0.  1.
          2   -1    0    0  501    0  0.00000000000E+00 -0.00000000000E+00 -0.16141609568E+04  0.16141609568E+04  0.00000000000E+00 0. -1.
         24    2    1    2    0    0 -0.18114981333E+03  0.77556162046E+01 -0.12438115945E+04  0.12594456604E+04  0.79124486492E+02 0.  0.
        254    2    1    2    0    0  0.18114981333E+03 -0.77556162046E+01  0.21713854229E+03  0.94220320093E+03  0.89873373189E+03 0.  0.
         23    2    4    4    0    0 -0.35727504295E+03 -0.34980381923E+02  0.10859598887E+03  0.38457314240E+03  0.85054862432E+02 0.  0.
         23    2    4    4    0    0  0.53842485629E+03  0.27224765718E+02  0.10854255343E+03  0.55763005852E+03  0.92343286318E+02 0.  0.
          4    1    3    3  502    0 -0.83990213366E+02 -0.11926108670E+02 -0.81107379756E+03  0.81549818706E+03  0.00000000000E+00 0. -1.
         -3    1    3    3    0  502 -0.97159599968E+02  0.19681724874E+02 -0.43273779697E+03  0.44394747335E+03  0.00000000000E+00 0.  1.
         13    1    5    5    0    0 -0.32902880950E+03 -0.55275245503E+02  0.92349109973E+02  0.34618444269E+03  0.00000000000E+00 0. -1.
        -13    1    5    5    0    0 -0.28246233453E+02  0.20294863581E+02  0.16246878892E+02  0.38388699715E+02  0.00000000000E+00 0.  1.
          1    1    6    6  503    0  0.50791748208E+03  0.29472017509E+01  0.98862199858E+02  0.51745781390E+03  0.00000000000E+00 0. -1.
         -1    1    6    6    0  503  0.30507374205E+02  0.24277563967E+02  0.96803535693E+01  0.40172244626E+02  0.00000000000E+00 0.  1.
<mgrwt>
<rscale>  0 0.19476140E+04</rscale>
<asrwt>0</asrwt>
<pdfrwt beam="1">  1        2 0.24833245E+00 0.19476140E+04</pdfrwt>
<pdfrwt beam="2">  1       -1 0.90382756E-01 0.19476140E+04</pdfrwt>
<totfact> 0.13926647E+01</totfact>
</mgrwt>
</event>
<event>
12    7  0.1572140E-007  0.2094993E+04  0.7818608E-02  0.8563452E-01
         -1   -1    0    0    0  501 -0.00000000000E+00  0.00000000000E+00  0.81836542596E+03  0.81836542596E+03  0.00000000000E+00 0.  1.
          2   -1    0    0  501    0  0.00000000000E+00 -0.00000000000E+00 -0.13407815617E+04  0.13407815617E+04  0.00000000000E+00 0. -1.
         24    2    1    2    0    0 -0.52455633127E+03  0.37110107147E+03  0.35955601539E+03  0.74064159240E+03  0.79963055711E+02 0.  0.
        254    2    1    2    0    0  0.52455633127E+03 -0.37110107147E+03 -0.88197215115E+03  0.14185053953E+04  0.90631524929E+03 0.  0.
         23    2    4    4    0    0  0.33873340870E+03 -0.56206027689E+02  0.97544334383E+02  0.36895616211E+03  0.93350482989E+02 0.  0.
         23    2    4    4    0    0  0.18582292257E+03 -0.31489504378E+03 -0.97951648554E+03  0.10495492332E+04  0.91716957232E+02 0.  0.
          4    1    3    3  502    0 -0.80006181982E+02  0.36502410188E+02  0.75615864297E+02  0.11597919658E+03  0.00000000000E+00 0. -1.
         -3    1    3    3    0  502 -0.44455014928E+03  0.33459866128E+03  0.28394015109E+03  0.62466239583E+03  0.00000000000E+00 0.  1.
         13    1    5    5    0    0  0.28717199669E+03 -0.12580116514E+02  0.68884769505E+02  0.29558607289E+03  0.00000000000E+00 0.  1.
        -13    1    5    5    0    0  0.51561412005E+02 -0.43625911175E+02  0.28659564878E+02  0.73370089225E+02  0.00000000000E+00 0. -1.
          1    1    6    6  503    0  0.68759755347E+02 -0.18133634039E+03 -0.59932680059E+03  0.62992331772E+03  0.00000000000E+00 0. -1.
         -1    1    6    6    0  503  0.11706316722E+03 -0.13355870340E+03 -0.38018968495E+03  0.41962591545E+03  0.00000000000E+00 0.  1.
<mgrwt>
<rscale>  0 0.20949933E+04</rscale>
<asrwt>0</asrwt>
<pdfrwt beam="1">  1        2 0.20627408E+00 0.20949933E+04</pdfrwt>
<pdfrwt beam="2">  1       -1 0.12590237E+00 0.20949933E+04</pdfrwt>
<totfact> 0.90410534E+00</totfact>
</mgrwt>
</event>
<event>
12    7  0.1572140E-007  0.1524233E+04  0.7818608E-02  0.8868496E-01
         -1   -1    0    0    0  501 -0.00000000000E+00  0.00000000000E+00  0.69094107552E+03  0.69094107552E+03  0.00000000000E+00 0.  1.
          2   -1    0    0  501    0  0.00000000000E+00 -0.00000000000E+00 -0.84062421961E+03  0.84062421961E+03  0.00000000000E+00 0. -1.
         24    2    1    2    0    0 -0.99907760476E+02 -0.22468520026E+03 -0.47835456439E+03  0.54392496740E+03  0.81032592671E+02 0.  0.
        254    2    1    2    0    0  0.99907760476E+02  0.22468520026E+03  0.32867142030E+03  0.98764032774E+03  0.89830034768E+03 0.  0.
         23    2    4    4    0    0  0.10911380665E+03  0.54731049576E+03  0.32532703532E+03  0.65243709408E+03  0.91552609210E+02 0.  0.
         23    2    4    4    0    0 -0.92060461745E+01 -0.32262529550E+03  0.33443849745E+01  0.33520323366E+03  0.90433347619E+02 0.  0.
          4    1    3    3  502    0 -0.39992543873E+02 -0.17658720179E+03 -0.35707788833E+03  0.40035866637E+03  0.00000000000E+00 0. -1.
         -3    1    3    3    0  502 -0.59915216603E+02 -0.48097998467E+02 -0.12127667606E+03  0.14356630104E+03  0.00000000000E+00 0.  1.
         13    1    5    5    0    0  0.87951367290E+02  0.40110206513E+03  0.28318924210E+03  0.49881304765E+03  0.00000000000E+00 0.  1.
        -13    1    5    5    0    0  0.21162439360E+02  0.14620843062E+03  0.42137793226E+02  0.15362404643E+03  0.00000000000E+00 0. -1.
          1    1    6    6  503    0 -0.17677988493E+01  0.54097453411E+01  0.42159678554E+01  0.70827143374E+01  0.00000000000E+00 0. -1.
         -1    1    6    6    0  503 -0.74382473252E+01 -0.32803504084E+03 -0.87158288087E+00  0.32812051932E+03  0.00000000000E+00 0.  1.
<mgrwt>
<rscale>  0 0.15242333E+04</rscale>
<asrwt>0</asrwt>
<pdfrwt beam="1">  1        2 0.12932680E+00 0.15242333E+04</pdfrwt>
<pdfrwt beam="2">  1       -1 0.10629863E+00 0.15242333E+04</pdfrwt>
<totfact> 0.29356196E+01</totfact>
</mgrwt>
</event>
<event>
12    7  0.1572140E-007  0.1309675E+04  0.7818608E-02  0.9021927E-01
         -1   -1    0    0    0  501 -0.00000000000E+00  0.00000000000E+00  0.55975068688E+03  0.55975068688E+03  0.00000000000E+00 0.  1.
          2   -1    0    0  501    0  0.00000000000E+00 -0.00000000000E+00 -0.76607751438E+03  0.76607751438E+03  0.00000000000E+00 0. -1.
         24    2    1    2    0    0 -0.44343304397E+02 -0.24911821192E+03 -0.29030069900E+03  0.39310079507E+03  0.78914682320E+02 0.  0.
        254    2    1    2    0    0  0.44343304397E+02  0.24911821192E+03  0.83973871499E+02  0.93272740619E+03  0.89381351020E+03 0.  0.
         23    2    4    4    0    0 -0.38473629516E+03  0.66933274383E+01  0.15850644618E+03  0.42605740590E+03  0.91289660948E+02 0.  0.
         23    2    4    4    0    0  0.42907959956E+03  0.24242488448E+03 -0.74532574686E+02  0.50667000029E+03  0.90995918191E+02 0.  0.
          2    1    3    3  502    0 -0.26314880933E+02 -0.22752271840E+03 -0.28293475960E+03  0.36402079410E+03  0.00000000000E+00 0. -1.
         -1    1    3    3    0  502 -0.18028423465E+02 -0.21595493524E+02 -0.73659394034E+01  0.29080000971E+02  0.00000000000E+00 0.  1.
         13    1    5    5    0    0 -0.26690276408E+02  0.14595364842E+02  0.36941134730E+02  0.47854393370E+02  0.00000000000E+00 0.  1.
        -13    1    5    5    0    0 -0.35804601876E+03 -0.79020374041E+01  0.12156531145E+03  0.37820301253E+03  0.00000000000E+00 0. -1.
          1    1    6    6  503    0  0.35599473786E+03  0.23354504052E+03 -0.78499908907E+02  0.43294084473E+03  0.00000000000E+00 0. -1.
         -1    1    6    6    0  503  0.73084861702E+02  0.88798439600E+01  0.39673342210E+01  0.73729155560E+02  0.00000000000E+00 0.  1.
<mgrwt>
<rscale>  0 0.13096754E+04</rscale>
<asrwt>0</asrwt>
<pdfrwt beam="1">  1        2 0.11785808E+00 0.13096754E+04</pdfrwt>
<pdfrwt beam="2">  1       -1 0.86115491E-01 0.13096754E+04</pdfrwt>
<totfact> 0.54318915E+01</totfact>
</mgrwt>
</event>
<event>
12    7  0.1572140E-007  0.2820116E+04  0.7818608E-02  0.8297050E-01
          2   -1    0    0  501    0  0.00000000000E+00  0.00000000000E+00  0.22594744502E+04  0.22594744502E+04  0.00000000000E+00 0. -1.
         -1   -1    0    0    0  501 -0.00000000000E+00 -0.00000000000E+00 -0.87996741482E+03  0.87996741482E+03  0.00000000000E+00 0.  1.
         24    2    1    2    0    0  0.55888533125E+03  0.72983953567E+01 -0.64369700420E+03  0.85616219235E+03  0.79131449763E+02 0.  0.
        254    2    1    2    0    0 -0.55888533125E+03 -0.72983953567E+01  0.20232040396E+04  0.22832796727E+04  0.89866868077E+03 0.  0.
         23    2    4    4    0    0  0.22529879338E+03  0.17379572571E+02  0.29964827840E+03  0.38711838032E+03  0.94920776417E+02 0.  0.
         23    2    4    4    0    0 -0.78418412463E+03 -0.24677967927E+02  0.17235557612E+04  0.18961612923E+04  0.96069981055E+02 0.  0.
          2    1    3    3  502    0  0.16097180335E+03  0.10388709316E+02 -0.13519682701E+03  0.21047096899E+03  0.00000000000E+00 0. -1.
         -1    1    3    3    0  502  0.39791352791E+03 -0.30903139591E+01 -0.50850017719E+03  0.64569122337E+03  0.00000000000E+00 0.  1.
         13    1    5    5    0    0  0.11435117292E+03  0.26173369004E+02  0.22303135207E+03  0.25200043651E+03  0.00000000000E+00 0.  1.
        -13    1    5    5    0    0  0.11094762046E+03 -0.87937964335E+01  0.76616926329E+02  0.13511794382E+03  0.00000000000E+00 0. -1.
          1    1    6    6  503    0 -0.73113283872E+03 -0.38324755800E+02  0.16430356709E+04  0.17987746470E+04  0.00000000000E+00 0. -1.
         -1    1    6    6    0  503 -0.53051285912E+02  0.13646787873E+02  0.80520090239E+02  0.97386645328E+02  0.00000000000E+00 0.  1.
<mgrwt>
<rscale>  0 0.28201162E+04</rscale>
<asrwt>0</asrwt>
<pdfrwt beam="1">  1        2 0.34761145E+00 0.28201162E+04</pdfrwt>
<pdfrwt beam="2">  1       -1 0.13537960E+00 0.28201162E+04</pdfrwt>
<totfact> 0.21591582E+00</totfact>
</mgrwt>
</event>
<event>
12    7  0.1572140E-007  0.1473796E+04  0.7818608E-02  0.8902068E-01
         -3   -1    0    0    0  501 -0.00000000000E+00  0.00000000000E+00  0.11976877489E+04  0.11976877489E+04  0.00000000000E+00 0.  1.
          4   -1    0    0  501    0  0.00000000000E+00 -0.00000000000E+00 -0.45338932661E+03  0.45338932661E+03  0.00000000000E+00 0. -1.
         24    2    1    2    0    0  0.76389507827E+02  0.41746864792E+01 -0.27658530556E+03  0.29805759251E+03  0.80536403485E+02 0.  0.
        254    2    1    2    0    0 -0.76389507827E+02 -0.41746864792E+01  0.10208837279E+04  0.13530194830E+04  0.88464984635E+03 0.  0.
         23    2    4    4    0    0 -0.38222713576E+03  0.24408573495E+03  0.69395132395E+03  0.83387722392E+03  0.90040853195E+02 0.  0.
         23    2    4    4    0    0  0.30583762794E+03 -0.24826042143E+03  0.32693240392E+03  0.51914225909E+03  0.86336532977E+02 0.  0.
          2    1    3    3  502    0  0.50077915830E+02  0.41677553436E+02 -0.15563868862E+03  0.16872527229E+03  0.00000000000E+00 0. -1.
         -1    1    3    3    0  502  0.26311591997E+02 -0.37502866956E+02 -0.12094661694E+03  0.12933232022E+03  0.00000000000E+00 0.  1.
         13    1    5    5    0    0 -0.20527574927E+03  0.10041713224E+03  0.41389024081E+03  0.47278627849E+03  0.00000000000E+00 0. -1.
        -13    1    5    5    0    0 -0.17695138650E+03  0.14366860271E+03  0.28006108313E+03  0.36109094543E+03  0.00000000000E+00 0.  1.
          3    1    6    6  503    0  0.54971697418E+02 -0.79041657379E+02  0.47940023566E+02  0.10755332156E+03  0.00000000000E+00 0. -1.
         -3    1    6    6    0  503  0.25086593052E+03 -0.16921876405E+03  0.27899238036E+03  0.41158893753E+03  0.00000000000E+00 0.  1.
<mgrwt>
<rscale>  0 0.14737962E+04</rscale>
<asrwt>0</asrwt>
<pdfrwt beam="1">  1        4 0.69752205E-01 0.14737962E+04</pdfrwt>
<pdfrwt beam="2">  1       -3 0.18425965E+00 0.14737962E+04</pdfrwt>
<totfact> 0.77450920E-01</totfact>
</mgrwt>
</event>
<event>
12    7  0.1572140E-007  0.1564195E+04  0.7818608E-02  0.8842851E-01
          2   -1    0    0  501    0  0.00000000000E+00  0.00000000000E+00  0.90638973804E+03  0.90638973804E+03  0.00000000000E+00 0. -1.
         -1   -1    0    0    0  501 -0.00000000000E+00 -0.00000000000E+00 -0.67484965297E+03  0.67484965297E+03  0.00000000000E+00 0.  1.
         24    2    1    2    0    0  0.46016842838E+03  0.20781420570E+03 -0.47850537197E+02  0.51331136688E+03  0.79102205321E+02 0.  0.
        254    2    1    2    0    0 -0.46016842838E+03 -0.20781420570E+03  0.27939062227E+03  0.10679280241E+04  0.89859302154E+03 0.  0.
         23    2    4    4    0    0 -0.56663723834E+02 -0.50113461694E+03  0.60535855913E+02  0.51563147713E+03  0.88682289404E+02 0.  0.
         23    2    4    4    0    0 -0.40350470455E+03  0.29332041125E+03  0.21885476636E+03  0.55229654701E+03  0.91000861748E+02 0.  0.
          2    1    3    3  502    0  0.35867552154E+03  0.15911029779E+03 -0.70003843017E+02  0.39857841720E+03  0.00000000000E+00 0. -1.
         -1    1    3    3    0  502  0.10149290684E+03  0.48703907902E+02  0.22153305820E+02  0.11473294968E+03  0.00000000000E+00 0.  1.
         13    1    5    5    0    0  0.56089134331E+01 -0.50695830540E+02 -0.18174746783E+02  0.54146547116E+02  0.00000000000E+00 0.  1.
        -13    1    5    5    0    0 -0.62272637267E+02 -0.45043878640E+03  0.78710602695E+02  0.46148493001E+03  0.00000000000E+00 0. -1.
          4    1    6    6  503    0 -0.30412211947E+03  0.26574663295E+03  0.17817301258E+03  0.44142627797E+03  0.00000000000E+00 0. -1.
         -4    1    6    6    0  503 -0.99382585079E+02  0.27573778300E+02  0.40681753782E+02  0.11087026904E+03  0.00000000000E+00 0.  1.
<mgrwt>
<rscale>  0 0.15641954E+04</rscale>
<asrwt>0</asrwt>
<pdfrwt beam="1">  1        2 0.13944457E+00 0.15641954E+04</pdfrwt>
<pdfrwt beam="2">  1       -1 0.10382302E+00 0.15641954E+04</pdfrwt>
<totfact> 0.27851933E+01</totfact>
</mgrwt>
</event>
<event>
12    7  0.1572140E-007  0.2345015E+04  0.7818608E-02  0.8460381E-01
         -1   -1    0    0    0  501 -0.00000000000E+00  0.00000000000E+00  0.59987626202E+03  0.59987626202E+03  0.00000000000E+00 0.  1.
          2   -1    0    0  501    0  0.00000000000E+00 -0.00000000000E+00 -0.22917630301E+04  0.22917630301E+04  0.00000000000E+00 0. -1.
         24    2    1    2    0    0  0.48182574761E+03 -0.58176404418E+03  0.82905402068E+02  0.76414724556E+03  0.80263647107E+02 0.  0.
        254    2    1    2    0    0 -0.48182574761E+03  0.58176404418E+03 -0.17747921701E+04  0.21274920465E+04  0.89762447982E+03 0.  0.
         23    2    4    4    0    0 -0.25018790019E+03  0.64028608386E+03 -0.57406346779E+03  0.89981311115E+03  0.86916715171E+02 0.  0.
         23    2    4    4    0    0 -0.23163784742E+03 -0.58522039678E+02 -0.12007287023E+04  0.12276789354E+04  0.91461632815E+02 0.  0.
          4    1    3    3  502    0  0.12588992293E+03 -0.18324694547E+03  0.55347495184E+02  0.22910927730E+03  0.00000000000E+00 0. -1.
         -3    1    3    3    0  502  0.35593582468E+03 -0.39851709870E+03  0.27557906884E+02  0.53503796826E+03  0.00000000000E+00 0.  1.
         13    1    5    5    0    0 -0.16197523506E+03  0.43061628653E+03 -0.33002715430E+03  0.56620162978E+03  0.00000000000E+00 0. -1.
        -13    1    5    5    0    0 -0.88212665127E+02  0.20966979733E+03 -0.24403631349E+03  0.33361148137E+03  0.00000000000E+00 0.  1.
          3    1    6    6  503    0 -0.11799714953E+03  0.55007526412E+01 -0.42721994869E+03  0.44324989581E+03  0.00000000000E+00 0. -1.
         -3    1    6    6    0  503 -0.11364069788E+03 -0.64022792319E+02 -0.77350875364E+03  0.78442903957E+03  0.00000000000E+00 0.  1.
<mgrwt>
<rscale>  0 0.23450153E+04</rscale>
<asrwt>0</asrwt>
<pdfrwt beam="1">  1        2 0.35257893E+00 0.23450153E+04</pdfrwt>
<pdfrwt beam="2">  1       -1 0.92288656E-01 0.23450153E+04</pdfrwt>
<totfact> 0.53800734E+00</totfact>
</mgrwt>
</event>
<event>
12    7  0.1572140E-007  0.2396303E+04  0.7818608E-02  0.8440889E-01
         -1   -1    0    0    0  501 -0.00000000000E+00  0.00000000000E+00  0.20646670346E+04  0.20646670346E+04  0.00000000000E+00 0.  1.
          2   -1    0    0  501    0  0.00000000000E+00 -0.00000000000E+00 -0.69530171636E+03  0.69530171636E+03  0.00000000000E+00 0. -1.
         24    2    1    2    0    0 -0.68498273189E+03 -0.38457841088E+03  0.13515782025E+04  0.15651093615E+04  0.75510123641E+02 0.  0.
        254    2    1    2    0    0  0.68498273189E+03  0.38457841088E+03  0.17787115722E+02  0.11948593895E+04  0.90015036635E+03 0.  0.
         23    2    4    4    0    0  0.32164934312E+03  0.55057499855E+03  0.28581922126E+03  0.70466422166E+03  0.90928043504E+02 0.  0.
         23    2    4    4    0    0  0.36333338877E+03 -0.16599658767E+03 -0.26803210553E+03  0.49019516781E+03  0.94255368207E+02 0.  0.
          4    1    3    3  502    0 -0.71293062814E+02 -0.55800417384E+02  0.11936437383E+03  0.14981402179E+03  0.00000000000E+00 0. -1.
         -3    1    3    3    0  502 -0.61368966908E+03 -0.32877799350E+03  0.12322138287E+04  0.14152953397E+04  0.00000000000E+00 0.  1.
         13    1    5    5    0    0  0.29514370190E+03  0.51312168079E+03  0.28888346902E+03  0.65867846689E+03  0.00000000000E+00 0. -1.
        -13    1    5    5    0    0  0.26505641224E+02  0.37453317764E+02 -0.30642477684E+01  0.45985754779E+02  0.00000000000E+00 0.  1.
          3    1    6    6  503    0  0.15366233705E+03 -0.12181490658E+03 -0.13233577466E+03  0.23656657107E+03  0.00000000000E+00 0. -1.
         -3    1    6    6    0  503  0.20967105172E+03 -0.44181681093E+02 -0.13569633087E+03  0.25362859674E+03  0.00000000000E+00 0.  1.
<mgrwt>
<rscale>  0 0.23963026E+04</rscale>
<asrwt>0</asrwt>
<pdfrwt beam="1">  1        2 0.10696950E+00 0.23963026E+04</pdfrwt>
<pdfrwt beam="2">  1       -1 0.31764108E+00 0.23963026E+04</pdfrwt>
<totfact> 0.10757754E+00</totfact>
</mgrwt>
</event>
<event>
12    7  0.1572140E-007  0.2983309E+04  0.7818608E-02  0.8248513E-01
          2   -1    0    0  501    0  0.00000000000E+00  0.00000000000E+00  0.17631563595E+04  0.17631563595E+04  0.00000000000E+00 0. -1.
         -1   -1    0    0    0  501 -0.00000000000E+00 -0.00000000000E+00 -0.12619601408E+04  0.12619601408E+04  0.00000000000E+00 0.  1.
         24    2    1    2    0    0 -0.11441411648E+04 -0.55067291211E+03 -0.24626187336E+03  0.12957745727E+04  0.78020328384E+02 0.  0.
        254    2    1    2    0    0  0.11441411648E+04  0.55067291211E+03  0.74745809201E+03  0.17293419277E+04  0.90533432626E+03 0.  0.
         23    2    4    4    0    0 -0.72983064524E+02  0.20297326560E+03  0.30675296469E+03  0.38600939563E+03  0.91548882648E+02 0.  0.
         23    2    4    4    0    0  0.12171242294E+04  0.34769964652E+03  0.44070512732E+03  0.13433325321E+04  0.89637316602E+02 0.  0.
          4    1    3    3  502    0 -0.70705004261E+02 -0.36918498795E+02 -0.35078694566E+02  0.87136031545E+02  0.00000000000E+00 0. -1.
         -3    1    3    3    0  502 -0.10734361606E+04 -0.51375441332E+03 -0.21118317879E+03  0.12086385411E+04  0.00000000000E+00 0.  1.
         13    1    5    5    0    0 -0.72615002314E+02  0.20677459738E+03  0.31089589879E+03  0.38037472651E+03  0.00000000000E+00 0. -1.
        -13    1    5    5    0    0 -0.36806220941E+00 -0.38013317861E+01 -0.41429340991E+01  0.56346691196E+01  0.00000000000E+00 0.  1.
          1    1    6    6  503    0  0.11787002455E+04  0.32340054642E+03  0.43569442914E+03  0.12975946277E+04  0.00000000000E+00 0. -1.
         -1    1    6    6    0  503  0.38423983879E+02  0.24299100096E+02  0.50106981890E+01  0.45737904401E+02  0.00000000000E+00 0.  1.
<mgrwt>
<rscale>  0 0.29833089E+04</rscale>
<asrwt>0</asrwt>
<pdfrwt beam="1">  1        2 0.27125483E+00 0.29833089E+04</pdfrwt>
<pdfrwt beam="2">  1       -1 0.19414771E+00 0.29833089E+04</pdfrwt>
<totfact> 0.14583306E+00</totfact>
</mgrwt>
</event>
<event>
12    7  0.1572140E-007  0.1614826E+04  0.7818608E-02  0.8811491E-01
          2   -1    0    0  501    0  0.00000000000E+00  0.00000000000E+00  0.68891054872E+03  0.68891054872E+03  0.00000000000E+00 0. -1.
         -1   -1    0    0    0  501 -0.00000000000E+00 -0.00000000000E+00 -0.94629977399E+03  0.94629977399E+03  0.00000000000E+00 0.  1.
         24    2    1    2    0    0  0.73865871600E+02  0.54341508220E+03 -0.18495837676E+02  0.55470913138E+03  0.81265034750E+02 0.  0.
        254    2    1    2    0    0 -0.73865871600E+02 -0.54341508220E+03 -0.23889338760E+03  0.10805011913E+04  0.89980923270E+03 0.  0.
         23    2    4    4    0    0 -0.13636642403E+03  0.96028290085E+02 -0.37213210034E+03  0.41810723600E+03  0.92272024966E+02 0.  0.
         23    2    4    4    0    0  0.62500552426E+02 -0.63944337229E+03  0.13323871274E+03  0.66239395533E+03  0.90658987756E+02 0.  0.
          4    1    3    3  502    0  0.39214231938E+02  0.21285985524E+03 -0.45760034461E+02  0.22122625231E+03  0.00000000000E+00 0. -1.
         -3    1    3    3    0  502  0.34651639662E+02  0.33055522697E+03  0.27264196785E+02  0.33348287907E+03  0.00000000000E+00 0.  1.
         13    1    5    5    0    0 -0.77829071177E+01  0.54056060673E+02 -0.91037134084E+02  0.10616209833E+03  0.00000000000E+00 0.  1.
        -13    1    5    5    0    0 -0.12858351691E+03  0.41972229412E+02 -0.28109496626E+03  0.31194513767E+03  0.00000000000E+00 0. -1.
          4    1    6    6  503    0  0.79445272705E+02 -0.57173454955E+03  0.10307743490E+03  0.58635902320E+03  0.00000000000E+00 0. -1.
         -4    1    6    6    0  503 -0.16944720280E+02 -0.67708822744E+02  0.30161277844E+02  0.76034932130E+02  0.00000000000E+00 0.  1.
<mgrwt>
<rscale>  0 0.16148262E+04</rscale>
<asrwt>0</asrwt>
<pdfrwt beam="1">  1        2 0.10598624E+00 0.16148262E+04</pdfrwt>
<pdfrwt beam="2">  1       -1 0.14558458E+00 0.16148262E+04</pdfrwt>
<totfact> 0.17291276E+01</totfact>
</mgrwt>
</event>
<event>
12    7  0.1572140E-007  0.1076502E+04  0.7818608E-02  0.9228402E-01
         -1   -1    0    0    0  501 -0.00000000000E+00  0.00000000000E+00  0.47900928546E+03  0.47900928546E+03  0.00000000000E+00 0.  1.
          2   -1    0    0  501    0  0.00000000000E+00 -0.00000000000E+00 -0.60481972039E+03  0.60481972039E+03  0.00000000000E+00 0. -1.
         24    2    1    2    0    0  0.12472414281E+02  0.98363686945E+02  0.88304533545E+02  0.15418447235E+03  0.78384850844E+02 0.  0.
        254    2    1    2    0    0 -0.12472414281E+02 -0.98363686945E+02 -0.21411496848E+03  0.92964453349E+03  0.89920118044E+03 0.  0.
         23    2    4    4    0    0 -0.28752512126E+02  0.39294396537E+03 -0.10834159219E+03  0.41864817217E+03  0.91086357860E+02 0.  0.
         23    2    4    4    0    0  0.16280097845E+02 -0.49130765232E+03 -0.10577337629E+03  0.51099636132E+03  0.91000128247E+02 0.  0.
          2    1    3    3  502    0 -0.19059228989E+02 -0.18375973617E+01  0.41629680827E+01  0.19594929879E+02  0.00000000000E+00 0. -1.
         -1    1    3    3    0  502  0.31531643270E+02  0.10020128431E+03  0.84141565462E+02  0.13458954247E+03  0.00000000000E+00 0.  1.
         13    1    5    5    0    0 -0.14635575293E+02  0.38338101081E+03 -0.11471775442E+03  0.40044395700E+03  0.00000000000E+00 0. -1.
        -13    1    5    5    0    0 -0.14116936833E+02  0.95629545597E+01  0.63761622252E+01  0.18204215176E+02  0.00000000000E+00 0.  1.
          4    1    6    6  503    0  0.39874427374E+02 -0.42701335806E+03 -0.10875199169E+03  0.44244476900E+03  0.00000000000E+00 0. -1.
         -4    1    6    6    0  503 -0.23594329530E+02 -0.64294294261E+02  0.29786154001E+01  0.68551592324E+02  0.00000000000E+00 0.  1.
<mgrwt>
<rscale>  0 0.10765022E+04</rscale>
<asrwt>0</asrwt>
<pdfrwt beam="1">  1        2 0.93049187E-01 0.10765022E+04</pdfrwt>
<pdfrwt beam="2">  1       -1 0.73693737E-01 0.10765022E+04</pdfrwt>
<totfact> 0.10355312E+02</totfact>
</mgrwt>
</event>
<event>
12    7  0.1572140E-007  0.1731042E+04  0.7818608E-02  0.8743855E-01
         -1   -1    0    0    0  501 -0.00000000000E+00  0.00000000000E+00  0.38832954467E+03  0.38832954467E+03  0.00000000000E+00 0.  1.
          2   -1    0    0  501    0  0.00000000000E+00 -0.00000000000E+00 -0.19291009402E+04  0.19291009402E+04  0.00000000000E+00 0. -1.
         24    2    1    2    0    0 -0.58814318697E+03 -0.10066999174E+03 -0.41940999243E+03  0.73332625305E+03  0.76261366656E+02 0.  0.
        254    2    1    2    0    0  0.58814318697E+03  0.10066999174E+03 -0.11213614031E+04  0.15841042318E+04  0.94651358430E+03 0.  0.
         23    2    4    4    0    0  0.56475025090E+03  0.36726191679E+02 -0.13261435805E+03  0.58897172405E+03  0.94918200188E+02 0.  0.
         23    2    4    4    0    0  0.23392936073E+02  0.63943800065E+02 -0.98874704504E+03  0.99513250776E+03  0.89621146475E+02 0.  0.
          4    1    3    3  502    0 -0.28384908271E+03 -0.37135659388E+02 -0.15683613780E+03  0.32641527703E+03  0.00000000000E+00 0. -1.
         -3    1    3    3    0  502 -0.30429410425E+03 -0.63534332356E+02 -0.26257385463E+03  0.40691097602E+03  0.00000000000E+00 0.  1.
         13    1    5    5    0    0  0.16714560944E+03  0.54477732555E+02 -0.44123834123E+02  0.18125228506E+03  0.00000000000E+00 0. -1.
        -13    1    5    5    0    0  0.39760464145E+03 -0.17751540876E+02 -0.88490523930E+02  0.40771943899E+03  0.00000000000E+00 0.  1.
          1    1    6    6  503    0  0.49387494601E+02  0.20107798695E+02 -0.69107972479E+03  0.69313392227E+03  0.00000000000E+00 0. -1.
         -1    1    6    6    0  503 -0.25994558528E+02  0.43836001370E+02 -0.29766732026E+03  0.30199858549E+03  0.00000000000E+00 0.  1.
<mgrwt>
<rscale>  0 0.17310423E+04</rscale>
<asrwt>0</asrwt>
<pdfrwt beam="1">  1        2 0.29678477E+00 0.17310423E+04</pdfrwt>
<pdfrwt beam="2">  1       -1 0.59743005E-01 0.17310423E+04</pdfrwt>
<totfact> 0.22468478E+01</totfact>
</mgrwt>
</event>
<event>
12    7  0.1572140E-007  0.1398846E+04  0.7818608E-02  0.8954655E-01
          2   -1    0    0  501    0  0.00000000000E+00  0.00000000000E+00  0.20284502750E+04  0.20284502750E+04  0.00000000000E+00 0. -1.
         -1   -1    0    0    0  501 -0.00000000000E+00 -0.00000000000E+00 -0.24116548857E+03  0.24116548857E+03  0.00000000000E+00 0.  1.
         24    2    1    2    0    0 -0.92653451095E+02  0.22883982567E+03  0.73689522771E+01  0.25972972451E+03  0.80329947872E+02 0.  0.
        254    2    1    2    0    0  0.92653451095E+02 -0.22883982567E+03  0.17799158342E+04  0.20098860391E+04  0.90032726578E+03 0.  0.
         23    2    4    4    0    0  0.10240920400E+02 -0.12917604910E+03 -0.55223646176E+02  0.16783700505E+03  0.91259416260E+02 0.  0.
         23    2    4    4    0    0  0.82412530694E+02 -0.99663776572E+02  0.18351394804E+04  0.18420490340E+04  0.93182819359E+02 0.  0.
          4    1    3    3  502    0 -0.89377874762E+01  0.29760843895E+02 -0.26854550181E+02  0.41070168489E+02  0.00000000000E+00 0. -1.
         -3    1    3    3    0  502 -0.83715663618E+02  0.19907898178E+03  0.34223502458E+02  0.21865955603E+03  0.00000000000E+00 0.  1.
         13    1    5    5    0    0 -0.15963371926E+02 -0.11824151833E+03 -0.17453016351E+02  0.12058396942E+03  0.00000000000E+00 0. -1.
        -13    1    5    5    0    0  0.26204292326E+02 -0.10934530770E+02 -0.37770629825E+02  0.47253035636E+02  0.00000000000E+00 0.  1.
          3    1    6    6  503    0  0.45175803543E+02 -0.17057554486E+02  0.26966499475E+03  0.27395441734E+03  0.00000000000E+00 0. -1.
         -3    1    6    6    0  503  0.37236727152E+02 -0.82606222086E+02  0.15654744856E+04  0.15680946167E+04  0.00000000000E+00 0.  1.
<mgrwt>
<rscale>  0 0.13988455E+04</rscale>
<asrwt>0</asrwt>
<pdfrwt beam="1">  1        2 0.31206926E+00 0.13988455E+04</pdfrwt>
<pdfrwt beam="2">  1       -1 0.37102384E-01 0.13988455E+04</pdfrwt>
<totfact> 0.49928431E+01</totfact>
</mgrwt>
</event>
<event>
12    7  0.1572140E-007  0.2471768E+04  0.7818608E-02  0.8413113E-01
          2   -1    0    0  501    0  0.00000000000E+00  0.00000000000E+00  0.32890412241E+04  0.32890412241E+04  0.00000000000E+00 0. -1.
         -1   -1    0    0    0  501 -0.00000000000E+00 -0.00000000000E+00 -0.46439356417E+03  0.46439356417E+03  0.00000000000E+00 0.  1.
         24    2    1    2    0    0 -0.80087404732E+03 -0.13538517925E+02  0.23003320938E+04  0.24370912394E+04  0.79394181223E+02 0.  0.
        254    2    1    2    0    0  0.80087404732E+03  0.13538517925E+02  0.52431556610E+03  0.13163435489E+04  0.90347716890E+03 0.  0.
         23    2    4    4    0    0  0.55811997429E+03  0.12545227923E+02  0.77282270563E+03  0.95738025814E+03  0.87559898872E+02 0.  0.
         23    2    4    4    0    0  0.24275407303E+03  0.99329000146E+00 -0.24850713953E+03  0.35896329076E+03  0.90378753687E+02 0.  0.
          2    1    3    3  502    0 -0.60535874733E+03 -0.39786670367E+02  0.16827097913E+04  0.17887298382E+04  0.00000000000E+00 0. -1.
         -1    1    3    3    0  502 -0.19551530000E+03  0.26248152442E+02  0.61762230250E+03  0.64836140121E+03  0.00000000000E+00 0.  1.
         13    1    5    5    0    0  0.41181396610E+03 -0.85007207231E+00  0.62874025737E+03  0.75160213979E+03  0.00000000000E+00 0.  1.
        -13    1    5    5    0    0  0.14630600819E+03  0.13395299996E+02  0.14408244826E+03  0.20577811835E+03  0.00000000000E+00 0. -1.
          3    1    6    6  503    0  0.13624886283E+02 -0.12142498032E+02 -0.57645547890E+02  0.60465585057E+02  0.00000000000E+00 0. -1.
         -3    1    6    6    0  503  0.22912918675E+03  0.13135788033E+02 -0.19086159164E+03  0.29849770570E+03  0.00000000000E+00 0.  1.
<mgrwt>
<rscale>  0 0.24717683E+04</rscale>
<asrwt>0</asrwt>
<pdfrwt beam="1">  1        2 0.50600633E+00 0.24717683E+04</pdfrwt>
<pdfrwt beam="2">  1       -1 0.71445166E-01 0.24717683E+04</pdfrwt>
<totfact> 0.22799682E+00</totfact>
</mgrwt>
</event>
<event>
12    7  0.1572140E-007  0.2103061E+04  0.7818608E-02  0.8559896E-01
          2   -1    0    0  501    0  0.00000000000E+00  0.00000000000E+00  0.12718744740E+04  0.12718744740E+04  0.00000000000E+00 0. -1.
         -1   -1    0    0    0  501 -0.00000000000E+00 -0.00000000000E+00 -0.86935957458E+03  0.86935957458E+03  0.00000000000E+00 0.  1.
         24    2    1    2    0    0  0.25056442659E+03 -0.34235439390E+03  0.91656049730E+03  0.10133236779E+04  0.82174619883E+02 0.  0.
        254    2    1    2    0    0 -0.25056442659E+03  0.34235439390E+03 -0.51404559788E+03  0.11279103706E+04  0.90991750428E+03 0.  0.
         23    2    4    4    0    0 -0.50815856211E+03  0.47031700667E+03 -0.31337562283E+03  0.76566836116E+03  0.92846902380E+02 0.  0.
         23    2    4    4    0    0  0.25759413552E+03 -0.12796261277E+03 -0.20066997505E+03  0.36224200948E+03  0.90673400875E+02 0.  0.
          4    1    3    3  502    0  0.12721326406E+03 -0.21991525096E+03  0.47268795419E+03  0.53663752589E+03  0.00000000000E+00 0. -1.
         -3    1    3    3    0  502  0.12335116254E+03 -0.12243914294E+03  0.44387254311E+03  0.47668615205E+03  0.00000000000E+00 0.  1.
         13    1    5    5    0    0 -0.30218250239E+03  0.31619347955E+03 -0.23626344329E+03  0.49710461263E+03  0.00000000000E+00 0. -1.
        -13    1    5    5    0    0 -0.20597605972E+03  0.15412352713E+03 -0.77112179537E+02  0.26856374853E+03  0.00000000000E+00 0.  1.
          3    1    6    6  503    0  0.15684569875E+03 -0.42512480970E+02 -0.71698594132E+02  0.17761917874E+03  0.00000000000E+00 0. -1.
         -3    1    6    6    0  503  0.10074843676E+03 -0.85450131799E+02 -0.12897138092E+03  0.18462283074E+03  0.00000000000E+00 0.  1.
<mgrwt>
<rscale>  0 0.21030609E+04</rscale>
<asrwt>0</asrwt>
<pdfrwt beam="1">  1        2 0.19567300E+00 0.21030609E+04</pdfrwt>
<pdfrwt beam="2">  1       -1 0.13374763E+00 0.21030609E+04</pdfrwt>
<totfact> 0.85079250E+00</totfact>
</mgrwt>
</event>
<event>
12    7  0.1572140E-007  0.1334222E+04  0.7818608E-02  0.9002859E-01
         -1   -1    0    0    0  501 -0.00000000000E+00  0.00000000000E+00  0.85279486010E+03  0.85279486010E+03  0.00000000000E+00 0.  1.
          2   -1    0    0  501    0  0.00000000000E+00 -0.00000000000E+00 -0.52185707157E+03  0.52185707157E+03  0.00000000000E+00 0. -1.
         24    2    1    2    0    0 -0.34669389090E+03 -0.54652324492E+02  0.26461203877E+02  0.36111191410E+03  0.80734680498E+02 0.  0.
        254    2    1    2    0    0  0.34669389090E+03  0.54652324492E+02  0.30447658465E+03  0.10135400176E+04  0.90076292444E+03 0.  0.
         23    2    4    4    0    0 -0.28881725755E+03  0.10276772141E+03  0.13635649453E+03  0.34770220475E+03  0.91253037007E+02 0.  0.
         23    2    4    4    0    0  0.63551114845E+03 -0.48115396923E+02  0.16812009012E+03  0.66583781282E+03  0.94266203125E+02 0.  0.
          2    1    3    3  502    0 -0.25909103124E+03 -0.57905468252E+02  0.50431573909E+02  0.27023054855E+03  0.00000000000E+00 0. -1.
         -1    1    3    3    0  502 -0.87602859657E+02  0.32531437600E+01 -0.23970370032E+02  0.90881365548E+02  0.00000000000E+00 0.  1.
         13    1    5    5    0    0 -0.26502858134E+03  0.11744112587E+03  0.13484300611E+03  0.31971112472E+03  0.00000000000E+00 0.  1.
        -13    1    5    5    0    0 -0.23788676207E+02 -0.14673404455E+02  0.15134884272E+01  0.27991080029E+02  0.00000000000E+00 0. -1.
          2    1    6    6  503    0  0.22840786183E+03  0.25771459242E+02  0.74446768552E+02  0.24161258412E+03  0.00000000000E+00 0. -1.
         -2    1    6    6    0  503  0.40710328662E+03 -0.73886856165E+02  0.93673321568E+02  0.42422522870E+03  0.00000000000E+00 0.  1.
<mgrwt>
<rscale>  0 0.13342219E+04</rscale>
<asrwt>0</asrwt>
<pdfrwt beam="1">  1        2 0.80285703E-01 0.13342219E+04</pdfrwt>
<pdfrwt beam="2">  1       -1 0.13119921E+00 0.13342219E+04</pdfrwt>
<totfact> 0.32456218E+01</totfact>
</mgrwt>
</event>
<event>
12    7  0.1572140E-007  0.2606229E+04  0.7818608E-02  0.8366088E-01
          2   -1    0    0  501    0  0.00000000000E+00  0.00000000000E+00  0.16468976653E+04  0.16468976653E+04  0.00000000000E+00 0. -1.
         -1   -1    0    0    0  501 -0.00000000000E+00 -0.00000000000E+00 -0.10310945853E+04  0.10310945853E+04  0.00000000000E+00 0.  1.
         24    2    1    2    0    0  0.33210280997E+03 -0.66027213858E+03  0.11670439496E+04  0.13834787260E+04  0.75962039601E+02 0.  0.
        254    2    1    2    0    0 -0.33210280997E+03  0.66027213858E+03 -0.55124086958E+03  0.12945135246E+04  0.90865130590E+03 0.  0.
         23    2    4    4    0    0 -0.33720764522E+03  0.87196706866E+03 -0.40622419322E+03  0.10233526071E+04  0.90536724960E+02 0.  0.
         23    2    4    4    0    0  0.51048352447E+01 -0.21169493008E+03 -0.14501667637E+03  0.27116091747E+03  0.87507736633E+02 0.  0.
          4    1    3    3  502    0  0.30241721251E+03 -0.58112533158E+03  0.10716209253E+04  0.12559992950E+04  0.00000000000E+00 0. -1.
         -3    1    3    3    0  502  0.29685597460E+02 -0.79146806997E+02  0.95423024326E+02  0.12747943099E+03  0.00000000000E+00 0.  1.
         13    1    5    5    0    0 -0.74666198917E+02  0.11082507552E+03 -0.46396135814E+02  0.14145614177E+03  0.00000000000E+00 0.  1.
        -13    1    5    5    0    0 -0.26254144630E+03  0.76114199314E+03 -0.35982805740E+03  0.88189646538E+03  0.00000000000E+00 0. -1.
          3    1    6    6  503    0  0.38652895585E+02 -0.12206940081E+03 -0.11142927827E+03  0.16973941501E+03  0.00000000000E+00 0. -1.
         -3    1    6    6    0  503 -0.33548060340E+02 -0.89625529275E+02 -0.33587398099E+02  0.10142150246E+03  0.00000000000E+00 0.  1.
<mgrwt>
<rscale>  0 0.26062289E+04</rscale>
<asrwt>0</asrwt>
<pdfrwt beam="1">  1        2 0.25336887E+00 0.26062289E+04</pdfrwt>
<pdfrwt beam="2">  1       -1 0.15862994E+00 0.26062289E+04</pdfrwt>
<totfact> 0.31634620E+00</totfact>
</mgrwt>
</event>
<event>
12    7  0.1572140E-007  0.2635412E+04  0.7818608E-02  0.8356271E-01
         -1   -1    0    0    0  501 -0.00000000000E+00  0.00000000000E+00  0.12634243296E+04  0.12634243296E+04  0.00000000000E+00 0.  1.
          2   -1    0    0  501    0  0.00000000000E+00 -0.00000000000E+00 -0.13743196914E+04  0.13743196914E+04  0.00000000000E+00 0. -1.
         24    2    1    2    0    0 -0.20017825369E+03 -0.10556420712E+04 -0.49461074987E+03  0.11855296756E+04  0.79933109477E+02 0.  0.
        254    2    1    2    0    0  0.20017825369E+03  0.10556420712E+04  0.38371538807E+03  0.14522143455E+04  0.89846396161E+03 0.  0.
         23    2    4    4    0    0  0.18298782047E+03  0.10528063097E+04  0.15089195521E+02  0.10728548495E+04  0.94361941264E+02 0.  0.
         23    2    4    4    0    0  0.17190433217E+02  0.28357615351E+01  0.36862619255E+03  0.37935949602E+03  0.87890868971E+02 0.  0.
          2    1    3    3  502    0 -0.20560234776E+03 -0.99465303607E+03 -0.45779526094E+03  0.11140841479E+04  0.00000000000E+00 0. -1.
         -1    1    3    3    0  502  0.54240940760E+01 -0.60989035175E+02 -0.36815488926E+02  0.71445527733E+02  0.00000000000E+00 0.  1.
         13    1    5    5    0    0  0.36509063946E+01  0.18136424681E+03 -0.19723840844E+02  0.18247013190E+03  0.00000000000E+00 0. -1.
        -13    1    5    5    0    0  0.17933691407E+03  0.87144206291E+03  0.34813036365E+02  0.89038471755E+03  0.00000000000E+00 0.  1.
          2    1    6    6  503    0  0.49126304225E+02 -0.49778592982E+01  0.14154411930E+03  0.14990967466E+03  0.00000000000E+00 0. -1.
         -2    1    6    6    0  503 -0.31935871008E+02  0.78136208334E+01  0.22708207325E+03  0.22944982136E+03  0.00000000000E+00 0.  1.
<mgrwt>
<rscale>  0 0.26354119E+04</rscale>
<asrwt>0</asrwt>
<pdfrwt beam="1">  1        2 0.21143380E+00 0.26354119E+04</pdfrwt>
<pdfrwt beam="2">  1       -1 0.19437298E+00 0.26354119E+04</pdfrwt>
<totfact> 0.24768896E+00</totfact>
</mgrwt>
</event>
<event>
12    7  0.1572140E-007  0.2623291E+04  0.7818608E-02  0.8360332E-01
          2   -1    0    0  501    0  0.00000000000E+00  0.00000000000E+00  0.15722427569E+04  0.15722427569E+04  0.00000000000E+00 0. -1.
         -1   -1    0    0    0  501 -0.00000000000E+00 -0.00000000000E+00 -0.10942422284E+04  0.10942422284E+04  0.00000000000E+00 0.  1.
         24    2    1    2    0    0 -0.59895818484E+03 -0.89592137960E+03 -0.20556195325E+03  0.10995670397E+04  0.73252525459E+02 0.  0.
        254    2    1    2    0    0  0.59895818484E+03  0.89592137960E+03  0.68356248175E+03  0.15669179457E+04  0.90914693888E+03 0.  0.
         23    2    4    4    0    0  0.30124169195E+03  0.96312467414E+03  0.27793391775E+03  0.10506489642E+04  0.90886128470E+02 0.  0.
         23    2    4    4    0    0  0.29771649289E+03 -0.67203294538E+02  0.40562856400E+03  0.51626898154E+03  0.94062407088E+02 0.  0.
          2    1    3    3  502    0 -0.54339488467E+03 -0.81147885853E+03 -0.20772083237E+03  0.99846075673E+03  0.00000000000E+00 0. -1.
         -1    1    3    3    0  502 -0.55563300173E+02 -0.84442521070E+02  0.21588791211E+01  0.10110628294E+03  0.00000000000E+00 0.  1.
         13    1    5    5    0    0  0.76806040537E+02  0.39413478769E+03  0.10711691007E+03  0.41559046085E+03  0.00000000000E+00 0.  1.
        -13    1    5    5    0    0  0.22443565142E+03  0.56898988645E+03  0.17081700769E+03  0.63505850331E+03  0.00000000000E+00 0. -1.
          3    1    6    6  503    0  0.22121373930E+01 -0.16390484192E+02  0.40868166906E+02  0.44087964232E+02  0.00000000000E+00 0. -1.
         -3    1    6    6    0  503  0.29550435550E+03 -0.50812810346E+02  0.36476039709E+03  0.47218101730E+03  0.00000000000E+00 0.  1.
<mgrwt>
<rscale>  0 0.26232914E+04</rscale>
<asrwt>0</asrwt>
<pdfrwt beam="1">  1        2 0.24188350E+00 0.26232914E+04</pdfrwt>
<pdfrwt beam="2">  1       -1 0.16834496E+00 0.26232914E+04</pdfrwt>
<totfact> 0.29410125E+00</totfact>
</mgrwt>
</event>
<event>
12    7  0.1572140E-007  0.2840218E+04  0.7818608E-02  0.8290890E-01
         -1   -1    0    0    0  501 -0.00000000000E+00  0.00000000000E+00  0.97738757558E+03  0.97738757558E+03  0.00000000000E+00 0.  1.
          2   -1    0    0  501    0  0.00000000000E+00 -0.00000000000E+00 -0.20633667103E+04  0.20633667103E+04  0.00000000000E+00 0. -1.
         24    2    1    2    0    0  0.11746550143E+04 -0.41869384481E+03 -0.20229615236E+03  0.12658519203E+04  0.79614148313E+02 0.  0.
        254    2    1    2    0    0 -0.11746550143E+04  0.41869384481E+03 -0.88368298238E+03  0.17749023656E+04  0.90236569948E+03 0.  0.
         23    2    4    4    0    0 -0.92245953332E+03 -0.12285736576E+03 -0.52644288411E+03  0.10730160117E+04  0.90530261388E+02 0.  0.
         23    2    4    4    0    0 -0.25219548100E+03  0.54155121057E+03 -0.35724009827E+03  0.70188635386E+03  0.90242404692E+02 0.  0.
          4    1    3    3  502    0  0.11596520373E+03 -0.19349051019E+02 -0.29685697831E+02  0.12125821583E+03  0.00000000000E+00 0. -1.
         -3    1    3    3    0  502  0.10586898106E+04 -0.39934479379E+03 -0.17261045453E+03  0.11445937045E+04  0.00000000000E+00 0.  1.
         13    1    5    5    0    0 -0.53266756760E+02  0.13234059436E+02 -0.37783150160E+02  0.66633731255E+02  0.00000000000E+00 0. -1.
        -13    1    5    5    0    0 -0.86919277656E+03 -0.13609142520E+03 -0.48865973395E+03  0.10063822805E+04  0.00000000000E+00 0.  1.
          2    1    6    6  503    0 -0.95208849247E+02  0.21896283798E+03 -0.92656808881E+02  0.25611468842E+03  0.00000000000E+00 0. -1.
         -2    1    6    6    0  503 -0.15698663175E+03  0.32258837259E+03 -0.26458328939E+03  0.44577166544E+03  0.00000000000E+00 0.  1.
<mgrwt>
<rscale>  0 0.28402176E+04</rscale>
<asrwt>0</asrwt>
<pdfrwt beam="1">  1        2 0.31744103E+00 0.28402176E+04</pdfrwt>
<pdfrwt beam="2">  1       -1 0.15036732E+00 0.28402176E+04</pdfrwt>
<totfact> 0.21060433E+00</totfact>
</mgrwt>
</event>
<event>
12    7  0.1572140E-007  0.3058216E+04  0.7818608E-02  0.8227300E-01
         -1   -1    0    0    0  501 -0.00000000000E+00  0.00000000000E+00  0.17548444906E+04  0.17548444906E+04  0.00000000000E+00 0.  1.
          2   -1    0    0  501    0  0.00000000000E+00 -0.00000000000E+00 -0.13324093256E+04  0.13324093256E+04  0.00000000000E+00 0. -1.
         24    2    1    2    0    0 -0.13909424696E+04 -0.11661398084E+03  0.25115186994E+03  0.14204473672E+04  0.79206609134E+02 0.  0.
        254    2    1    2    0    0  0.13909424696E+04  0.11661398084E+03  0.17128329507E+03  0.16668064490E+04  0.89475471340E+03 0.  0.
         23    2    4    4    0    0  0.14985286623E+04  0.11815841225E+03  0.12482577471E+03  0.15110399136E+04  0.90058783172E+02 0.  0.
         23    2    4    4    0    0 -0.10758619269E+03 -0.15444314092E+01  0.46457520356E+02  0.15576653543E+03  0.10260476712E+03 0.  0.
          4    1    3    3  502    0 -0.49810780193E+03 -0.74560734659E+02  0.11028904206E+03  0.51559127058E+03  0.00000000000E+00 0. -1.
         -3    1    3    3    0  502 -0.89283466766E+03 -0.42053246182E+02  0.14086282788E+03  0.90485609661E+03  0.00000000000E+00 0.  1.
         13    1    5    5    0    0  0.17011099312E+03  0.38889226491E+02  0.90421940502E+00  0.17450197572E+03  0.00000000000E+00 0. -1.
        -13    1    5    5    0    0  0.13284176692E+04  0.79269185758E+02  0.12392155531E+03  0.13365379379E+04  0.00000000000E+00 0.  1.
          1    1    6    6  503    0  0.93546073294E+01 -0.24046438160E+02  0.22630348059E+02  0.34320147432E+02  0.00000000000E+00 0. -1.
         -1    1    6    6    0  503 -0.11694080002E+03  0.22502006751E+02  0.23827172297E+02  0.12144638800E+03  0.00000000000E+00 0.  1.
<mgrwt>
<rscale>  0 0.30582159E+04</rscale>
<asrwt>0</asrwt>
<pdfrwt beam="1">  1        2 0.20498605E+00 0.30582159E+04</pdfrwt>
<pdfrwt beam="2">  1       -1 0.26997607E+00 0.30582159E+04</pdfrwt>
<totfact> 0.79382757E-01</totfact>
</mgrwt>
</event>
<event>
12    7  0.1572140E-007  0.1631277E+04  0.7818608E-02  0.8801560E-01
          2   -1    0    0  501    0  0.00000000000E+00  0.00000000000E+00  0.17874266680E+04  0.17874266680E+04  0.00000000000E+00 0. -1.
         -1   -1    0    0    0  501 -0.00000000000E+00 -0.00000000000E+00 -0.37219235917E+03  0.37219235917E+03  0.00000000000E+00 0.  1.
         24    2    1    2    0    0 -0.41250750430E+03 -0.81777108469E+02  0.99047540354E+03  0.10791556902E+04  0.81765164569E+02 0.  0.
        254    2    1    2    0    0  0.41250750430E+03  0.81777108469E+02  0.42475890533E+03  0.10804633370E+04  0.90007275171E+03 0.  0.
         23    2    4    4    0    0  0.40770728457E+03 -0.25016700244E+02 -0.18278544232E+03  0.45673535833E+03  0.91354279853E+02 0.  0.
         23    2    4    4    0    0  0.48002197352E+01  0.10679380871E+03  0.60754434765E+03  0.62372797867E+03  0.92187294835E+02 0.  0.
          2    1    3    3  502    0 -0.33896632620E+03 -0.95282250332E+02  0.77988773183E+03  0.85568788222E+03  0.00000000000E+00 0. -1.
         -1    1    3    3    0  502 -0.73541178102E+02  0.13505141863E+02  0.21058767171E+03  0.22346780800E+03  0.00000000000E+00 0.  1.
         13    1    5    5    0    0  0.44014504696E+02 -0.26799384008E+02 -0.46050010633E+01  0.51736733967E+02  0.00000000000E+00 0. -1.
        -13    1    5    5    0    0  0.36369277987E+03  0.17826837641E+01 -0.17818044125E+03  0.40499862436E+03  0.00000000000E+00 0.  1.
          3    1    6    6  503    0  0.18823520483E+02  0.79136265235E+02  0.56637525696E+03  0.57218686205E+03  0.00000000000E+00 0.  1.
         -3    1    6    6    0  503 -0.14023300748E+02  0.27657543478E+02  0.41169090687E+02  0.51541116626E+02  0.00000000000E+00 0. -1.
<mgrwt>
<rscale>  0 0.16312775E+04</rscale>
<asrwt>0</asrwt>
<pdfrwt beam="1">  1        2 0.27498871E+00 0.16312775E+04</pdfrwt>
<pdfrwt beam="2">  1       -1 0.57260364E-01 0.16312775E+04</pdfrwt>
<totfact> 0.29511335E+01</totfact>
</mgrwt>
</event>
<event>
12    7  0.1572140E-007  0.2636573E+04  0.7818608E-02  0.8355883E-01
          2   -1    0    0  501    0  0.00000000000E+00  0.00000000000E+00  0.17131349571E+04  0.17131349571E+04  0.00000000000E+00 0. -1.
         -1   -1    0    0    0  501 -0.00000000000E+00 -0.00000000000E+00 -0.10144438446E+04  0.10144438446E+04  0.00000000000E+00 0.  1.
         24    2    1    2    0    0 -0.40980108030E+02  0.17718567382E+03  0.14964959399E+04  0.15096048633E+04  0.79577716952E+02 0.  0.
        254    2    1    2    0    0  0.40980108030E+02 -0.17718567382E+03 -0.79780482742E+03  0.12179739384E+04  0.90216065075E+03 0.  0.
         23    2    4    4    0    0 -0.23712135639E+03 -0.23350727339E+01  0.88312879994E+02  0.26846579646E+03  0.89681262660E+02 0.  0.
         23    2    4    4    0    0  0.27810146442E+03 -0.17485060108E+03 -0.88611770741E+03  0.94950814197E+03  0.91912801394E+02 0.  0.
          4    1    3    3  502    0 -0.62320530709E+02  0.15710207631E+03  0.12980933646E+04  0.13090497676E+04  0.00000000000E+00 0. -1.
         -3    1    3    3    0  502  0.21340422679E+02  0.20083597507E+02  0.19840257531E+03  0.20055509572E+03  0.00000000000E+00 0.  1.
         13    1    5    5    0    0 -0.77664360911E+02  0.25837809683E+02  0.65723521671E+02  0.10497107538E+03  0.00000000000E+00 0.  1.
        -13    1    5    5    0    0 -0.15945699548E+03 -0.28172882417E+02  0.22589358323E+02  0.16349472108E+03  0.00000000000E+00 0. -1.
          1    1    6    6  503    0  0.17659923711E+02 -0.24360864174E+02 -0.17223461335E+03  0.17484303431E+03  0.00000000000E+00 0.  1.
         -1    1    6    6    0  503  0.26044154071E+03 -0.15048973691E+03 -0.71388309406E+03  0.77466510766E+03  0.00000000000E+00 0. -1.
<mgrwt>
<rscale>  0 0.26365729E+04</rscale>
<asrwt>0</asrwt>
<pdfrwt beam="1">  1        2 0.26355922E+00 0.26365729E+04</pdfrwt>
<pdfrwt beam="2">  1       -1 0.15606828E+00 0.26365729E+04</pdfrwt>
<totfact> 0.30317017E+00</totfact>
</mgrwt>
</event>
<event>
12    7  0.1572140E-007  0.1411776E+04  0.7818608E-02  0.8945338E-01
          2   -1    0    0  501    0  0.00000000000E+00  0.00000000000E+00  0.23170684879E+04  0.23170684879E+04  0.00000000000E+00 0. -1.
         -1   -1    0    0    0  501 -0.00000000000E+00 -0.00000000000E+00 -0.21504673842E+03  0.21504673842E+03  0.00000000000E+00 0.  1.
         24    2    1    2    0    0 -0.26161149638E+03  0.30156924764E+03  0.44413631230E+03  0.60211193087E+03  0.76792755089E+02 0.  0.
        254    2    1    2    0    0  0.26161149638E+03 -0.30156924764E+03  0.16578854372E+04  0.19300032954E+04  0.90384955133E+03 0.  0.
         23    2    4    4    0    0 -0.52147262931E+02 -0.39757457543E+03  0.25038309521E+03  0.48187385130E+03  0.93412173409E+02 0.  0.
         23    2    4    4    0    0  0.31375875931E+03  0.96005327786E+02  0.14075023420E+04  0.14481294441E+04  0.91402747956E+02 0.  0.
          4    1    3    3  502    0 -0.22476356467E+03  0.23759329909E+03  0.31930869181E+03  0.45708563360E+03  0.00000000000E+00 0. -1.
         -3    1    3    3    0  502 -0.36847931714E+02  0.63975948551E+02  0.12482762049E+03  0.14502629727E+03  0.00000000000E+00 0.  1.
         13    1    5    5    0    0 -0.45824289101E+02 -0.73248059408E+02  0.66179419943E+02  0.10883409072E+03  0.00000000000E+00 0. -1.
        -13    1    5    5    0    0 -0.63229738301E+01 -0.32432651602E+03  0.18420367527E+03  0.37303976058E+03  0.00000000000E+00 0.  1.
          4    1    6    6  503    0  0.18074996916E+02  0.11776277906E+02  0.23502113757E+03  0.23600915520E+03  0.00000000000E+00 0.  1.
         -4    1    6    6    0  503  0.29568376240E+03  0.84229049880E+02  0.11724812044E+04  0.12121202889E+04  0.00000000000E+00 0. -1.
<mgrwt>
<rscale>  0 0.14117762E+04</rscale>
<asrwt>0</asrwt>
<pdfrwt beam="1">  1        2 0.35647206E+00 0.14117762E+04</pdfrwt>
<pdfrwt beam="2">  1       -1 0.33084115E-01 0.14117762E+04</pdfrwt>
<totfact> 0.42233500E+01</totfact>
</mgrwt>
</event>
<event>
12    7  0.1572140E-007  0.2644321E+04  0.7818608E-02  0.8353300E-01
          2   -1    0    0  501    0  0.00000000000E+00  0.00000000000E+00  0.22544957893E+04  0.22544957893E+04  0.00000000000E+00 0. -1.
         -1   -1    0    0    0  501 -0.00000000000E+00 -0.00000000000E+00 -0.77538758289E+03  0.77538758289E+03  0.00000000000E+00 0.  1.
         24    2    1    2    0    0 -0.29391716456E+03  0.11189673007E+04  0.49891614482E+03  0.12624237644E+04  0.79506740266E+02 0.  0.
        254    2    1    2    0    0  0.29391716456E+03 -0.11189673007E+04  0.98019206155E+03  0.17674596077E+04  0.90810895139E+03 0.  0.
         23    2    4    4    0    0  0.16527630221E+03 -0.97192082600E+03  0.27095762304E+03  0.10264340359E+04  0.90567370238E+02 0.  0.
         23    2    4    4    0    0  0.12864086235E+03 -0.14704647474E+03  0.70923443851E+03  0.74102557177E+03  0.89074530873E+02 0.  0.
          4    1    3    3  502    0 -0.24222034368E+03  0.78813695051E+03  0.34197087349E+03  0.89262233109E+03  0.00000000000E+00 0. -1.
         -3    1    3    3    0  502 -0.51696820878E+02  0.33083035022E+03  0.15694527133E+03  0.36980143335E+03  0.00000000000E+00 0.  1.
         13    1    5    5    0    0  0.12059823847E+03 -0.79796491713E+03  0.18818819365E+03  0.82867770594E+03  0.00000000000E+00 0. -1.
        -13    1    5    5    0    0  0.44678063748E+02 -0.17395590887E+03  0.82769429390E+02  0.19775632999E+03  0.00000000000E+00 0.  1.
          2    1    6    6  503    0  0.44213351348E+01  0.10554915523E+02  0.18692623077E+02  0.21917312872E+02  0.00000000000E+00 0.  1.
         -2    1    6    6    0  503  0.12421952721E+03 -0.15760139026E+03  0.69054181543E+03  0.71910825890E+03  0.00000000000E+00 0. -1.
<mgrwt>
<rscale>  0 0.26443207E+04</rscale>
<asrwt>0</asrwt>
<pdfrwt beam="1">  1        2 0.34684550E+00 0.26443207E+04</pdfrwt>
<pdfrwt beam="2">  1       -1 0.11929040E+00 0.26443207E+04</pdfrwt>
<totfact> 0.30286811E+00</totfact>
</mgrwt>
</event>
<event>
12    7  0.1572140E-007  0.1370392E+04  0.7818608E-02  0.8975534E-01
          2   -1    0    0  501    0  0.00000000000E+00  0.00000000000E+00  0.14460999609E+04  0.14460999609E+04  0.00000000000E+00 0. -1.
         -1   -1    0    0    0  501 -0.00000000000E+00 -0.00000000000E+00 -0.32466188859E+03  0.32466188859E+03  0.00000000000E+00 0.  1.
         24    2    1    2    0    0 -0.16043824079E+02  0.41133116573E+02 -0.16934899253E+03  0.19400262336E+03  0.83717375906E+02 0.  0.
        254    2    1    2    0    0  0.16043824079E+02 -0.41133116573E+02  0.12907870648E+04  0.15767592261E+04  0.90448276539E+03 0.  0.
         23    2    4    4    0    0 -0.14783074733E+03 -0.41527566686E+03  0.44324384846E+03  0.63157375654E+03  0.90069370044E+02 0.  0.
         23    2    4    4    0    0  0.16387457141E+03  0.37414255029E+03  0.84754321638E+03  0.94518546959E+03  0.90601022087E+02 0.  0.
          4    1    3    3  502    0 -0.41473442607E+02  0.13252553893E+02 -0.39519529380E+02  0.58800253645E+02  0.00000000000E+00 0. -1.
         -3    1    3    3    0  502  0.25429618528E+02  0.27880562680E+02 -0.12982946315E+03  0.13520236971E+03  0.00000000000E+00 0.  1.
         13    1    5    5    0    0 -0.62643426563E+02 -0.30054612044E+03  0.30427497804E+03  0.43224464330E+03  0.00000000000E+00 0. -1.
        -13    1    5    5    0    0 -0.85187320766E+02 -0.11472954642E+03  0.13896887042E+03  0.19932911324E+03  0.00000000000E+00 0.  1.
          4    1    6    6  503    0  0.53461277571E+02  0.22663226193E+03  0.50947906022E+03  0.56016890591E+03  0.00000000000E+00 0. -1.
         -4    1    6    6    0  503  0.11041329384E+03  0.14751028835E+03  0.33806415617E+03  0.38501656368E+03  0.00000000000E+00 0.  1.
<mgrwt>
<rscale>  0 0.13703920E+04</rscale>
<asrwt>0</asrwt>
<pdfrwt beam="1">  1        2 0.22247691E+00 0.13703920E+04</pdfrwt>
<pdfrwt beam="2">  1       -1 0.49947984E-01 0.13703920E+04</pdfrwt>
<totfact> 0.60873504E+01</totfact>
</mgrwt>
</event>
