<event>
12    1  0.4403484E-008  0.1578374E+04  0.7818608E-02  0.8833945E-01
         -1   -1    0    0    0  501 -0.00000000000E+00  0.00000000000E+00  0.91604490274E+03  0.91604490274E+03  0.00000000000E+00 0.  1.
          1   -1    0    0  501    0  0.00000000000E+00 -0.00000000000E+00 -0.67989681318E+03  0.67989681318E+03  0.00000000000E+00 0. -1.
         23    2    1    2    0    0 -0.51815908561E+03  0.11596682191E+03  0.14269077518E+03  0.55744905707E+03  0.91932867529E+02 0.  0.
        254    2    1    2    0    0  0.51815908561E+03 -0.11596682191E+03  0.93457314389E+02  0.10384926588E+04  0.88757849855E+03 0.  0.
         23    2    4    4    0    0 -0.19116059197E+03 -0.22095433066E+03 -0.17529216029E+02  0.30700289722E+03  0.92630002319E+02 0.  0.
         23    2    4    4    0    0  0.70931967758E+03  0.10498750875E+03  0.11098653042E+03  0.73148976163E+03  0.92749552240E+02 0.  0.
         13    1    3    3    0    0 -0.13385482809E+03  0.34604274416E+02 -0.35152156611E+01  0.13830013576E+03  0.00000000000E+00 0. -1.
        -13    1    3    3    0    0 -0.38430425752E+03  0.81362547496E+02  0.14620599084E+03  0.41914892131E+03  0.00000000000E+00 0.  1.
          4    1    5    5  502    0 -0.46539347032E+01 -0.39524341775E+02 -0.24463873743E+02  0.46715241833E+02  0.00000000000E+00 0.  1.
          3    1    6    6  503    0  0.36600082592E+03  0.78605935863E+02  0.97777162137E+02  0.38690550676E+03  0.00000000000E+00 0. -1.
         -4    1    5    5    0  502 -0.18650665727E+03 -0.18142998888E+03  0.69346577139E+01  0.26028765539E+03  0.00000000000E+00 0. -1.
         -3    1    6    6    0  503  0.34331885165E+03  0.26381572883E+02  0.13209368280E+02  0.34458425486E+03  0.00000000000E+00 0.  1.
<mgrwt>
<rscale>  0 0.15783739E+04</rscale>
<asrwt>0</asrwt>
<pdfrwt beam="1">  1        1 0.10459951E+00 0.15783739E+04</pdfrwt>
<pdfrwt beam="2">  1       -1 0.14092998E+00 0.15783739E+04</pdfrwt>
<totfact> 0.11276687E+01</totfact>
</mgrwt>
</event>
<event>
12    1  0.4403484E-008  0.2418886E+04  0.7818608E-02  0.8432467E-01
          1   -1    0    0  501    0  0.00000000000E+00  0.00000000000E+00  0.82610211044E+03  0.82610211044E+03  0.00000000000E+00 0. -1.
         -1   -1    0    0    0  501 -0.00000000000E+00 -0.00000000000E+00 -0.17706681063E+04  0.17706681063E+04  0.00000000000E+00 0.  1.
         23    2    1    2    0    0 -0.25775977252E+03  0.42854372664E+03  0.56314490908E+03  0.75874150825E+03  0.92014464919E+02 0.  0.
        254    2    1    2    0    0  0.25775977252E+03 -0.42854372664E+03 -0.15077109049E+04  0.18380287085E+04  0.92469861813E+03 0.  0.
         23    2    4    4    0    0 -0.27114365148E+03 -0.26380391324E+03 -0.10287797592E+04  0.10999088345E+04  0.91105800408E+02 0.  0.
         23    2    4    4    0    0  0.52890342401E+03 -0.16473981340E+03 -0.47893114573E+03  0.73811987399E+03  0.92562778581E+02 0.  0.
         11    1    3    3    0    0 -0.10439309174E+03  0.15271794851E+03  0.14599542676E+03  0.23565940260E+03  0.00000000000E+00 0.  1.
        -11    1    3    3    0    0 -0.15336668078E+03  0.27582577813E+03  0.41714948231E+03  0.52308210565E+03  0.00000000000E+00 0. -1.
          4    1    5    5  502    0 -0.26446992898E+01 -0.30601664129E+02 -0.51895998989E+02  0.60304651503E+02  0.00000000000E+00 0. -1.
          3    1    6    6  503    0  0.20011780063E+03 -0.30964149507E+02 -0.21824072130E+03  0.29771618216E+03  0.00000000000E+00 0. -1.
         -4    1    5    5    0  502 -0.26849895219E+03 -0.23320224911E+03 -0.97688376022E+03  0.10396041830E+04  0.00000000000E+00 0.  1.
         -3    1    6    6    0  503  0.32878562337E+03 -0.13377566389E+03 -0.26069042443E+03  0.44040369183E+03  0.00000000000E+00 0.  1.
<mgrwt>
<rscale>  0 0.24188862E+04</rscale>
<asrwt>0</asrwt>
<pdfrwt beam="1">  1        1 0.12709264E+00 0.24188862E+04</pdfrwt>
<pdfrwt beam="2">  1       -1 0.27241047E+00 0.24188862E+04</pdfrwt>
<totfact> 0.93592682E-01</totfact>
</mgrwt>
</event>
<event>
12    1  0.4403484E-008  0.1561198E+04  0.7818608E-02  0.8844746E-01
         -2   -1    0    0    0  501 -0.00000000000E+00  0.00000000000E+00  0.23256208106E+04  0.23256208106E+04  0.00000000000E+00 0.  1.
          2   -1    0    0  501    0  0.00000000000E+00 -0.00000000000E+00 -0.26200968275E+03  0.26200968275E+03  0.00000000000E+00 0. -1.
         23    2    1    2    0    0 -0.24134257911E+03  0.41421557497E+03  0.94392528853E+03  0.10625646921E+04  0.90708276812E+02 0.  0.
        254    2    1    2    0    0  0.24134257911E+03 -0.41421557497E+03  0.11196858393E+04  0.15250658012E+04  0.91777368471E+03 0.  0.
         23    2    4    4    0    0  0.31587653259E+03 -0.22941984746E+03  0.16925964789E+02  0.40101385928E+03  0.90078725587E+02 0.  0.
         23    2    4    4    0    0 -0.74533953484E+02 -0.18479572751E+03  0.11027598745E+04  0.11240519419E+04  0.87798953701E+02 0.  0.
         13    1    3    3    0    0 -0.15629222945E+03  0.22396868148E+03  0.61875440108E+03  0.67634772132E+03  0.00000000000E+00 0.  1.
        -13    1    3    3    0    0 -0.85050349651E+02  0.19024689349E+03  0.32517088745E+03  0.38621697076E+03  0.00000000000E+00 0. -1.
          4    1    5    5  502    0  0.23536159459E+03 -0.11828380364E+03  0.99683500395E+01  0.26360103644E+03  0.00000000000E+00 0.  1.
          3    1    6    6  503    0  0.20195840666E+01 -0.11155206685E+03  0.53992874255E+03  0.55133564130E+03  0.00000000000E+00 0. -1.
         -4    1    5    5    0  502  0.80514937997E+02 -0.11113604383E+03  0.69576147494E+01  0.13741282284E+03  0.00000000000E+00 0. -1.
         -3    1    6    6    0  503 -0.76553537550E+02 -0.73243660661E+02  0.56283113194E+03  0.57271630064E+03  0.00000000000E+00 0.  1.
<mgrwt>
<rscale>  0 0.15611985E+04</rscale>
<asrwt>0</asrwt>
<pdfrwt beam="1">  1        2 0.40309184E-01 0.15611985E+04</pdfrwt>
<pdfrwt beam="2">  1       -2 0.35778780E+00 0.15611985E+04</pdfrwt>
<totfact> 0.17174337E+00</totfact>
</mgrwt>
</event>
<event>
12    1  0.4403484E-008  0.1333970E+04  0.7818608E-02  0.9003052E-01
         -2   -1    0    0    0  501 -0.00000000000E+00  0.00000000000E+00  0.56900855847E+03  0.56900855847E+03  0.00000000000E+00 0.  1.
          2   -1    0    0  501    0  0.00000000000E+00 -0.00000000000E+00 -0.78183191361E+03  0.78183191361E+03  0.00000000000E+00 0. -1.
         23    2    1    2    0    0 -0.11125606859E+03  0.32898391152E+03 -0.14027988623E+03  0.39265697141E+03  0.11786739957E+03 0.  0.
        254    2    1    2    0    0  0.11125606859E+03 -0.32898391152E+03 -0.72543468917E+02  0.95818350067E+03  0.89008131046E+03 0.  0.
         23    2    4    4    0    0 -0.79977957807E+02 -0.55930415826E+03 -0.21847850514E+03  0.61264003770E+03  0.91527828581E+02 0.  0.
         23    2    4    4    0    0  0.19123402639E+03  0.23032024674E+03  0.14593503622E+03  0.34554346297E+03  0.92116128306E+02 0.  0.
         13    1    3    3    0    0 -0.45005478091E+02  0.23587277394E+03 -0.45964940365E+02  0.24448769762E+03  0.00000000000E+00 0.  1.
        -13    1    3    3    0    0 -0.66250590497E+02  0.93111137575E+02 -0.94314945866E+02  0.14816927379E+03  0.00000000000E+00 0. -1.
          4    1    5    5  502    0 -0.35715648237E+02 -0.18123615698E+03 -0.27466905266E+02  0.18675273227E+03  0.00000000000E+00 0. -1.
          4    1    6    6  503    0  0.54773361480E+02  0.57199556396E+02 -0.34286017629E+01  0.79269576067E+02  0.00000000000E+00 0. -1.
         -4    1    5    5    0  502 -0.44262309570E+02 -0.37806800128E+03 -0.19101159987E+03  0.42588730543E+03  0.00000000000E+00 0.  1.
         -4    1    6    6    0  503  0.13646066491E+03  0.17312069035E+03  0.14936363798E+03  0.26627388690E+03  0.00000000000E+00 0.  1.
<mgrwt>
<rscale>  0 0.13339701E+04</rscale>
<asrwt>0</asrwt>
<pdfrwt beam="1">  1        2 0.12028183E+00 0.13339701E+04</pdfrwt>
<pdfrwt beam="2">  1       -2 0.87539778E-01 0.13339701E+04</pdfrwt>
<totfact> 0.39132219E+01</totfact>
</mgrwt>
</event>
<event>
12    1  0.4403484E-008  0.1368406E+04  0.7818608E-02  0.8977011E-01
          3   -1    0    0  501    0  0.00000000000E+00  0.00000000000E+00  0.58997244042E+03  0.58997244042E+03  0.00000000000E+00 0. -1.
         -3   -1    0    0    0  501 -0.00000000000E+00 -0.00000000000E+00 -0.79348434693E+03  0.79348434693E+03  0.00000000000E+00 0.  1.
         23    2    1    2    0    0  0.15566318452E+03  0.10146871540E+03  0.26839826247E+03  0.33967965086E+03  0.93902666040E+02 0.  0.
        254    2    1    2    0    0 -0.15566318452E+03 -0.10146871540E+03 -0.47191016898E+03  0.10437771365E+04  0.91227439725E+03 0.  0.
         23    2    4    4    0    0 -0.22045667463E+03 -0.46007247325E+03 -0.12368935170E+03  0.53142514647E+03  0.82739377273E+02 0.  0.
         23    2    4    4    0    0  0.64793490110E+02  0.35860375784E+03 -0.34822081728E+03  0.51235199003E+03  0.91934610428E+02 0.  0.
         11    1    3    3    0    0  0.10624711636E+03  0.83143609776E+02  0.24959139860E+03  0.28372024220E+03  0.00000000000E+00 0. -1.
        -11    1    3    3    0    0  0.49416068155E+02  0.18325105629E+02  0.18806863873E+02  0.55959408654E+02  0.00000000000E+00 0.  1.
          1    1    6    6  502    0  0.12820478664E+02  0.31036349014E+02 -0.31400773655E+01  0.33726543243E+02  0.00000000000E+00 0. -1.
          1    1    5    5  503    0 -0.29787661364E+02 -0.11619712346E+03 -0.56238447556E+02  0.13248335463E+03  0.00000000000E+00 0. -1.
         -1    1    5    5    0  503 -0.19066901326E+03 -0.34387534979E+03 -0.67450904140E+02  0.39894179184E+03  0.00000000000E+00 0.  1.
         -1    1    6    6    0  502  0.51973011446E+02  0.32756740883E+03 -0.34508073992E+03  0.47862544678E+03  0.00000000000E+00 0.  1.
<mgrwt>
<rscale>  0 0.13684062E+04</rscale>
<asrwt>0</asrwt>
<pdfrwt beam="1">  1        3 0.90764990E-01 0.13684062E+04</pdfrwt>
<pdfrwt beam="2">  1       -3 0.12207452E+00 0.13684062E+04</pdfrwt>
<totfact> 0.15165548E+00</totfact>
</mgrwt>
</event>
<event>
12    1  0.4403484E-008  0.4540409E+04  0.7818608E-02  0.7903600E-01
         -2   -1    0    0    0  501 -0.00000000000E+00  0.00000000000E+00  0.14758674623E+04  0.14758674623E+04  0.00000000000E+00 0.  1.
          2   -1    0    0  501    0  0.00000000000E+00 -0.00000000000E+00 -0.34920672648E+04  0.34920672648E+04  0.00000000000E+00 0. -1.
         23    2    1    2    0    0 -0.50828080632E+03 -0.75040953474E+03 -0.31233790675E+04  0.32535286009E+04  0.92128767989E+02 0.  0.
        254    2    1    2    0    0  0.50828080632E+03  0.75040953474E+03  0.11071792649E+04  0.17144061263E+04  0.94439324073E+03 0.  0.
         23    2    4    4    0    0  0.18015899810E+03  0.25415125153E+03  0.10626215025E+04  0.11110837794E+04  0.91063625937E+02 0.  0.
         23    2    4    4    0    0  0.32812180822E+03  0.49625828321E+03  0.44557762449E+02  0.60332234689E+03  0.89867988617E+02 0.  0.
         13    1    3    3    0    0 -0.29562780881E+03 -0.48209083210E+03 -0.18122045734E+04  0.18983921585E+04  0.00000000000E+00 0. -1.
        -13    1    3    3    0    0 -0.21265299751E+03 -0.26831870263E+03 -0.13111744941E+04  0.13551364424E+04  0.00000000000E+00 0.  1.
          2    1    5    5  502    0  0.38240306954E+02  0.10935043174E+03  0.28947259442E+03  0.31179195133E+03  0.00000000000E+00 0. -1.
          1    1    6    6  503    0  0.13383682926E+03  0.13279806311E+03 -0.21693025747E+01  0.18855325059E+03  0.00000000000E+00 0. -1.
         -2    1    5    5    0  502  0.14191869114E+03  0.14480081979E+03  0.77314890808E+03  0.79929182804E+03  0.00000000000E+00 0.  1.
         -1    1    6    6    0  503  0.19428497896E+03  0.36346022009E+03  0.46727065024E+02  0.41476909630E+03  0.00000000000E+00 0.  1.
<mgrwt>
<rscale>  0 0.45404090E+04</rscale>
<asrwt>0</asrwt>
<pdfrwt beam="1">  1        2 0.53724112E+00 0.45404090E+04</pdfrwt>
<pdfrwt beam="2">  1       -2 0.22705653E+00 0.45404090E+04</pdfrwt>
<totfact> 0.55374488E-02</totfact>
</mgrwt>
</event>
<event>
12    1  0.4403484E-008  0.1310833E+04  0.7818608E-02  0.9021019E-01
         -1   -1    0    0    0  501 -0.00000000000E+00  0.00000000000E+00  0.33754884151E+03  0.33754884151E+03  0.00000000000E+00 0.  1.
          1   -1    0    0  501    0  0.00000000000E+00 -0.00000000000E+00 -0.12726175932E+04  0.12726175932E+04  0.00000000000E+00 0. -1.
         23    2    1    2    0    0 -0.25988140682E+03  0.15483131703E+03 -0.44279528768E+03  0.54439422047E+03  0.93735362293E+02 0.  0.
        254    2    1    2    0    0  0.25988140682E+03 -0.15483131703E+03 -0.49227346397E+03  0.10657722142E+04  0.89555913647E+03 0.  0.
         23    2    4    4    0    0  0.49769888342E+03 -0.12863372565E+02 -0.15708843417E+02  0.50637307679E+03  0.91089407827E+02 0.  0.
         23    2    4    4    0    0 -0.23781747661E+03 -0.14196794446E+03 -0.47656462056E+03  0.55939913743E+03  0.95401823653E+02 0.  0.
         11    1    3    3    0    0 -0.51335004372E+02  0.34567168788E+02 -0.16813615983E+03  0.17916456144E+03  0.00000000000E+00 0. -1.
        -11    1    3    3    0    0 -0.20854640244E+03  0.12026414824E+03 -0.27465912785E+03  0.36522965903E+03  0.00000000000E+00 0.  1.
          4    1    5    5  502    0  0.39163990350E+03 -0.47428702056E+02 -0.15944924595E+02  0.39482342435E+03  0.00000000000E+00 0.  1.
          3    1    6    6  503    0 -0.23049496884E+03 -0.14762593318E+03 -0.41496898305E+03  0.49711226469E+03  0.00000000000E+00 0. -1.
         -4    1    5    5    0  502  0.10605897992E+03  0.34565329491E+02  0.23608117747E+00  0.11154965244E+03  0.00000000000E+00 0. -1.
         -3    1    6    6    0  503 -0.73225077663E+01  0.56579887183E+01 -0.61595637504E+02  0.62286872741E+02  0.00000000000E+00 0.  1.
<mgrwt>
<rscale>  0 0.13108327E+04</rscale>
<asrwt>0</asrwt>
<pdfrwt beam="1">  1        1 0.19578732E+00 0.13108327E+04</pdfrwt>
<pdfrwt beam="2">  1       -1 0.51930592E-01 0.13108327E+04</pdfrwt>
<totfact> 0.34680228E+01</totfact>
</mgrwt>
</event>
<event>
12    1  0.4403484E-008  0.9581073E+03  0.7818608E-02  0.9355724E-01
          2   -1    0    0  501    0  0.00000000000E+00  0.00000000000E+00  0.14233592931E+04  0.14233592931E+04  0.00000000000E+00 0. -1.
         -2   -1    0    0    0  501 -0.00000000000E+00 -0.00000000000E+00 -0.16123295291E+03  0.16123295291E+03  0.00000000000E+00 0.  1.
         23    2    1    2    0    0 -0.21048166706E+02  0.61507735083E+02  0.10704581007E+03  0.15510774409E+03  0.91506174800E+02 0.  0.
        254    2    1    2    0    0  0.21048166706E+02 -0.61507735083E+02  0.11550805301E+04  0.14294845019E+04  0.83963604221E+03 0.  0.
         23    2    4    4    0    0 -0.36209461804E+03 -0.20092738680E+03  0.56818137910E+03  0.70906281227E+03  0.91954689984E+02 0.  0.
         23    2    4    4    0    0  0.38314278475E+03  0.13941965172E+03  0.58689915099E+03  0.72042168962E+03  0.91217129198E+02 0.  0.
         13    1    3    3    0    0 -0.31615243788E+02  0.81816066586E+02  0.73184585233E+02  0.11423386498E+03  0.00000000000E+00 0.  1.
        -13    1    3    3    0    0  0.10567077081E+02 -0.20308331503E+02  0.33861224835E+02  0.40873879114E+02  0.00000000000E+00 0. -1.
          2    1    5    5  502    0 -0.27943506607E+03 -0.11599351987E+03  0.44512366295E+03  0.53821327382E+03  0.00000000000E+00 0. -1.
          1    1    6    6  503    0  0.28659808041E+03  0.10353835420E+03  0.36286334481E+03  0.47384433888E+03  0.00000000000E+00 0. -1.
         -2    1    5    5    0  502 -0.82659551966E+02 -0.84933866935E+02  0.12305771615E+03  0.17084953845E+03  0.00000000000E+00 0.  1.
         -1    1    6    6    0  503  0.96544704333E+02  0.35881297519E+02  0.22403580618E+03  0.24657735074E+03  0.00000000000E+00 0.  1.
<mgrwt>
<rscale>  0 0.95810735E+03</rscale>
<asrwt>0</asrwt>
<pdfrwt beam="1">  1        2 0.21897834E+00 0.95810735E+03</pdfrwt>
<pdfrwt beam="2">  1       -2 0.24805071E-01 0.95810735E+03</pdfrwt>
<totfact> 0.20404580E+02</totfact>
</mgrwt>
</event>
<event>
12    1  0.4403484E-008  0.2349629E+04  0.7818608E-02  0.8458606E-01
          2   -1    0    0  501    0  0.00000000000E+00  0.00000000000E+00  0.97229671540E+03  0.97229671540E+03  0.00000000000E+00 0. -1.
         -2   -1    0    0    0  501 -0.00000000000E+00 -0.00000000000E+00 -0.14195143868E+04  0.14195143868E+04  0.00000000000E+00 0.  1.
         23    2    1    2    0    0  0.63429227107E+02  0.39470222780E+03 -0.10603260265E+04  0.11368330228E+04  0.91021556686E+02 0.  0.
        254    2    1    2    0    0 -0.63429227107E+02 -0.39470222780E+03  0.61310835510E+03  0.12549780794E+04  0.10194385755E+04 0.  0.
         23    2    4    4    0    0 -0.50821421242E+03 -0.37629709587E+03  0.33724466441E+03  0.72318599018E+03  0.96864971283E+02 0.  0.
         23    2    4    4    0    0  0.44478498531E+03 -0.18405131930E+02  0.27586369069E+03  0.53179208921E+03  0.92355932528E+02 0.  0.
         11    1    3    3    0    0  0.26692100529E+02  0.35243493510E+03 -0.93456029462E+03  0.99916254733E+03  0.00000000000E+00 0.  1.
        -11    1    3    3    0    0  0.36737126578E+02  0.42267292707E+02 -0.12576573186E+03  0.13767047546E+03  0.00000000000E+00 0. -1.
          1    1    6    6  502    0  0.13120093652E+03  0.13283394779E+02  0.12752977048E+03  0.18345020218E+03  0.00000000000E+00 0. -1.
          1    1    5    5  503    0 -0.50078463097E+02 -0.74567957747E+02  0.31630094136E+02  0.95229699379E+02  0.00000000000E+00 0. -1.
         -1    1    5    5    0  503 -0.45813574932E+03 -0.30172913813E+03  0.30561457027E+03  0.62795629081E+03  0.00000000000E+00 0.  1.
         -1    1    6    6    0  502  0.31358404878E+03 -0.31688526708E+02  0.14833392021E+03  0.34834188703E+03  0.00000000000E+00 0.  1.
<mgrwt>
<rscale>  0 0.23496291E+04</rscale>
<asrwt>0</asrwt>
<pdfrwt beam="1">  1        2 0.14958411E+00 0.23496291E+04</pdfrwt>
<pdfrwt beam="2">  1       -2 0.21838683E+00 0.23496291E+04</pdfrwt>
<totfact> 0.23980652E+00</totfact>
</mgrwt>
</event>
<event>
12    1  0.4403484E-008  0.3027413E+04  0.7818608E-02  0.8235946E-01
          2   -1    0    0  501    0  0.00000000000E+00  0.00000000000E+00  0.13295619875E+04  0.13295619875E+04  0.00000000000E+00 0. -1.
         -2   -1    0    0    0  501 -0.00000000000E+00 -0.00000000000E+00 -0.17233549810E+04  0.17233549810E+04  0.00000000000E+00 0.  1.
         23    2    1    2    0    0  0.10795402165E+04  0.84102016994E+03  0.29010297564E+00  0.13715714891E+04  0.92120901171E+02 0.  0.
        254    2    1    2    0    0 -0.10795402165E+04 -0.84102016994E+03 -0.39408309650E+03  0.16813454793E+04  0.89381157337E+03 0.  0.
         23    2    4    4    0    0 -0.32875148238E+03 -0.23987419901E+03 -0.56342584412E+03  0.70071421221E+03  0.89076129514E+02 0.  0.
         23    2    4    4    0    0 -0.75078873409E+03 -0.60114597093E+03  0.16934274762E+03  0.98063126712E+03  0.88884837152E+02 0.  0.
         13    1    3    3    0    0  0.45457640762E+03  0.36941520945E+03 -0.43835855998E+02  0.58739159818E+03  0.00000000000E+00 0. -1.
        -13    1    3    3    0    0  0.62496380885E+03  0.47160496049E+03  0.44125958974E+02  0.78417989096E+03  0.00000000000E+00 0.  1.
          2    1    5    5  502    0 -0.13659577007E+03 -0.50810820652E+02 -0.17198953850E+03  0.22543412619E+03  0.00000000000E+00 0. -1.
          4    1    6    6  503    0 -0.72526287949E+02 -0.69011800272E+02  0.44448240872E+02  0.10953692134E+03  0.00000000000E+00 0. -1.
         -2    1    5    5    0  502 -0.19215571231E+03 -0.18906337835E+03 -0.39143630562E+03  0.47528008602E+03  0.00000000000E+00 0.  1.
         -4    1    6    6    0  503 -0.67826244614E+03 -0.53213417066E+03  0.12489450675E+03  0.87109434577E+03  0.00000000000E+00 0.  1.
<mgrwt>
<rscale>  0 0.30274129E+04</rscale>
<asrwt>0</asrwt>
<pdfrwt beam="1">  1        2 0.20454800E+00 0.30274129E+04</pdfrwt>
<pdfrwt beam="2">  1       -2 0.26513154E+00 0.30274129E+04</pdfrwt>
<totfact> 0.70437433E-01</totfact>
</mgrwt>
</event>
<event>
12    1  0.4403484E-008  0.1481322E+04  0.7818608E-02  0.8896970E-01
         -2   -1    0    0    0  501 -0.00000000000E+00  0.00000000000E+00  0.46170305601E+03  0.46170305601E+03  0.00000000000E+00 0.  1.
          2   -1    0    0  501    0  0.00000000000E+00 -0.00000000000E+00 -0.11881632815E+04  0.11881632815E+04  0.00000000000E+00 0. -1.
         23    2    1    2    0    0  0.10989986772E+03  0.83407174356E+02 -0.73073094569E+03  0.74927071640E+03  0.91674171936E+02 0.  0.
        254    2    1    2    0    0 -0.10989986772E+03 -0.83407174356E+02  0.42707201556E+01  0.90059562115E+03  0.88995477196E+03 0.  0.
         23    2    4    4    0    0 -0.73499128706E+02 -0.43092886020E+03 -0.19380060236E+03  0.48611678403E+03  0.87458846142E+02 0.  0.
         23    2    4    4    0    0 -0.36400739016E+02  0.34752168584E+03  0.19807132252E+03  0.41447883713E+03  0.10229428963E+03 0.  0.
         13    1    3    3    0    0 -0.72881979078E+01  0.32667624634E+02 -0.23427284146E+03  0.23665176055E+03  0.00000000000E+00 0. -1.
        -13    1    3    3    0    0  0.11718806563E+03  0.50739549722E+02 -0.49645810424E+03  0.51261895585E+03  0.00000000000E+00 0.  1.
          2    1    5    5  502    0  0.64848519513E+01  0.92243068727E+00 -0.18462465159E+01  0.68053515266E+01  0.00000000000E+00 0.  1.
          3    1    6    6  503    0 -0.25326536693E+02  0.34193571115E+03  0.20577201317E+03  0.39987946362E+03  0.00000000000E+00 0. -1.
         -2    1    5    5    0  502 -0.79983980658E+02 -0.43185129088E+03 -0.19195435584E+03  0.47931143250E+03  0.00000000000E+00 0. -1.
         -3    1    6    6    0  503 -0.11074202324E+02  0.55859746905E+01 -0.77006906507E+01  0.14599373509E+02  0.00000000000E+00 0.  1.
<mgrwt>
<rscale>  0 0.14813219E+04</rscale>
<asrwt>0</asrwt>
<pdfrwt beam="1">  1        2 0.18279435E+00 0.14813219E+04</pdfrwt>
<pdfrwt beam="2">  1       -2 0.71031240E-01 0.14813219E+04</pdfrwt>
<totfact> 0.33539683E+01</totfact>
</mgrwt>
</event>
<event>
12    1  0.4403484E-008  0.2421768E+04  0.7818608E-02  0.8431399E-01
          2   -1    0    0  501    0  0.00000000000E+00  0.00000000000E+00  0.78780394239E+03  0.78780394239E+03  0.00000000000E+00 0. -1.
         -2   -1    0    0    0  501 -0.00000000000E+00 -0.00000000000E+00 -0.18611743961E+04  0.18611743961E+04  0.00000000000E+00 0.  1.
         23    2    1    2    0    0  0.26752052403E+03  0.37151341073E+02 -0.15579964338E+04  0.15838520899E+04  0.91033522051E+02 0.  0.
        254    2    1    2    0    0 -0.26752052403E+03 -0.37151341073E+02  0.48462598005E+03  0.10651262486E+04  0.90922171772E+03 0.  0.
         23    2    4    4    0    0  0.30217268815E+03 -0.15638273036E+02  0.85866429748E+01  0.31659696479E+03  0.92774019145E+02 0.  0.
         23    2    4    4    0    0 -0.56969321218E+03 -0.21513068037E+02  0.47603933707E+03  0.74852928380E+03  0.93109989595E+02 0.  0.
         11    1    3    3    0    0  0.53459564979E+02  0.45034311292E+02 -0.33129742175E+03  0.33859119294E+03  0.00000000000E+00 0. -1.
        -11    1    3    3    0    0  0.21406095905E+03 -0.78829702194E+01 -0.12266990120E+04  0.12452608969E+04  0.00000000000E+00 0.  1.
          2    1    5    5  502    0  0.29008936994E+03  0.53925595467E+01  0.17718280564E+02  0.29067999538E+03  0.00000000000E+00 0. -1.
          3    1    6    6  503    0 -0.44944420784E+03 -0.38252923659E+02  0.33159232570E+03  0.55983645164E+03  0.00000000000E+00 0. -1.
         -2    1    5    5    0  502  0.12083318212E+02 -0.21030832583E+02 -0.91316375896E+01  0.25916969406E+02  0.00000000000E+00 0.  1.
         -3    1    6    6    0  503 -0.12024900435E+03  0.16739855621E+02  0.14444701138E+03  0.18869283216E+03  0.00000000000E+00 0.  1.
<mgrwt>
<rscale>  0 0.24217684E+04</rscale>
<asrwt>0</asrwt>
<pdfrwt beam="1">  1        2 0.12120061E+00 0.24217684E+04</pdfrwt>
<pdfrwt beam="2">  1       -2 0.28633452E+00 0.24217684E+04</pdfrwt>
<totfact> 0.12159269E+00</totfact>
</mgrwt>
</event>
<event>
12    1  0.4403484E-008  0.1379869E+04  0.7818608E-02  0.8968521E-01
         -2   -1    0    0    0  501 -0.00000000000E+00  0.00000000000E+00  0.14364731543E+04  0.14364731543E+04  0.00000000000E+00 0.  1.
          2   -1    0    0  501    0  0.00000000000E+00 -0.00000000000E+00 -0.33137379403E+03  0.33137379403E+03  0.00000000000E+00 0. -1.
         23    2    1    2    0    0  0.24795425087E+03 -0.28938020647E+02  0.69213216472E+03  0.74152838538E+03  0.92188357875E+02 0.  0.
        254    2    1    2    0    0 -0.24795425087E+03  0.28938020647E+02  0.41296719556E+03  0.10263185630E+04  0.90579753174E+03 0.  0.
         23    2    4    4    0    0 -0.51354676763E+03  0.20510846765E+03  0.98083587603E+02  0.56885425279E+03  0.90415732664E+02 0.  0.
         23    2    4    4    0    0  0.26559251677E+03 -0.17617044701E+03  0.31488360796E+03  0.45746431017E+03  0.92447266878E+02 0.  0.
         13    1    3    3    0    0  0.21515995713E+03 -0.18932566343E+02  0.47624494705E+03  0.52293546333E+03  0.00000000000E+00 0. -1.
        -13    1    3    3    0    0  0.32794293737E+02 -0.10005454304E+02  0.21588721766E+03  0.21859292205E+03  0.00000000000E+00 0.  1.
          3    1    5    5  502    0 -0.36721710394E+03  0.10430735161E+03  0.81896805839E+02  0.39042990642E+03  0.00000000000E+00 0. -1.
          3    1    6    6  503    0  0.19558309346E+03 -0.85268754577E+02  0.23643456925E+03  0.31847262440E+03  0.00000000000E+00 0. -1.
         -3    1    5    5    0  502 -0.14632966370E+03  0.10080111604E+03  0.16186781764E+02  0.17842434637E+03  0.00000000000E+00 0.  1.
         -3    1    6    6    0  503  0.70009423307E+02 -0.90901692430E+02  0.78449038711E+02  0.13899168577E+03  0.00000000000E+00 0.  1.
<mgrwt>
<rscale>  0 0.13798689E+04</rscale>
<asrwt>0</asrwt>
<pdfrwt beam="1">  1        2 0.50980584E-01 0.13798689E+04</pdfrwt>
<pdfrwt beam="2">  1       -2 0.22099587E+00 0.13798689E+04</pdfrwt>
<totfact> 0.93252757E+00</totfact>
</mgrwt>
</event>
<event>
12    1  0.4403484E-008  0.1834587E+04  0.7818608E-02  0.8688120E-01
          1   -1    0    0  501    0  0.00000000000E+00  0.00000000000E+00  0.14374110063E+04  0.14374110063E+04  0.00000000000E+00 0. -1.
         -1   -1    0    0    0  501 -0.00000000000E+00 -0.00000000000E+00 -0.58537721092E+03  0.58537721092E+03  0.00000000000E+00 0.  1.
         23    2    1    2    0    0 -0.62171767314E+03 -0.43427098415E+02 -0.21287313975E+01  0.62993194185E+03  0.91602084580E+02 0.  0.
        254    2    1    2    0    0  0.62171767314E+03  0.43427098415E+02  0.85416252681E+03  0.13928562754E+04  0.90666212216E+03 0.  0.
         23    2    4    4    0    0  0.57352276025E+03  0.28042034284E+03  0.17842315367E+03  0.66955214483E+03  0.94346847724E+02 0.  0.
         23    2    4    4    0    0  0.48194912884E+02 -0.23699324443E+03  0.67573937314E+03  0.72330413057E+03  0.89758661772E+02 0.  0.
         13    1    3    3    0    0 -0.23435271845E+02 -0.17452301185E+02  0.10228947011E+02  0.30958458295E+02  0.00000000000E+00 0. -1.
        -13    1    3    3    0    0 -0.59828240129E+03 -0.25974797231E+02 -0.12357678409E+02  0.59897348355E+03  0.00000000000E+00 0.  1.
          3    1    5    5  502    0  0.47356616459E+03  0.24318817804E+03  0.18260256945E+03  0.56280467353E+03  0.00000000000E+00 0. -1.
          3    1    6    6  503    0  0.51421738012E+02 -0.22624938607E+03  0.67283514809E+03  0.71171631733E+03  0.00000000000E+00 0. -1.
         -3    1    5    5    0  502  0.99956595666E+02  0.37232164805E+02 -0.41794157750E+01  0.10674747130E+03  0.00000000000E+00 0.  1.
         -3    1    6    6    0  503 -0.32268251288E+01 -0.10743858354E+02  0.29042250451E+01  0.11587813247E+02  0.00000000000E+00 0.  1.
<mgrwt>
<rscale>  0 0.18345873E+04</rscale>
<asrwt>0</asrwt>
<pdfrwt beam="1">  1        1 0.22114015E+00 0.18345873E+04</pdfrwt>
<pdfrwt beam="2">  1       -1 0.90058033E-01 0.18345873E+04</pdfrwt>
<totfact> 0.82076011E+00</totfact>
</mgrwt>
</event>
<event>
12    1  0.4403484E-008  0.1862409E+04  0.7818608E-02  0.8673798E-01
          2   -1    0    0  501    0  0.00000000000E+00  0.00000000000E+00  0.88218451504E+03  0.88218451504E+03  0.00000000000E+00 0.  1.
         -2   -1    0    0    0  501 -0.00000000000E+00 -0.00000000000E+00 -0.98294815140E+03  0.98294815140E+03  0.00000000000E+00 0. -1.
         23    2    1    2    0    0 -0.98431194192E+02 -0.22969223278E+03 -0.70848583480E+03  0.75656741076E+03  0.89413909032E+02 0.  0.
        254    2    1    2    0    0  0.98431194192E+02  0.22969223278E+03  0.60772219844E+03  0.11085652557E+04  0.89282889392E+03 0.  0.
         23    2    4    4    0    0 -0.24669137386E+03  0.13565862835E+03 -0.96516951825E+02  0.31345641726E+03  0.98384481260E+02 0.  0.
         23    2    4    4    0    0  0.34512256805E+03  0.94033604436E+02  0.70423915027E+03  0.79510883841E+03  0.91067987838E+02 0.  0.
         13    1    3    3    0    0 -0.84018859678E+02 -0.21825477325E+03 -0.55894875627E+03  0.60590265469E+03  0.00000000000E+00 0. -1.
        -13    1    3    3    0    0 -0.14412334514E+02 -0.11437459530E+02 -0.14953707853E+03  0.15066475607E+03  0.00000000000E+00 0.  1.
          1    1    5    5  502    0 -0.24218993985E+03  0.11050386041E+03 -0.10552484100E+03  0.28636089502E+03  0.00000000000E+00 0. -1.
          3    1    6    6  503    0  0.29265449955E+03  0.60242547764E+02  0.63567848984E+03  0.70239800904E+03  0.00000000000E+00 0. -1.
         -1    1    5    5    0  502 -0.45014340118E+01  0.25154767936E+02  0.90078891790E+01  0.27095522242E+02  0.00000000000E+00 0.  1.
         -3    1    6    6    0  503  0.52468068502E+02  0.33791056672E+02  0.68560660431E+02  0.92710829368E+02  0.00000000000E+00 0.  1.
<mgrwt>
<rscale>  0 0.18624088E+04</rscale>
<asrwt>0</asrwt>
<pdfrwt beam="1">  1        2 0.13572069E+00 0.18624088E+04</pdfrwt>
<pdfrwt beam="2">  1       -2 0.15122279E+00 0.18624088E+04</pdfrwt>
<totfact> 0.83032416E+00</totfact>
</mgrwt>
</event>
<event>
12    1  0.4403484E-008  0.1913914E+04  0.7818608E-02  0.8647961E-01
          1   -1    0    0  501    0  0.00000000000E+00  0.00000000000E+00  0.13837929995E+04  0.13837929995E+04  0.00000000000E+00 0. -1.
         -1   -1    0    0    0  501 -0.00000000000E+00 -0.00000000000E+00 -0.66177995782E+03  0.66177995782E+03  0.00000000000E+00 0.  1.
         23    2    1    2    0    0  0.11422303789E+03 -0.22374463389E+03 -0.46365140174E+03  0.53579979484E+03  0.94869564333E+02 0.  0.
        254    2    1    2    0    0 -0.11422303789E+03  0.22374463389E+03  0.11856644434E+04  0.15097731625E+04  0.90028121506E+03 0.  0.
         23    2    4    4    0    0 -0.44749059433E+03  0.30779511688E+03  0.89169975010E+03  0.10483313173E+04  0.94257310510E+02 0.  0.
         23    2    4    4    0    0  0.33326755644E+03 -0.84050482989E+02  0.29396469330E+03  0.46144184513E+03  0.91551011308E+02 0.  0.
         13    1    3    3    0    0  0.77224542898E+02 -0.66571251177E+02 -0.23211561289E+03  0.25352124025E+03  0.00000000000E+00 0. -1.
        -13    1    3    3    0    0  0.36998494994E+02 -0.15717338271E+03 -0.23153578885E+03  0.28227855459E+03  0.00000000000E+00 0.  1.
          2    1    5    5  502    0 -0.20724747583E+03  0.11123505880E+03  0.31166160469E+03  0.39045833373E+03  0.00000000000E+00 0. -1.
          4    1    6    6  503    0  0.11449739154E+03 -0.55787281196E+01  0.14717208135E+03  0.18654864354E+03  0.00000000000E+00 0. -1.
         -2    1    5    5    0  502 -0.24024311850E+03  0.19656005808E+03  0.58003814541E+03  0.65787298360E+03  0.00000000000E+00 0.  1.
         -4    1    6    6    0  503  0.21877016490E+03 -0.78471754870E+02  0.14679261195E+03  0.27489320159E+03  0.00000000000E+00 0.  1.
<mgrwt>
<rscale>  0 0.19139138E+04</rscale>
<asrwt>0</asrwt>
<pdfrwt beam="1">  1        1 0.21289123E+00 0.19139138E+04</pdfrwt>
<pdfrwt beam="2">  1       -1 0.10181230E+00 0.19139138E+04</pdfrwt>
<totfact> 0.67408607E+00</totfact>
</mgrwt>
</event>
<event>
12    1  0.4403484E-008  0.3213257E+04  0.7818608E-02  0.8185325E-01
          1   -1    0    0  501    0  0.00000000000E+00  0.00000000000E+00  0.30445645556E+04  0.30445645556E+04  0.00000000000E+00 0. -1.
         -1   -1    0    0    0  501 -0.00000000000E+00 -0.00000000000E+00 -0.84782407190E+03  0.84782407190E+03  0.00000000000E+00 0.  1.
         23    2    1    2    0    0  0.39487836195E+03  0.53032367704E+03 -0.58961652033E+03  0.89068235457E+03  0.92169911178E+02 0.  0.
        254    2    1    2    0    0 -0.39487836195E+03 -0.53032367704E+03  0.27863570041E+04  0.30017062730E+04  0.89960161842E+03 0.  0.
         23    2    4    4    0    0 -0.60707138543E+02 -0.81504863603E+01  0.19683975872E+04  0.19714720766E+04  0.91440147670E+02 0.  0.
         23    2    4    4    0    0 -0.33417122341E+03 -0.52217319068E+03  0.81795941690E+03  0.10302341963E+04  0.89384808626E+02 0.  0.
         13    1    3    3    0    0  0.82746733390E+01  0.26179822406E+02 -0.62410546150E+01  0.28156776853E+02  0.00000000000E+00 0. -1.
        -13    1    3    3    0    0  0.38660368862E+03  0.50414385463E+03 -0.58337546571E+03  0.86252557771E+03  0.00000000000E+00 0.  1.
          1    1    5    5  502    0 -0.77225104504E+02 -0.29832956395E+02  0.14667748142E+04  0.14691092803E+04  0.00000000000E+00 0.  1.
          3    1    6    6  503    0 -0.50410162355E+02 -0.59539557553E+02  0.15443187599E+03  0.17301834499E+03  0.00000000000E+00 0. -1.
         -1    1    5    5    0  502  0.16517965961E+02  0.21682470035E+02  0.50162277300E+03  0.50236279630E+03  0.00000000000E+00 0. -1.
         -3    1    6    6    0  503 -0.28376106106E+03 -0.46263363312E+03  0.66352754091E+03  0.85721585135E+03  0.00000000000E+00 0.  1.
<mgrwt>
<rscale>  0 0.32132570E+04</rscale>
<asrwt>0</asrwt>
<pdfrwt beam="1">  1        1 0.46839454E+00 0.32132570E+04</pdfrwt>
<pdfrwt beam="2">  1       -1 0.13043447E+00 0.32132570E+04</pdfrwt>
<totfact> 0.23281273E-01</totfact>
</mgrwt>
</event>
<event>
12    1  0.4403484E-008  0.1456488E+04  0.7818608E-02  0.8913915E-01
         -2   -1    0    0    0  501 -0.00000000000E+00  0.00000000000E+00  0.58668652212E+03  0.58668652212E+03  0.00000000000E+00 0.  1.
          2   -1    0    0  501    0  0.00000000000E+00 -0.00000000000E+00 -0.90395654512E+03  0.90395654512E+03  0.00000000000E+00 0. -1.
         23    2    1    2    0    0  0.88910884246E+01 -0.42816242678E+03  0.14117078591E+02  0.44111183071E+03  0.10477709733E+03 0.  0.
        254    2    1    2    0    0 -0.88910884246E+01  0.42816242678E+03 -0.33138710159E+03  0.10495312365E+04  0.89905299632E+03 0.  0.
         23    2    4    4    0    0 -0.40801435456E+03  0.15666744120E+03 -0.33457705358E+03  0.55813111097E+03  0.92456106310E+02 0.  0.
         23    2    4    4    0    0  0.39912326614E+03  0.27149498558E+03  0.31899519889E+01  0.49140012556E+03  0.91951067605E+02 0.  0.
         13    1    3    3    0    0 -0.36123062686E+02 -0.27106828960E+03  0.37526750427E+02  0.27602744480E+03  0.00000000000E+00 0.  1.
        -13    1    3    3    0    0  0.45014151111E+02 -0.15709413718E+03 -0.23409671837E+02  0.16508438592E+03  0.00000000000E+00 0. -1.
          2    1    5    5  502    0 -0.37560527003E+03  0.11427503691E+03 -0.28348637921E+03  0.48425471617E+03  0.00000000000E+00 0. -1.
          3    1    6    6  503    0  0.37428630806E+03  0.25897100175E+03  0.25330284387E+02  0.45584848739E+03  0.00000000000E+00 0. -1.
         -2    1    5    5    0  502 -0.32409084532E+02  0.42392404291E+02 -0.51090674367E+02  0.73876394802E+02  0.00000000000E+00 0.  1.
         -3    1    6    6    0  503  0.24836958081E+02  0.12523983831E+02 -0.22140332398E+02  0.35551638168E+02  0.00000000000E+00 0.  1.
<mgrwt>
<rscale>  0 0.14564877E+04</rscale>
<asrwt>0</asrwt>
<pdfrwt beam="1">  1        2 0.13907024E+00 0.14564877E+04</pdfrwt>
<pdfrwt beam="2">  1       -2 0.90259465E-01 0.14564877E+04</pdfrwt>
<totfact> 0.29662224E+01</totfact>
</mgrwt>
</event>
<event>
12    1  0.4403484E-008  0.1599473E+04  0.7818608E-02  0.8820872E-01
         -1   -1    0    0    0  501 -0.00000000000E+00  0.00000000000E+00  0.37911470491E+03  0.37911470491E+03  0.00000000000E+00 0. -1.
          1   -1    0    0  501    0  0.00000000000E+00 -0.00000000000E+00 -0.16870305910E+04  0.16870305910E+04  0.00000000000E+00 0.  1.
         23    2    1    2    0    0  0.37713755411E+02  0.16223600212E+03  0.21618704144E+03  0.28752105078E+03  0.90491270434E+02 0.  0.
        254    2    1    2    0    0 -0.37713755411E+02 -0.16223600212E+03 -0.15241029275E+04  0.17786242451E+04  0.90159393516E+03 0.  0.
         23    2    4    4    0    0 -0.30583196828E+03  0.15729944356E+03 -0.11735474915E+04  0.12263838567E+04  0.92343604796E+02 0.  0.
         23    2    4    4    0    0  0.26811821286E+03 -0.31953544569E+03 -0.35055543602E+03  0.55224038844E+03  0.89944737371E+02 0.  0.
         11    1    3    3    0    0  0.56457304957E+01  0.15794649621E+01 -0.79605716630E+01  0.98863382301E+01  0.00000000000E+00 0.  1.
        -11    1    3    3    0    0  0.32068024915E+02  0.16065653716E+03  0.22414761310E+03  0.27763471255E+03  0.00000000000E+00 0. -1.
          2    1    5    5  502    0 -0.22644408995E+03  0.15813727676E+03 -0.88335839430E+03  0.92553032201E+03  0.00000000000E+00 0.  1.
          3    1    6    6  503    0  0.99237064898E+02 -0.70729746356E+02 -0.13735398803E+03  0.18362137702E+03  0.00000000000E+00 0. -1.
         -2    1    5    5    0  502 -0.79387878326E+02 -0.83783319595E+00 -0.29018909720E+03  0.30085353467E+03  0.00000000000E+00 0. -1.
         -3    1    6    6    0  503  0.16888114797E+03 -0.24880569933E+03 -0.21320144799E+03  0.36861901142E+03  0.00000000000E+00 0.  1.
<mgrwt>
<rscale>  0 0.15994725E+04</rscale>
<asrwt>0</asrwt>
<pdfrwt beam="1">  1        1 0.25954317E+00 0.15994725E+04</pdfrwt>
<pdfrwt beam="2">  1       -1 0.58325340E-01 0.15994725E+04</pdfrwt>
<totfact> 0.13902902E+01</totfact>
</mgrwt>
</event>
<event>
12    1  0.4403484E-008  0.1950732E+04  0.7818608E-02  0.8630008E-01
         -2   -1    0    0    0  501 -0.00000000000E+00  0.00000000000E+00  0.77651669637E+03  0.77651669637E+03  0.00000000000E+00 0. -1.
          2   -1    0    0  501    0  0.00000000000E+00 -0.00000000000E+00 -0.12251365303E+04  0.12251365303E+04  0.00000000000E+00 0.  1.
         23    2    1    2    0    0 -0.14560009548E+03 -0.14197746499E+03  0.57823117540E+03  0.61980651987E+03  0.91933897440E+02 0.  0.
        254    2    1    2    0    0  0.14560009548E+03  0.14197746499E+03 -0.10268510093E+04  0.13818467068E+04  0.90206448624E+03 0.  0.
         23    2    4    4    0    0 -0.20164354295E+03  0.31490416533E+03 -0.87390758166E+03  0.95495925237E+03  0.91694932546E+02 0.  0.
         23    2    4    4    0    0  0.34724363844E+03 -0.17292670034E+03 -0.15294342764E+03  0.42688745439E+03  0.91429855823E+02 0.  0.
         11    1    3    3    0    0 -0.10312388897E+03 -0.97461507262E+02  0.50293486286E+03  0.52256746756E+03  0.00000000000E+00 0. -1.
        -11    1    3    3    0    0 -0.42476206508E+02 -0.44515957723E+02  0.75296312546E+02  0.97239052311E+02  0.00000000000E+00 0.  1.
          4    1    5    5  502    0 -0.17223982556E+03  0.30088284986E+03 -0.83563383769E+03  0.90469937413E+03  0.00000000000E+00 0. -1.
          3    1    6    6  503    0  0.18899560133E+03 -0.64572584917E+02 -0.11789318134E+03  0.23192187963E+03  0.00000000000E+00 0. -1.
         -4    1    5    5    0  502 -0.29403717393E+02  0.14021315464E+02 -0.38273743965E+02  0.50259878243E+02  0.00000000000E+00 0.  1.
         -3    1    6    6    0  503  0.15824803711E+03 -0.10835411542E+03 -0.35050246299E+02  0.19496557476E+03  0.00000000000E+00 0.  1.
<mgrwt>
<rscale>  0 0.19507321E+04</rscale>
<asrwt>0</asrwt>
<pdfrwt beam="1">  1        2 0.18848254E+00 0.19507321E+04</pdfrwt>
<pdfrwt beam="2">  1       -2 0.11946411E+00 0.19507321E+04</pdfrwt>
<totfact> 0.91659325E+00</totfact>
</mgrwt>
</event>
<event>
12    1  0.4403484E-008  0.1104302E+04  0.7818608E-02  0.9201008E-01
         -1   -1    0    0    0  501 -0.00000000000E+00  0.00000000000E+00  0.26301291875E+03  0.26301291875E+03  0.00000000000E+00 0.  1.
          1   -1    0    0  501    0  0.00000000000E+00 -0.00000000000E+00 -0.11591483751E+04  0.11591483751E+04  0.00000000000E+00 0. -1.
         23    2    1    2    0    0 -0.30033907338E+02 -0.70365321115E+02  0.41546558464E+02  0.12401851082E+03  0.88324178461E+02 0.  0.
        254    2    1    2    0    0  0.30033907338E+02  0.70365321115E+02 -0.93768201486E+03  0.12981427831E+04  0.89446845123E+03 0.  0.
         23    2    4    4    0    0  0.18971068655E+03  0.64247442538E+02 -0.10562208910E+04  0.10790036544E+04  0.92349537886E+02 0.  0.
         23    2    4    4    0    0 -0.15967677921E+03  0.61178785768E+01  0.11853887616E+03  0.21913912866E+03  0.91849824654E+02 0.  0.
         13    1    3    3    0    0 -0.39663549862E+02 -0.70974466699E+01 -0.10375814384E+02  0.41608033612E+02  0.00000000000E+00 0. -1.
        -13    1    3    3    0    0  0.96296425240E+01 -0.63267874445E+02  0.51922372848E+02  0.82410477211E+02  0.00000000000E+00 0.  1.
          2    1    6    6  502    0 -0.12421167275E+03  0.35410813677E+02  0.11511375740E+03  0.17301341716E+03  0.00000000000E+00 0.  1.
          2    1    5    5  503    0  0.93194949456E+02  0.72320504295E+02 -0.69908507147E+03  0.70896790555E+03  0.00000000000E+00 0. -1.
         -2    1    5    5    0  503  0.96515737092E+02 -0.80730617571E+01 -0.35713581955E+03  0.37003574886E+03  0.00000000000E+00 0.  1.
         -2    1    6    6    0  502 -0.35465106458E+02 -0.29292935101E+02  0.34251187633E+01  0.46125711501E+02  0.00000000000E+00 0. -1.
<mgrwt>
<rscale>  0 0.11043025E+04</rscale>
<asrwt>0</asrwt>
<pdfrwt beam="1">  1        1 0.17833052E+00 0.11043025E+04</pdfrwt>
<pdfrwt beam="2">  1       -1 0.40463526E-01 0.11043025E+04</pdfrwt>
<totfact> 0.67987662E+01</totfact>
</mgrwt>
</event>
<event>
12    1  0.4403484E-008  0.1134641E+04  0.7818608E-02  0.9172071E-01
         -1   -1    0    0    0  501 -0.00000000000E+00  0.00000000000E+00  0.26754448569E+03  0.26754448569E+03  0.00000000000E+00 0.  1.
          1   -1    0    0  501    0  0.00000000000E+00 -0.00000000000E+00 -0.12029879509E+04  0.12029879509E+04  0.00000000000E+00 0. -1.
         23    2    1    2    0    0  0.17216439720E+03  0.34970764820E+02 -0.25549498977E+03  0.32294452376E+03  0.90288103177E+02 0.  0.
        254    2    1    2    0    0 -0.17216439720E+03 -0.34970764820E+02 -0.67994847544E+03  0.11475879128E+04  0.90761476099E+03 0.  0.
         23    2    4    4    0    0 -0.22869138446E+03 -0.40484424937E+03 -0.15776314356E+03  0.49878054123E+03  0.87716607701E+02 0.  0.
         23    2    4    4    0    0  0.56526987255E+02  0.36987348455E+03 -0.52218533188E+03  0.64880737160E+03  0.90949380136E+02 0.  0.
         11    1    3    3    0    0  0.11845536300E+03  0.51112783046E+02 -0.11955666811E+03  0.17589197396E+03  0.00000000000E+00 0. -1.
        -11    1    3    3    0    0  0.53709034198E+02 -0.16142018226E+02 -0.13593832166E+03  0.14705254980E+03  0.00000000000E+00 0.  1.
          1    1    5    5  502    0 -0.95444971205E+00 -0.55582331689E+01 -0.17202251136E+02  0.18103103998E+02  0.00000000000E+00 0. -1.
          1    1    6    6  503    0  0.21696299511E+02  0.40830592523E+02 -0.27920410867E+02  0.54013109901E+02  0.00000000000E+00 0. -1.
         -1    1    5    5    0  502 -0.22773693474E+03 -0.39928601620E+03 -0.14056089242E+03  0.48067743723E+03  0.00000000000E+00 0.  1.
         -1    1    6    6    0  503  0.34830687744E+02  0.32904289203E+03 -0.49426492102E+03  0.59479426170E+03  0.00000000000E+00 0.  1.
<mgrwt>
<rscale>  0 0.11346414E+04</rscale>
<asrwt>0</asrwt>
<pdfrwt beam="1">  1        1 0.18507507E+00 0.11346414E+04</pdfrwt>
<pdfrwt beam="2">  1       -1 0.41160690E-01 0.11346414E+04</pdfrwt>
<totfact> 0.61049513E+01</totfact>
</mgrwt>
</event>
<event>
12    1  0.4403484E-008  0.1797869E+04  0.7818608E-02  0.8707434E-01
          2   -1    0    0  501    0  0.00000000000E+00  0.00000000000E+00  0.22231890884E+04  0.22231890884E+04  0.00000000000E+00 0. -1.
         -2   -1    0    0    0  501 -0.00000000000E+00 -0.00000000000E+00 -0.36347917384E+03  0.36347917384E+03  0.00000000000E+00 0.  1.
         23    2    1    2    0    0  0.45980784502E+02  0.49286755254E+03  0.13490360279E+04  0.14398471616E+04  0.90713765624E+02 0.  0.
        254    2    1    2    0    0 -0.45980784502E+02 -0.49286755254E+03  0.51067388665E+03  0.11468211006E+04  0.89965446782E+03 0.  0.
         23    2    4    4    0    0  0.21718379859E+03 -0.51820549826E+03  0.47514129008E+01  0.56888758228E+03  0.88908742872E+02 0.  0.
         23    2    4    4    0    0 -0.26316458309E+03  0.25337945720E+02  0.50592247375E+03  0.57793351835E+03  0.90288387432E+02 0.  0.
         11    1    3    3    0    0  0.21390914163E+02  0.36132196607E+03  0.86557491945E+03  0.93820630757E+03  0.00000000000E+00 0.  1.
        -11    1    3    3    0    0  0.24589870339E+02  0.13154558647E+03  0.48346110842E+03  0.50164085399E+03  0.00000000000E+00 0. -1.
          4    1    5    5  502    0  0.78611494934E+02 -0.28745415540E+03  0.24413761523E+02  0.29900784328E+03  0.00000000000E+00 0. -1.
          1    1    6    6  503    0 -0.16508705888E+02  0.13009513958E+02  0.10475469296E+03  0.10684255014E+03  0.00000000000E+00 0. -1.
         -4    1    5    5    0  502  0.13857230365E+03 -0.23075134286E+03 -0.19662348622E+02  0.26987973900E+03  0.00000000000E+00 0.  1.
         -1    1    6    6    0  503 -0.24665587720E+03  0.12328431762E+02  0.40116778079E+03  0.47109096821E+03  0.00000000000E+00 0.  1.
<mgrwt>
<rscale>  0 0.17978687E+04</rscale>
<asrwt>0</asrwt>
<pdfrwt beam="1">  1        2 0.34202908E+00 0.17978687E+04</pdfrwt>
<pdfrwt beam="2">  1       -2 0.55919874E-01 0.17978687E+04</pdfrwt>
<totfact> 0.14214459E+01</totfact>
</mgrwt>
</event>
<event>
12    1  0.4403484E-008  0.2053284E+04  0.7818608E-02  0.8582106E-01
         -1   -1    0    0    0  501 -0.00000000000E+00  0.00000000000E+00  0.43022795569E+03  0.43022795569E+03  0.00000000000E+00 0.  1.
          1   -1    0    0  501    0  0.00000000000E+00 -0.00000000000E+00 -0.24498504393E+04  0.24498504393E+04  0.00000000000E+00 0. -1.
         23    2    1    2    0    0 -0.35542442364E+02 -0.58665344970E+03 -0.68120920813E+00  0.59076605901E+03  0.59820875728E+02 0.  0.
        254    2    1    2    0    0  0.35542442364E+02  0.58665344970E+03 -0.20189412744E+04  0.22893123360E+04  0.90520802413E+03 0.  0.
         23    2    4    4    0    0 -0.85464185502E+02  0.42159900622E+02  0.52280855850E+02  0.14240398402E+03  0.92000122559E+02 0.  0.
         23    2    4    4    0    0  0.12100662787E+03  0.54449354908E+03 -0.20712221302E+04  0.21469083520E+04  0.90213801233E+02 0.  0.
         11    1    3    3    0    0  0.11869969580E+02 -0.34819333010E+02  0.27331660018E+01  0.36888376564E+02  0.00000000000E+00 0. -1.
        -11    1    3    3    0    0 -0.47412411945E+02 -0.55183411669E+03 -0.34143752099E+01  0.55387768244E+03  0.00000000000E+00 0.  1.
          1    1    5    5  502    0 -0.43464554095E+02 -0.27205403450E+02  0.17653967707E+02  0.54230655679E+02  0.00000000000E+00 0. -1.
          3    1    6    6  503    0  0.49435097176E+02  0.25306131876E+03 -0.79011209934E+03  0.83112032186E+03  0.00000000000E+00 0. -1.
         -1    1    5    5    0  502 -0.41999631407E+02  0.69365304072E+02  0.34626888143E+02  0.88173328336E+02  0.00000000000E+00 0.  1.
         -3    1    6    6    0  503  0.71571530691E+02  0.29143223031E+03 -0.12811100309E+04  0.13157880301E+04  0.00000000000E+00 0.  1.
<mgrwt>
<rscale>  0 0.20532843E+04</rscale>
<asrwt>0</asrwt>
<pdfrwt beam="1">  1        1 0.37690007E+00 0.20532843E+04</pdfrwt>
<pdfrwt beam="2">  1       -1 0.66188916E-01 0.20532843E+04</pdfrwt>
<totfact> 0.31357407E+00</totfact>
</mgrwt>
</event>
<event>
12    1  0.4403484E-008  0.1640801E+04  0.7818608E-02  0.8795867E-01
         -2   -1    0    0    0  501 -0.00000000000E+00  0.00000000000E+00  0.27527809861E+03  0.27527809861E+03  0.00000000000E+00 0.  1.
          2   -1    0    0  501    0  0.00000000000E+00 -0.00000000000E+00 -0.24450087805E+04  0.24450087805E+04  0.00000000000E+00 0. -1.
         23    2    1    2    0    0  0.51605074446E+03 -0.23610023270E+03 -0.73727590898E+03  0.93514672561E+03  0.94190985373E+02 0.  0.
        254    2    1    2    0    0 -0.51605074446E+03  0.23610023270E+03 -0.14324547729E+04  0.17851401535E+04  0.90152481965E+03 0.  0.
         23    2    4    4    0    0  0.74032109888E+01 -0.19033272504E+03 -0.14373517574E+02  0.21167511945E+03  0.91205287309E+02 0.  0.
         23    2    4    4    0    0 -0.52345395545E+03  0.42643295774E+03 -0.14180812553E+04  0.15734650340E+04  0.94808521351E+02 0.  0.
         13    1    3    3    0    0  0.59558176237E+02 -0.14624954446E+02 -0.41622966337E+02  0.74118398363E+02  0.00000000000E+00 0. -1.
        -13    1    3    3    0    0  0.45649256822E+03 -0.22147527825E+03 -0.69565294264E+03  0.86102832725E+03  0.00000000000E+00 0.  1.
          1    1    5    5  502    0 -0.29079145302E+02 -0.11652649137E+03 -0.38092034129E+02  0.12599612274E+03  0.00000000000E+00 0. -1.
          3    1    6    6  503    0 -0.29349440486E+03  0.28059724850E+03 -0.77003378818E+03  0.87053191584E+03  0.00000000000E+00 0. -1.
         -1    1    5    5    0  502  0.36482356291E+02 -0.73806233671E+02  0.23718516556E+02  0.85678996708E+02  0.00000000000E+00 0.  1.
         -3    1    6    6    0  503 -0.22995955058E+03  0.14583570924E+03 -0.64804746710E+03  0.70293311816E+03  0.00000000000E+00 0.  1.
<mgrwt>
<rscale>  0 0.16408015E+04</rscale>
<asrwt>0</asrwt>
<pdfrwt beam="1">  1        2 0.37615518E+00 0.16408015E+04</pdfrwt>
<pdfrwt beam="2">  1       -2 0.42350479E-01 0.16408015E+04</pdfrwt>
<totfact> 0.18953649E+01</totfact>
</mgrwt>
</event>
<event>
12    1  0.4403484E-008  0.1423757E+04  0.7818608E-02  0.8936800E-01
          1   -1    0    0  501    0  0.00000000000E+00  0.00000000000E+00  0.29954854056E+03  0.29954854056E+03  0.00000000000E+00 0. -1.
         -1   -1    0    0    0  501 -0.00000000000E+00 -0.00000000000E+00 -0.16917815066E+04  0.16917815066E+04  0.00000000000E+00 0.  1.
         23    2    1    2    0    0  0.29994069017E+03 -0.21993103887E+03 -0.15173471482E+03  0.41214156057E+03  0.92212595616E+02 0.  0.
        254    2    1    2    0    0 -0.29994069017E+03  0.21993103887E+03 -0.12404982512E+04  0.15791884866E+04  0.90369590315E+03 0.  0.
         23    2    4    4    0    0  0.78749583281E+02  0.11136858192E+03  0.90889054959E+02  0.18789267758E+03  0.91860655723E+02 0.  0.
         23    2    4    4    0    0 -0.37869027345E+03  0.10856245695E+03 -0.13313873061E+04  0.13912958090E+04  0.88992914492E+02 0.  0.
         13    1    3    3    0    0  0.29206261052E+03 -0.18485517171E+03 -0.14799444275E+03  0.37599781656E+03  0.00000000000E+00 0. -1.
        -13    1    3    3    0    0  0.78780796464E+01 -0.35075867157E+02 -0.37402720661E+01  0.36143744007E+02  0.00000000000E+00 0.  1.
          2    1    5    5  502    0  0.73260375850E+02  0.12263782604E+03  0.98228948058E+02  0.17336679406E+03  0.00000000000E+00 0. -1.
          3    1    6    6  503    0 -0.25838425488E+03  0.52776796204E+02 -0.75120513039E+03  0.79615134322E+03  0.00000000000E+00 0. -1.
         -2    1    5    5    0  502  0.54892074308E+01 -0.11269244121E+02 -0.73398930986E+01  0.14525883518E+02  0.00000000000E+00 0.  1.
         -3    1    6    6    0  503 -0.12030601857E+03  0.55785660743E+02 -0.58018217576E+03  0.59514446575E+03  0.00000000000E+00 0.  1.
<mgrwt>
<rscale>  0 0.14237566E+04</rscale>
<asrwt>0</asrwt>
<pdfrwt beam="1">  1        1 0.46084390E-01 0.14237566E+04</pdfrwt>
<pdfrwt beam="2">  1       -1 0.26027408E+00 0.14237566E+04</pdfrwt>
<totfact> 0.51156147E+00</totfact>
</mgrwt>
</event>
<event>
12    1  0.4403484E-008  0.1752882E+04  0.7818608E-02  0.8731765E-01
         -1   -1    0    0    0  501 -0.00000000000E+00  0.00000000000E+00  0.35699716817E+03  0.35699716817E+03  0.00000000000E+00 0.  1.
          1   -1    0    0  501    0  0.00000000000E+00 -0.00000000000E+00 -0.21516949517E+04  0.21516949517E+04  0.00000000000E+00 0. -1.
         23    2    1    2    0    0  0.40234960097E+03 -0.23855509623E+03 -0.12561429582E+04  0.13461888544E+04  0.12464174643E+03 0.  0.
        254    2    1    2    0    0 -0.40234960097E+03  0.23855509623E+03 -0.53855482537E+03  0.11625032655E+04  0.91792091545E+03 0.  0.
         23    2    4    4    0    0 -0.41573652258E+03  0.52374273210E+03 -0.53718585259E+03  0.86247722498E+03  0.90305136960E+02 0.  0.
         23    2    4    4    0    0  0.13386921609E+02 -0.28518763587E+03 -0.13689727849E+01  0.30002604051E+03  0.92209292261E+02 0.  0.
         13    1    3    3    0    0  0.34488642806E+03 -0.24081140468E+03 -0.11629032976E+04  0.12366409586E+04  0.00000000000E+00 0. -1.
        -13    1    3    3    0    0  0.57463172913E+02  0.22563084493E+01 -0.93239660557E+02  0.10954789578E+03  0.00000000000E+00 0.  1.
          1    1    5    5  502    0 -0.14779208799E+03  0.17491472138E+03 -0.13130581061E+03  0.26396756795E+03  0.00000000000E+00 0. -1.
          3    1    6    6  503    0  0.24698073876E+01 -0.79795434217E+01 -0.20306561940E+02  0.21957447929E+02  0.00000000000E+00 0. -1.
         -1    1    5    5    0  502 -0.26794443459E+03  0.34882801072E+03 -0.40588004198E+03  0.59850965704E+03  0.00000000000E+00 0.  1.
         -3    1    6    6    0  503  0.10917114222E+02 -0.27720809244E+03  0.18937589155E+02  0.27806859258E+03  0.00000000000E+00 0.  1.
<mgrwt>
<rscale>  0 0.17528822E+04</rscale>
<asrwt>0</asrwt>
<pdfrwt beam="1">  1        1 0.33103000E+00 0.17528822E+04</pdfrwt>
<pdfrwt beam="2">  1       -1 0.54922640E-01 0.17528822E+04</pdfrwt>
<totfact> 0.74624162E+00</totfact>
</mgrwt>
</event>
<event>
12    1  0.4403484E-008  0.2563075E+04  0.7818608E-02  0.8380853E-01
         -1   -1    0    0    0  501 -0.00000000000E+00  0.00000000000E+00  0.13645283519E+04  0.13645283519E+04  0.00000000000E+00 0.  1.
          1   -1    0    0  501    0  0.00000000000E+00 -0.00000000000E+00 -0.12035942704E+04  0.12035942704E+04  0.00000000000E+00 0. -1.
         23    2    1    2    0    0  0.56577753006E+03 -0.65049784976E+03 -0.64452645041E+03  0.10802461117E+04  0.90915622449E+02 0.  0.
        254    2    1    2    0    0 -0.56577753006E+03  0.65049784976E+03  0.80546053189E+03  0.14878765107E+04  0.90650878455E+03 0.  0.
         23    2    4    4    0    0 -0.54601003215E+02  0.50293633024E+03 -0.49341455458E+01  0.51426973816E+03  0.92318990309E+02 0.  0.
         23    2    4    4    0    0 -0.51117652684E+03  0.14756151952E+03  0.81039467744E+03  0.97360677250E+03  0.89970943059E+02 0.  0.
         13    1    3    3    0    0  0.37362512290E+02 -0.70055654154E+02 -0.36648015514E+02  0.87446149398E+02  0.00000000000E+00 0.  1.
        -13    1    3    3    0    0  0.52841501777E+03 -0.58044219561E+03 -0.60787843490E+03  0.99279996226E+03  0.00000000000E+00 0. -1.
          1    1    5    5  502    0 -0.70821645943E+02  0.31397999529E+03  0.22456799984E+02  0.32265066379E+03  0.00000000000E+00 0. -1.
          3    1    6    6  503    0 -0.16008080510E+02 -0.10829473768E+02  0.22671640228E+02  0.29791599728E+02  0.00000000000E+00 0. -1.
         -1    1    5    5    0  502  0.16220642728E+02  0.18895633494E+03 -0.27390945530E+02  0.19161907437E+03  0.00000000000E+00 0.  1.
         -3    1    6    6    0  503 -0.49516844633E+03  0.15839099329E+03  0.78772303721E+03  0.94381517277E+03  0.00000000000E+00 0.  1.
<mgrwt>
<rscale>  0 0.25630751E+04</rscale>
<asrwt>0</asrwt>
<pdfrwt beam="1">  1        1 0.18516835E+00 0.25630751E+04</pdfrwt>
<pdfrwt beam="2">  1       -1 0.20992744E+00 0.25630751E+04</pdfrwt>
<totfact> 0.12078484E+00</totfact>
</mgrwt>
</event>
<event>
12    1  0.4403484E-008  0.1108573E+04  0.7818608E-02  0.9196876E-01
          1   -1    0    0  501    0  0.00000000000E+00  0.00000000000E+00  0.64262984216E+03  0.64262984216E+03  0.00000000000E+00 0. -1.
         -1   -1    0    0    0  501 -0.00000000000E+00 -0.00000000000E+00 -0.47808803085E+03  0.47808803085E+03  0.00000000000E+00 0.  1.
         23    2    1    2    0    0  0.48855182715E+02 -0.10827153083E+03  0.13954261396E+03  0.20483143106E+03  0.91510768622E+02 0.  0.
        254    2    1    2    0    0 -0.48855182715E+02  0.10827153083E+03  0.24999197356E+02  0.91588644195E+03  0.90780695162E+03 0.  0.
         23    2    4    4    0    0  0.32931134221E+03 -0.21353492190E+03  0.66916271377E+02  0.40918368896E+03  0.94394814226E+02 0.  0.
         23    2    4    4    0    0 -0.37816652492E+03  0.32180645273E+03 -0.41917074021E+02  0.50670275299E+03  0.91767778664E+02 0.  0.
         11    1    3    3    0    0  0.10288119169E+02 -0.11068916055E+03  0.99657014291E+02  0.14929653766E+03  0.00000000000E+00 0. -1.
        -11    1    3    3    0    0  0.38567063546E+02  0.24176297255E+01  0.39885599666E+02  0.55534893398E+02  0.00000000000E+00 0.  1.
          1    1    5    5  502    0  0.28545880082E+03 -0.21133762847E+03  0.39372908620E+02  0.35735213181E+03  0.00000000000E+00 0. -1.
          3    1    6    6  503    0 -0.33666555460E+03  0.31722056619E+03 -0.45454339540E+02  0.46479961300E+03  0.00000000000E+00 0. -1.
         -1    1    5    5    0  502  0.43852541385E+02 -0.21972934346E+01  0.27543362758E+02  0.51831557148E+02  0.00000000000E+00 0.  1.
         -3    1    6    6    0  503 -0.41500970325E+02  0.45858865432E+01  0.35372655190E+01  0.41903139986E+02  0.00000000000E+00 0.  1.
<mgrwt>
<rscale>  0 0.11085732E+04</rscale>
<asrwt>0</asrwt>
<pdfrwt beam="1">  1        1 0.98866130E-01 0.11085732E+04</pdfrwt>
<pdfrwt beam="2">  1       -1 0.73552005E-01 0.11085732E+04</pdfrwt>
<totfact> 0.57475251E+01</totfact>
</mgrwt>
</event>
<event>
12    1  0.4403484E-008  0.1070102E+04  0.7818608E-02  0.9234832E-01
          2   -1    0    0  501    0  0.00000000000E+00  0.00000000000E+00  0.29429285120E+03  0.29429285120E+03  0.00000000000E+00 0. -1.
         -2   -1    0    0    0  501 -0.00000000000E+00 -0.00000000000E+00 -0.97277155246E+03  0.97277155246E+03  0.00000000000E+00 0.  1.
         23    2    1    2    0    0  0.10912815655E+03  0.86515126590E+02 -0.19014879825E+03  0.25257511045E+03  0.90795370266E+02 0.  0.
        254    2    1    2    0    0 -0.10912815655E+03 -0.86515126590E+02 -0.48832990301E+03  0.10144892932E+04  0.87825315836E+03 0.  0.
         23    2    4    4    0    0 -0.18555947009E+03  0.95910966420E+02 -0.68482943833E+03  0.72184229374E+03  0.91835216597E+02 0.  0.
         23    2    4    4    0    0  0.76431313541E+02 -0.18242609301E+03  0.19649953532E+03  0.29264699947E+03  0.88933535962E+02 0.  0.
         13    1    3    3    0    0  0.56224707270E+02  0.24402646320E+02 -0.21021688981E+02  0.64796745772E+02  0.00000000000E+00 0. -1.
        -13    1    3    3    0    0  0.52903449277E+02  0.62112480269E+02 -0.16912710927E+03  0.18777836468E+03  0.00000000000E+00 0.  1.
          4    1    5    5  502    0 -0.19625624298E+03  0.92367042604E+02 -0.65020707123E+03  0.68543228618E+03  0.00000000000E+00 0. -1.
          3    1    6    6  503    0  0.57354509085E+02 -0.11319959877E+03  0.64432459480E+02  0.14232087235E+03  0.00000000000E+00 0. -1.
         -4    1    5    5    0  502  0.10696772894E+02  0.35439238168E+01 -0.34622367102E+02  0.36410007554E+02  0.00000000000E+00 0.  1.
         -3    1    6    6    0  503  0.19076804456E+02 -0.69226494244E+02  0.13206707584E+03  0.15032612711E+03  0.00000000000E+00 0.  1.
<mgrwt>
<rscale>  0 0.10701023E+04</rscale>
<asrwt>0</asrwt>
<pdfrwt beam="1">  1        2 0.45275824E-01 0.10701023E+04</pdfrwt>
<pdfrwt beam="2">  1       -2 0.14965716E+00 0.10701023E+04</pdfrwt>
<totfact> 0.33594449E+01</totfact>
</mgrwt>
</event>
<event>
12    1  0.4403484E-008  0.1168108E+04  0.7818608E-02  0.9141239E-01
         -2   -1    0    0    0  501 -0.00000000000E+00  0.00000000000E+00  0.47579487804E+03  0.47579487804E+03  0.00000000000E+00 0.  1.
          2   -1    0    0  501    0  0.00000000000E+00 -0.00000000000E+00 -0.71694533641E+03  0.71694533641E+03  0.00000000000E+00 0. -1.
         23    2    1    2    0    0  0.39804874844E+02 -0.17974985384E+03  0.70887092944E+02  0.22158910333E+03  0.10090744646E+03 0.  0.
        254    2    1    2    0    0 -0.39804874844E+02  0.17974985384E+03 -0.31203755132E+03  0.97115111112E+03  0.90103973784E+03 0.  0.
         23    2    4    4    0    0 -0.79458417749E+02  0.52574431500E+03 -0.28552623290E+03  0.61041234263E+03  0.91418124376E+02 0.  0.
         23    2    4    4    0    0  0.39653542905E+02 -0.34599446116E+03 -0.26511318420E+02  0.36073876848E+03  0.90249866844E+02 0.  0.
         13    1    3    3    0    0  0.23186007074E+02  0.42031222649E+01 -0.50582637099E+00  0.23569323730E+02  0.00000000000E+00 0. -1.
        -13    1    3    3    0    0  0.16618867771E+02 -0.18395297611E+03  0.71392919315E+02  0.19801977960E+03  0.00000000000E+00 0.  1.
          4    1    5    5  502    0 -0.96391549050E+02  0.49595882140E+03 -0.26849982222E+03  0.57215263505E+03  0.00000000000E+00 0. -1.
          1    1    6    6  503    0  0.62561603730E+02 -0.23526228962E+03  0.45226715373E+01  0.24348049970E+03  0.00000000000E+00 0. -1.
         -4    1    5    5    0  502  0.16933131301E+02  0.29785493594E+02 -0.17026410676E+02  0.38259707589E+02  0.00000000000E+00 0.  1.
         -1    1    6    6    0  503 -0.22908060825E+02 -0.11073217154E+03 -0.31033989957E+02  0.11725826878E+03  0.00000000000E+00 0.  1.
<mgrwt>
<rscale>  0 0.11681077E+04</rscale>
<asrwt>0</asrwt>
<pdfrwt beam="1">  1        2 0.11029928E+00 0.11681077E+04</pdfrwt>
<pdfrwt beam="2">  1       -2 0.73199212E-01 0.11681077E+04</pdfrwt>
<totfact> 0.66252793E+01</totfact>
</mgrwt>
</event>
<event>
12    1  0.4403484E-008  0.1488337E+04  0.7818608E-02  0.8892246E-01
         -1   -1    0    0    0  501 -0.00000000000E+00  0.00000000000E+00  0.12646174314E+04  0.12646174314E+04  0.00000000000E+00 0.  1.
          1   -1    0    0  501    0  0.00000000000E+00 -0.00000000000E+00 -0.43790856241E+03  0.43790856241E+03  0.00000000000E+00 0. -1.
         23    2    1    2    0    0  0.40975109348E+03 -0.17489681567E+03  0.37304870450E+03  0.58852494819E+03  0.93335009371E+02 0.  0.
        254    2    1    2    0    0 -0.40975109348E+03  0.17489681567E+03  0.45366016444E+03  0.11140010456E+04  0.91471631121E+03 0.  0.
         23    2    4    4    0    0  0.46196141575E+02  0.45848570626E+03  0.16572249515E+03  0.49799596575E+03  0.90514143417E+02 0.  0.
         23    2    4    4    0    0 -0.45594723506E+03 -0.28358889059E+03  0.28793766929E+03  0.61600507983E+03  0.90794366317E+02 0.  0.
         11    1    3    3    0    0  0.12802027106E+03 -0.32249607941E+02  0.64152316658E+02  0.14678128882E+03  0.00000000000E+00 0. -1.
        -11    1    3    3    0    0  0.28173082242E+03 -0.14264720773E+03  0.30889638784E+03  0.44174365937E+03  0.00000000000E+00 0.  1.
          1    1    6    6  502    0 -0.18373771590E+03 -0.16544055819E+03  0.14503349330E+03  0.28664410114E+03  0.00000000000E+00 0. -1.
          1    1    5    5  503    0 -0.21891581006E+02  0.14199331142E+03  0.73514430032E+02  0.16138684342E+03  0.00000000000E+00 0. -1.
         -1    1    5    5    0  503  0.68087722581E+02  0.31649239484E+03  0.92208065117E+02  0.33660912233E+03  0.00000000000E+00 0.  1.
         -1    1    6    6    0  502 -0.27220951915E+03 -0.11814833240E+03  0.14290417599E+03  0.32936097869E+03  0.00000000000E+00 0.  1.
<mgrwt>
<rscale>  0 0.14883371E+04</rscale>
<asrwt>0</asrwt>
<pdfrwt beam="1">  1        1 0.67370549E-01 0.14883371E+04</pdfrwt>
<pdfrwt beam="2">  1       -1 0.19455653E+00 0.14883371E+04</pdfrwt>
<totfact> 0.84444493E+00</totfact>
</mgrwt>
</event>
<event>
12    1  0.4403484E-008  0.1066825E+04  0.7818608E-02  0.9238144E-01
         -2   -1    0    0    0  501 -0.00000000000E+00  0.00000000000E+00  0.68804908586E+03  0.68804908586E+03  0.00000000000E+00 0.  1.
          2   -1    0    0  501    0  0.00000000000E+00 -0.00000000000E+00 -0.41352997285E+03  0.41352997285E+03  0.00000000000E+00 0. -1.
         23    2    1    2    0    0 -0.97259592240E+02  0.50068552827E+00 -0.52245398336E+02  0.14342407254E+03  0.91548915710E+02 0.  0.
        254    2    1    2    0    0  0.97259592240E+02 -0.50068552827E+00  0.32676451135E+03  0.95815498617E+03  0.89544751531E+03 0.  0.
         23    2    4    4    0    0 -0.22044716240E+03  0.26425077802E+03 -0.88943163242E+02  0.36456695407E+03  0.81072514575E+02 0.  0.
         23    2    4    4    0    0  0.31770675464E+03 -0.26475146355E+03  0.41570767459E+03  0.59358803210E+03  0.92211505449E+02 0.  0.
         11    1    3    3    0    0 -0.40679760836E+02  0.30797980789E+02 -0.60016867521E+02  0.78774253087E+02  0.00000000000E+00 0. -1.
        -11    1    3    3    0    0 -0.56579831404E+02 -0.30297295261E+02  0.77714691854E+01  0.64649819452E+02  0.00000000000E+00 0.  1.
          3    1    5    5  502    0 -0.44155929401E+02  0.79916175656E+02 -0.56690114419E+02  0.10747143949E+03  0.00000000000E+00 0. -1.
          3    1    6    6  503    0  0.17657091266E+03 -0.19054376502E+03  0.29837411259E+03  0.39561512187E+03  0.00000000000E+00 0. -1.
         -3    1    5    5    0  502 -0.17629123300E+03  0.18433460236E+03 -0.32253048823E+02  0.25709551459E+03  0.00000000000E+00 0.  1.
         -3    1    6    6    0  503  0.14113584198E+03 -0.74207698528E+02  0.11733356200E+03  0.19797291023E+03  0.00000000000E+00 0.  1.
<mgrwt>
<rscale>  0 0.10668250E+04</rscale>
<asrwt>0</asrwt>
<pdfrwt beam="1">  1        2 0.63619996E-01 0.10668250E+04</pdfrwt>
<pdfrwt beam="2">  1       -2 0.10585371E+00 0.10668250E+04</pdfrwt>
<totfact> 0.54923042E+01</totfact>
</mgrwt>
</event>
<event>
12    1  0.4403484E-008  0.1028036E+04  0.7818608E-02  0.9278319E-01
         -2   -1    0    0    0  501 -0.00000000000E+00  0.00000000000E+00  0.56282283159E+03  0.56282283159E+03  0.00000000000E+00 0.  1.
          2   -1    0    0  501    0  0.00000000000E+00 -0.00000000000E+00 -0.46944480611E+03  0.46944480611E+03  0.00000000000E+00 0. -1.
         23    2    1    2    0    0  0.68459483663E+02  0.37128693847E+02  0.21237304028E+02  0.12156496368E+03  0.90894315014E+02 0.  0.
        254    2    1    2    0    0 -0.68459483663E+02 -0.37128693847E+02  0.72140721447E+02  0.91070267402E+03  0.90449424320E+03 0.  0.
         23    2    4    4    0    0  0.39963010725E+02  0.41852878356E+03  0.43750314768E+02  0.43253477610E+03  0.91699823339E+02 0.  0.
         23    2    4    4    0    0 -0.10842249439E+03 -0.45565747741E+03  0.28390406679E+02  0.47816789792E+03  0.91974721570E+02 0.  0.
         11    1    3    3    0    0  0.14856616824E+02 -0.28579740988E+02 -0.54442704386E+01  0.32667426268E+02  0.00000000000E+00 0. -1.
        -11    1    3    3    0    0  0.53602866839E+02  0.65708434834E+02  0.26681574467E+02  0.88897537411E+02  0.00000000000E+00 0.  1.
          1    1    5    5  502    0  0.28722914853E+02  0.33998613898E+03 -0.14896925332E+01  0.34120052714E+03  0.00000000000E+00 0. -1.
          3    1    6    6  503    0 -0.18027778735E+02 -0.11403374709E+03  0.46170972291E+02  0.12434007786E+03  0.00000000000E+00 0. -1.
         -1    1    5    5    0  502  0.11240095872E+02  0.78542644577E+02  0.45240007301E+02  0.91334248959E+02  0.00000000000E+00 0.  1.
         -3    1    6    6    0  503 -0.90394715653E+02 -0.34162373032E+03 -0.17780565612E+02  0.35382782006E+03  0.00000000000E+00 0.  1.
<mgrwt>
<rscale>  0 0.10280355E+04</rscale>
<asrwt>0</asrwt>
<pdfrwt beam="1">  1        2 0.72222278E-01 0.10280355E+04</pdfrwt>
<pdfrwt beam="2">  1       -2 0.86588128E-01 0.10280355E+04</pdfrwt>
<totfact> 0.76327543E+01</totfact>
</mgrwt>
</event>
<event>
12    1  0.4403484E-008  0.1484586E+04  0.7818608E-02  0.8894768E-01
          2   -1    0    0  501    0  0.00000000000E+00  0.00000000000E+00  0.54959543746E+03  0.54959543746E+03  0.00000000000E+00 0. -1.
         -2   -1    0    0    0  501 -0.00000000000E+00 -0.00000000000E+00 -0.10025541409E+04  0.10025541409E+04  0.00000000000E+00 0.  1.
         23    2    1    2    0    0 -0.20112332247E+02  0.11107974830E+03  0.32558888800E+03  0.35636677491E+03  0.90807146602E+02 0.  0.
        254    2    1    2    0    0  0.20112332247E+02 -0.11107974830E+03 -0.77854759142E+03  0.11957828034E+04  0.90056479194E+03 0.  0.
         23    2    4    4    0    0 -0.48201646388E+02 -0.33413130909E+03  0.28221412888E+02  0.35087526573E+03  0.91377642366E+02 0.  0.
         23    2    4    4    0    0  0.68313978635E+02  0.22305156079E+03 -0.80676900431E+03  0.84490753770E+03  0.92594397835E+02 0.  0.
         13    1    3    3    0    0 -0.37756536322E+02  0.14509799771E+02  0.14825673696E+03  0.15367547097E+03  0.00000000000E+00 0. -1.
        -13    1    3    3    0    0  0.17644204075E+02  0.96569948530E+02  0.17733215105E+03  0.20269130394E+03  0.00000000000E+00 0.  1.
          4    1    5    5  502    0  0.14093835971E+02 -0.20909663439E+03  0.25867733625E+02  0.21116149831E+03  0.00000000000E+00 0. -1.
          3    1    6    6  503    0  0.14579185937E+02  0.11642150805E+03 -0.54054850915E+03  0.55313579792E+03  0.00000000000E+00 0. -1.
         -4    1    5    5    0  502 -0.62295482359E+02 -0.12503467470E+03  0.23536792623E+01  0.13971376742E+03  0.00000000000E+00 0.  1.
         -3    1    6    6    0  503  0.53734792698E+02  0.10663005274E+03 -0.26622049516E+03  0.29177173978E+03  0.00000000000E+00 0.  1.
<mgrwt>
<rscale>  0 0.14845864E+04</rscale>
<asrwt>0</asrwt>
<pdfrwt beam="1">  1        2 0.84553144E-01 0.14845864E+04</pdfrwt>
<pdfrwt beam="2">  1       -2 0.15423910E+00 0.14845864E+04</pdfrwt>
<totfact> 0.14813048E+01</totfact>
</mgrwt>
</event>
<event>
12    1  0.4403484E-008  0.1448406E+04  0.7818608E-02  0.8919506E-01
          1   -1    0    0  501    0  0.00000000000E+00  0.00000000000E+00  0.81934148923E+03  0.81934148923E+03  0.00000000000E+00 0. -1.
         -1   -1    0    0    0  501 -0.00000000000E+00 -0.00000000000E+00 -0.64011148537E+03  0.64011148537E+03  0.00000000000E+00 0.  1.
         23    2    1    2    0    0  0.45985131715E+02  0.22111897223E+03 -0.31222135330E+03  0.39601556349E+03  0.91312216320E+02 0.  0.
        254    2    1    2    0    0 -0.45985131715E+02 -0.22111897223E+03  0.49145135716E+03  0.10634374111E+04  0.91562353545E+03 0.  0.
         23    2    4    4    0    0  0.15233599676E+03 -0.20208732290E+03 -0.20181523797E+03  0.33635678573E+03  0.91438258106E+02 0.  0.
         23    2    4    4    0    0 -0.19832112847E+03 -0.19031649326E+02  0.69326659513E+03  0.72708062538E+03  0.91291786100E+02 0.  0.
         13    1    3    3    0    0  0.71475429641E+02  0.19215368841E+03 -0.26406298531E+03  0.33430680104E+03  0.00000000000E+00 0.  1.
        -13    1    3    3    0    0 -0.25490297926E+02  0.28965283819E+02 -0.48158367996E+02  0.61708762450E+02  0.00000000000E+00 0. -1.
          4    1    5    5  502    0 -0.17237200180E+01 -0.44893305381E+02 -0.58292589348E+02  0.73596236667E+02  0.00000000000E+00 0. -1.
          4    1    6    6  503    0 -0.30478023246E+01 -0.13956758563E+02  0.12971325235E+02  0.19295996656E+02  0.00000000000E+00 0. -1.
         -4    1    5    5    0  502  0.15405971677E+03 -0.15719401752E+03 -0.14352264862E+03  0.26276054906E+03  0.00000000000E+00 0.  1.
         -4    1    6    6    0  503 -0.19527332615E+03 -0.50748907631E+01  0.68029526989E+03  0.70778462872E+03  0.00000000000E+00 0.  1.
<mgrwt>
<rscale>  0 0.14484059E+04</rscale>
<asrwt>0</asrwt>
<pdfrwt beam="1">  1        1 0.12605254E+00 0.14484059E+04</pdfrwt>
<pdfrwt beam="2">  1       -1 0.98478690E-01 0.14484059E+04</pdfrwt>
<totfact> 0.20402807E+01</totfact>
</mgrwt>
</event>
<event>
12    1  0.4403484E-008  0.1484596E+04  0.7818608E-02  0.8894761E-01
          2   -1    0    0  501    0  0.00000000000E+00  0.00000000000E+00  0.15767982584E+04  0.15767982584E+04  0.00000000000E+00 0. -1.
         -2   -1    0    0    0  501 -0.00000000000E+00 -0.00000000000E+00 -0.34944636586E+03  0.34944636586E+03  0.00000000000E+00 0.  1.
         23    2    1    2    0    0  0.10912236310E+03  0.36423683105E+03  0.59188554015E+02  0.39581074716E+03  0.92664466893E+02 0.  0.
        254    2    1    2    0    0 -0.10912236310E+03 -0.36423683105E+03  0.11681633385E+04  0.15304338771E+04  0.91271359556E+03 0.  0.
         23    2    4    4    0    0  0.39428034993E+03 -0.13389080040E+03  0.54208647803E+03  0.68984395729E+03  0.92968784913E+02 0.  0.
         23    2    4    4    0    0 -0.50340271302E+03 -0.23034603065E+03  0.62607686051E+03  0.84058991984E+03  0.90252937630E+02 0.  0.
         13    1    3    3    0    0  0.10202654235E+03  0.35799344549E+03  0.72740288625E+02  0.37928863936E+03  0.00000000000E+00 0.  1.
        -13    1    3    3    0    0  0.70958207520E+01  0.62433855556E+01 -0.13551734610E+02  0.16522107804E+02  0.00000000000E+00 0. -1.
          4    1    5    5  502    0 -0.16220644294E+01 -0.53683726471E+01  0.27103741519E+02  0.27677848945E+02  0.00000000000E+00 0. -1.
          1    1    6    6  503    0 -0.24682099505E+02 -0.27794415836E+02  0.70874153451E+02  0.80030501779E+02  0.00000000000E+00 0. -1.
         -4    1    5    5    0  502  0.39590241436E+03 -0.12852242775E+03  0.51498273652E+03  0.66216610834E+03  0.00000000000E+00 0.  1.
         -1    1    6    6    0  503 -0.47872061352E+03 -0.20255161481E+03  0.55520270706E+03  0.76055941806E+03  0.00000000000E+00 0.  1.
<mgrwt>
<rscale>  0 0.14845961E+04</rscale>
<asrwt>0</asrwt>
<pdfrwt beam="1">  1        2 0.24258434E+00 0.14845961E+04</pdfrwt>
<pdfrwt beam="2">  1       -2 0.53760980E-01 0.14845961E+04</pdfrwt>
<totfact> 0.36225283E+01</totfact>
</mgrwt>
</event>
<event>
12    1  0.4403484E-008  0.1610687E+04  0.7818608E-02  0.8814010E-01
         -1   -1    0    0    0  501 -0.00000000000E+00  0.00000000000E+00  0.49835000883E+03  0.49835000883E+03  0.00000000000E+00 0.  1.
          1   -1    0    0  501    0  0.00000000000E+00 -0.00000000000E+00 -0.13014503527E+04  0.13014503527E+04  0.00000000000E+00 0. -1.
         23    2    1    2    0    0  0.31540410938E+02  0.40493996748E+03 -0.64510778424E+03  0.76757224637E+03  0.89621009411E+02 0.  0.
        254    2    1    2    0    0 -0.31540410938E+02 -0.40493996748E+03 -0.15799255965E+03  0.10322281152E+04  0.93571473114E+03 0.  0.
         23    2    4    4    0    0 -0.28447641441E+02 -0.49035612998E+03 -0.47587552956E+03  0.69046320912E+03  0.94992215530E+02 0.  0.
         23    2    4    4    0    0 -0.30927694971E+01  0.85416162495E+02  0.31788296991E+03  0.34176490605E+03  0.91913994634E+02 0.  0.
         13    1    3    3    0    0  0.30979912722E+02  0.27186397570E+03 -0.50482249110E+03  0.57420860651E+03  0.00000000000E+00 0. -1.
        -13    1    3    3    0    0  0.56049821623E+00  0.13307599179E+03 -0.14028529314E+03  0.19336363986E+03  0.00000000000E+00 0.  1.
          1    1    6    6  502    0 -0.35687681865E+02  0.85760506089E+02  0.23840133788E+03  0.25585869722E+03  0.00000000000E+00 0. -1.
          1    1    5    5  503    0 -0.10048299485E+02 -0.37073506110E+03 -0.40929814685E+03  0.55233180866E+03  0.00000000000E+00 0. -1.
         -1    1    5    5    0  503 -0.18399341956E+02 -0.11962106888E+03 -0.66577382712E+02  0.13813140046E+03  0.00000000000E+00 0.  1.
         -1    1    6    6    0  502  0.32594912368E+02 -0.34434359431E+00  0.79481632031E+02  0.85906208828E+02  0.00000000000E+00 0.  1.
<mgrwt>
<rscale>  0 0.16106866E+04</rscale>
<asrwt>0</asrwt>
<pdfrwt beam="1">  1        1 0.20022313E+00 0.16106866E+04</pdfrwt>
<pdfrwt beam="2">  1       -1 0.76669233E-01 0.16106866E+04</pdfrwt>
<totfact> 0.14768867E+01</totfact>
</mgrwt>
</event>
<event>
12    1  0.4403484E-008  0.1348029E+04  0.7818608E-02  0.8992321E-01
         -1   -1    0    0    0  501 -0.00000000000E+00  0.00000000000E+00  0.40933034110E+03  0.40933034110E+03  0.00000000000E+00 0.  1.
          1   -1    0    0  501    0  0.00000000000E+00 -0.00000000000E+00 -0.11098513829E+04  0.11098513829E+04  0.00000000000E+00 0. -1.
         23    2    1    2    0    0  0.81277663611E+02  0.20139377113E+03 -0.25647183256E+02  0.23682205797E+03  0.90892241025E+02 0.  0.
        254    2    1    2    0    0 -0.81277663611E+02 -0.20139377113E+03 -0.67487385850E+03  0.12823596660E+04  0.10685626226E+04 0.  0.
         23    2    4    4    0    0  0.45169297991E+03 -0.11773556162E+03 -0.94781193283E+02  0.48492672043E+03  0.91006807564E+02 0.  0.
         23    2    4    4    0    0 -0.53297064352E+03 -0.83658209515E+02 -0.58009266522E+03  0.79743294556E+03  0.91298409362E+02 0.  0.
         11    1    3    3    0    0  0.86387342849E+02  0.20904633912E+03 -0.23851075955E+02  0.22744673823E+03  0.00000000000E+00 0.  1.
        -11    1    3    3    0    0 -0.51096792379E+01 -0.76525679933E+01 -0.17961073003E+01  0.93753197407E+01  0.00000000000E+00 0. -1.
          2    1    5    5  502    0  0.33088174711E+02  0.15127380197E+02 -0.79835378901E+01  0.37247843086E+02  0.00000000000E+00 0. -1.
          1    1    6    6  503    0 -0.76584104707E+02  0.12923533661E+02 -0.55700783561E+02  0.95575729687E+02  0.00000000000E+00 0. -1.
         -2    1    5    5    0  502  0.41860480520E+03 -0.13286294181E+03 -0.86797655393E+02  0.44767887735E+03  0.00000000000E+00 0.  1.
         -1    1    6    6    0  503 -0.45638653881E+03 -0.96581743175E+02 -0.52439188165E+03  0.70185721587E+03  0.00000000000E+00 0.  1.
<mgrwt>
<rscale>  0 0.13480294E+04</rscale>
<asrwt>0</asrwt>
<pdfrwt beam="1">  1        1 0.17074636E+00 0.13480294E+04</pdfrwt>
<pdfrwt beam="2">  1       -1 0.62973901E-01 0.13480294E+04</pdfrwt>
<totfact> 0.31208297E+01</totfact>
</mgrwt>
</event>
<event>
12    1  0.4403484E-008  0.2208973E+04  0.7818608E-02  0.8514703E-01
          1   -1    0    0  501    0  0.00000000000E+00  0.00000000000E+00  0.17655806551E+04  0.17655806551E+04  0.00000000000E+00 0. -1.
         -1   -1    0    0    0  501 -0.00000000000E+00 -0.00000000000E+00 -0.69092843809E+03  0.69092843809E+03  0.00000000000E+00 0.  1.
         23    2    1    2    0    0 -0.27216084293E+03 -0.30680799128E+03  0.13649301386E+04  0.14280930179E+04  0.90624039453E+02 0.  0.
        254    2    1    2    0    0  0.27216084293E+03  0.30680799128E+03 -0.29027792163E+03  0.10284160753E+04  0.89731582185E+03 0.  0.
         23    2    4    4    0    0 -0.89250806585E+02  0.32754850774E+03  0.20665767426E+03  0.40631280747E+03  0.84433238611E+02 0.  0.
         23    2    4    4    0    0  0.36141164952E+03 -0.20740516462E+02 -0.49693559589E+03  0.62210326779E+03  0.94968099411E+02 0.  0.
         13    1    3    3    0    0 -0.25644281565E+03 -0.29705104368E+03  0.13441788238E+04  0.14002924518E+04  0.00000000000E+00 0. -1.
        -13    1    3    3    0    0 -0.15718027284E+02 -0.97569476035E+01  0.20751314824E+02  0.27800566094E+02  0.00000000000E+00 0.  1.
          1    1    6    6  502    0  0.10981352487E+03 -0.47766887063E+02 -0.18594854423E+03  0.22117311510E+03  0.00000000000E+00 0. -1.
          1    1    5    5  503    0 -0.30793405554E+02  0.40869980455E+02  0.60564077835E+02  0.79288061219E+02  0.00000000000E+00 0. -1.
         -1    1    5    5    0  503 -0.58457401031E+02  0.28667852729E+03  0.14609359643E+03  0.32702474625E+03  0.00000000000E+00 0.  1.
         -1    1    6    6    0  502  0.25159812465E+03  0.27026370601E+02 -0.31098705166E+03  0.40093015269E+03  0.00000000000E+00 0.  1.
<mgrwt>
<rscale>  0 0.22089725E+04</rscale>
<asrwt>0</asrwt>
<pdfrwt beam="1">  1        1 0.27162779E+00 0.22089725E+04</pdfrwt>
<pdfrwt beam="2">  1       -1 0.10629668E+00 0.22089725E+04</pdfrwt>
<totfact> 0.32401673E+00</totfact>
</mgrwt>
</event>
<event>
12    1  0.4403484E-008  0.1916748E+04  0.7818608E-02  0.8646564E-01
         -2   -1    0    0    0  501 -0.00000000000E+00  0.00000000000E+00  0.97906322733E+03  0.97906322733E+03  0.00000000000E+00 0.  1.
          2   -1    0    0  501    0  0.00000000000E+00 -0.00000000000E+00 -0.93812219213E+03  0.93812219213E+03  0.00000000000E+00 0. -1.
         23    2    1    2    0    0  0.74326191276E+03  0.12955736699E+02 -0.15202361439E+01  0.74888866822E+03  0.90696219356E+02 0.  0.
        254    2    1    2    0    0 -0.74326191276E+03 -0.12955736699E+02  0.42461271349E+02  0.11682967512E+04  0.90028229868E+03 0.  0.
         23    2    4    4    0    0 -0.29300141086E+03 -0.41243598416E+03  0.17897465300E+03  0.54419441793E+03  0.90345837144E+02 0.  0.
         23    2    4    4    0    0 -0.45026050190E+03  0.39948024746E+03 -0.13651338165E+03  0.62410233331E+03  0.92459890750E+02 0.  0.
         13    1    3    3    0    0  0.35661961005E+02 -0.33505394740E+01 -0.19677198344E+02  0.40868003526E+02  0.00000000000E+00 0. -1.
        -13    1    3    3    0    0  0.70759995175E+03  0.16306276173E+02  0.18156962200E+02  0.70802066470E+03  0.00000000000E+00 0.  1.
          4    1    5    5  502    0 -0.22857704008E+02 -0.28225233466E+02 -0.10396474335E+02  0.37778633053E+02  0.00000000000E+00 0.  1.
          1    1    6    6  503    0 -0.34392593877E+03  0.25604082498E+03 -0.11725477441E+03  0.44451168437E+03  0.00000000000E+00 0. -1.
         -4    1    5    5    0  502 -0.27014370685E+03 -0.38421075069E+03  0.18937112734E+03  0.50641578487E+03  0.00000000000E+00 0. -1.
         -1    1    6    6    0  503 -0.10633456312E+03  0.14343942248E+03 -0.19258607245E+02  0.17959064894E+03  0.00000000000E+00 0.  1.
<mgrwt>
<rscale>  0 0.19167482E+04</rscale>
<asrwt>0</asrwt>
<pdfrwt beam="1">  1        2 0.14432649E+00 0.19167482E+04</pdfrwt>
<pdfrwt beam="2">  1       -2 0.15062511E+00 0.19167482E+04</pdfrwt>
<totfact> 0.76607412E+00</totfact>
</mgrwt>
</event>
<event>
12    1  0.4403484E-008  0.1907343E+04  0.7818608E-02  0.8651210E-01
         -2   -1    0    0    0  501 -0.00000000000E+00  0.00000000000E+00  0.20943856960E+04  0.20943856960E+04  0.00000000000E+00 0.  1.
          2   -1    0    0  501    0  0.00000000000E+00 -0.00000000000E+00 -0.43425110956E+03  0.43425110956E+03  0.00000000000E+00 0. -1.
         23    2    1    2    0    0  0.21270497389E+03 -0.67378838506E+03  0.10811382587E+04  0.12948554456E+04  0.92501334062E+02 0.  0.
        254    2    1    2    0    0 -0.21270497389E+03  0.67378838506E+03  0.57899632779E+03  0.12337813600E+04  0.82930422824E+03 0.  0.
         23    2    4    4    0    0 -0.36724055520E+03  0.64929184974E+03  0.69335528555E+03  0.10221499201E+04  0.87197337841E+02 0.  0.
         23    2    4    4    0    0  0.15453558131E+03  0.24496535325E+02 -0.11435895777E+03  0.21163143987E+03  0.85020991450E+02 0.  0.
         13    1    3    3    0    0  0.13495749955E+02 -0.11178759438E+03  0.22418631683E+03  0.25087468222E+03  0.00000000000E+00 0. -1.
        -13    1    3    3    0    0  0.19920922394E+03 -0.56200079068E+03  0.85695194186E+03  0.10439807634E+04  0.00000000000E+00 0.  1.
          1    1    5    5  502    0 -0.74803415288E+02  0.11465081511E+03  0.17452424765E+03  0.22180864132E+03  0.00000000000E+00 0. -1.
          3    1    6    6  503    0  0.97169287645E+02  0.21111925143E+02 -0.20423116343E+02  0.10151200681E+03  0.00000000000E+00 0. -1.
         -1    1    5    5    0  502 -0.29243713992E+03  0.53464103462E+03  0.51883103790E+03  0.80034127883E+03  0.00000000000E+00 0.  1.
         -3    1    6    6    0  503  0.57366293666E+02  0.33846101824E+01 -0.93935841422E+02  0.11011943307E+03  0.00000000000E+00 0.  1.
<mgrwt>
<rscale>  0 0.19073430E+04</rscale>
<asrwt>0</asrwt>
<pdfrwt beam="1">  1        2 0.66807864E-01 0.19073430E+04</pdfrwt>
<pdfrwt beam="2">  1       -2 0.32221318E+00 0.19073430E+04</pdfrwt>
<totfact> 0.15763740E+00</totfact>
</mgrwt>
</event>
<event>
12    1  0.4403484E-008  0.1232112E+04  0.7818608E-02  0.9085204E-01
         -1   -1    0    0    0  501 -0.00000000000E+00  0.00000000000E+00  0.22784460033E+03  0.22784460033E+03  0.00000000000E+00 0. -1.
          1   -1    0    0  501    0  0.00000000000E+00 -0.00000000000E+00 -0.16657192676E+04  0.16657192676E+04  0.00000000000E+00 0.  1.
         23    2    1    2    0    0  0.64369217180E+02  0.42618851940E+02 -0.75541346113E+03  0.76482486941E+03  0.91366410379E+02 0.  0.
        254    2    1    2    0    0 -0.64369217180E+02 -0.42618851940E+02 -0.68246120612E+03  0.11287389985E+04  0.89573359109E+03 0.  0.
         23    2    4    4    0    0 -0.21885164549E+03 -0.10199708557E+03  0.13354633057E+03  0.29058802730E+03  0.91144561021E+02 0.  0.
         23    2    4    4    0    0  0.15448242831E+03  0.59378233625E+02 -0.81600753669E+03  0.83815097120E+03  0.96115322873E+02 0.  0.
         11    1    3    3    0    0  0.61825929344E+02 -0.75462470404E+01 -0.54264374032E+03  0.54620657291E+03  0.00000000000E+00 0.  1.
        -11    1    3    3    0    0  0.25432878359E+01  0.50165098980E+02 -0.21276972081E+03  0.21861829650E+03  0.00000000000E+00 0. -1.
          1    1    5    5  502    0 -0.19901192647E+03 -0.10153507676E+03  0.86589377700E+02  0.23960976403E+03  0.00000000000E+00 0. -1.
          3    1    6    6  503    0  0.45149995012E+02  0.67635864062E+00 -0.80953569892E+02  0.92695523025E+02  0.00000000000E+00 0. -1.
         -1    1    5    5    0  502 -0.19839719025E+02 -0.46200880376E+00  0.46956952870E+02  0.50978263269E+02  0.00000000000E+00 0.  1.
         -3    1    6    6    0  503  0.10933243330E+03  0.58701874985E+02 -0.73505396680E+03  0.74545544817E+03  0.00000000000E+00 0.  1.
<mgrwt>
<rscale>  0 0.12321122E+04</rscale>
<asrwt>0</asrwt>
<pdfrwt beam="1">  1        1 0.25626450E+00 0.12321122E+04</pdfrwt>
<pdfrwt beam="2">  1       -1 0.35053016E-01 0.12321122E+04</pdfrwt>
<totfact> 0.38444955E+01</totfact>
</mgrwt>
</event>
<event>
12    1  0.4403484E-008  0.2207907E+04  0.7818608E-02  0.8515144E-01
         -1   -1    0    0    0  501 -0.00000000000E+00  0.00000000000E+00  0.63040334118E+03  0.63040334118E+03  0.00000000000E+00 0.  1.
          1   -1    0    0  501    0  0.00000000000E+00 -0.00000000000E+00 -0.19332278139E+04  0.19332278139E+04  0.00000000000E+00 0. -1.
         23    2    1    2    0    0 -0.17205866920E+03 -0.39221348473E+03  0.39959760694E+03  0.59291568269E+03  0.91843105710E+02 0.  0.
        254    2    1    2    0    0  0.17205866920E+03  0.39221348473E+03 -0.17024220796E+04  0.19707154724E+04  0.89556849683E+03 0.  0.
         23    2    4    4    0    0 -0.25592579083E+03  0.37785599229E+03 -0.12809102769E+04  0.13628523984E+04  0.91445944888E+02 0.  0.
         23    2    4    4    0    0  0.42798446003E+03  0.14357492435E+02 -0.42151180270E+03  0.60786307399E+03  0.91915620513E+02 0.  0.
         13    1    3    3    0    0 -0.17780114123E+03 -0.38640846595E+03  0.40106700101E+03  0.58461909623E+03  0.00000000000E+00 0.  1.
        -13    1    3    3    0    0  0.57424720271E+01 -0.58050187786E+01 -0.14693940736E+01  0.82965864634E+01  0.00000000000E+00 0. -1.
          1    1    5    5  502    0 -0.10613313545E+03  0.10814674681E+03 -0.52439233626E+03  0.54584547595E+03  0.00000000000E+00 0. -1.
          3    1    6    6  503    0  0.35367779810E+03  0.45014080666E+02 -0.32686991634E+03  0.48369225188E+03  0.00000000000E+00 0. -1.
         -1    1    5    5    0  502 -0.14979265538E+03  0.26970924549E+03 -0.75651794068E+03  0.81700692242E+03  0.00000000000E+00 0.  1.
         -3    1    6    6    0  503  0.74306661931E+02 -0.30656588231E+02 -0.94641886361E+02  0.12417082211E+03  0.00000000000E+00 0.  1.
<mgrwt>
<rscale>  0 0.22079069E+04</rscale>
<asrwt>0</asrwt>
<pdfrwt beam="1">  1        1 0.29741966E+00 0.22079069E+04</pdfrwt>
<pdfrwt beam="2">  1       -1 0.96985129E-01 0.22079069E+04</pdfrwt>
<totfact> 0.30792776E+00</totfact>
</mgrwt>
</event>
<event>
12    1  0.4403484E-008  0.1339214E+04  0.7818608E-02  0.8999034E-01
          1   -1    0    0  501    0  0.00000000000E+00  0.00000000000E+00  0.12276910825E+04  0.12276910825E+04  0.00000000000E+00 0. -1.
         -1   -1    0    0    0  501 -0.00000000000E+00 -0.00000000000E+00 -0.36521673029E+03  0.36521673029E+03  0.00000000000E+00 0.  1.
         23    2    1    2    0    0 -0.15306805522E+03 -0.22648952967E+03  0.44250957330E+03  0.53024854579E+03  0.10306047388E+03 0.  0.
        254    2    1    2    0    0  0.15306805522E+03  0.22648952967E+03  0.41996477892E+03  0.10626592670E+04  0.93709496084E+03 0.  0.
         23    2    4    4    0    0 -0.33040412500E+03  0.21337751562E+03 -0.17818050736E+02  0.40379289597E+03  0.89634646855E+02 0.  0.
         23    2    4    4    0    0  0.48347218021E+03  0.13112014051E+02  0.43778282965E+03  0.65886637103E+03  0.92378650077E+02 0.  0.
         11    1    3    3    0    0 -0.11555314676E+03 -0.22633566100E+03  0.39545964406E+03  0.47007307011E+03  0.00000000000E+00 0. -1.
        -11    1    3    3    0    0 -0.37514908453E+02 -0.15386867047E+00  0.47049929241E+02  0.60175475680E+02  0.00000000000E+00 0.  1.
          1    1    5    5  502    0 -0.51464896966E+02  0.16618849059E+01 -0.14863012540E+02  0.53593904718E+02  0.00000000000E+00 0. -1.
          3    1    6    6  503    0  0.69514571538E+02  0.31369933440E+02  0.89410807595E+02  0.11751868317E+03  0.00000000000E+00 0. -1.
         -1    1    5    5    0  502 -0.27893922803E+03  0.21171563072E+03 -0.29550381958E+01  0.35019899125E+03  0.00000000000E+00 0.  1.
         -3    1    6    6    0  503  0.41395760867E+03 -0.18257919389E+02  0.34837202206E+03  0.54134768786E+03  0.00000000000E+00 0.  1.
<mgrwt>
<rscale>  0 0.13392137E+04</rscale>
<asrwt>0</asrwt>
<pdfrwt beam="1">  1        1 0.18887555E+00 0.13392137E+04</pdfrwt>
<pdfrwt beam="2">  1       -1 0.56187190E-01 0.13392137E+04</pdfrwt>
<totfact> 0.32020819E+01</totfact>
</mgrwt>
</event>
<event>
12    1  0.4403484E-008  0.2793915E+04  0.7818608E-02  0.8305160E-01
         -2   -1    0    0    0  501 -0.00000000000E+00  0.00000000000E+00  0.60361532533E+03  0.60361532533E+03  0.00000000000E+00 0.  1.
          2   -1    0    0  501    0  0.00000000000E+00 -0.00000000000E+00 -0.32330022891E+04  0.32330022891E+04  0.00000000000E+00 0. -1.
         23    2    1    2    0    0 -0.37059730437E+03  0.11560543462E+04 -0.15948739350E+04  0.20065649977E+04  0.94213628362E+02 0.  0.
        254    2    1    2    0    0  0.37059730437E+03 -0.11560543462E+04 -0.10345130288E+04  0.18300526168E+04  0.89725768872E+03 0.  0.
         23    2    4    4    0    0  0.18591604505E+03 -0.10399196251E+04 -0.11517623111E+04  0.15655054429E+04  0.90847498234E+02 0.  0.
         23    2    4    4    0    0  0.18468125933E+03 -0.11613472117E+03  0.11724928235E+03  0.26454717389E+03  0.92969736988E+02 0.  0.
         11    1    3    3    0    0 -0.33832661741E+03  0.11074843525E+04 -0.14967042460E+04  0.18923821208E+04  0.00000000000E+00 0. -1.
        -11    1    3    3    0    0 -0.32270686961E+02  0.48569993752E+02 -0.98169689068E+02  0.11418287692E+03  0.00000000000E+00 0.  1.
          4    1    5    5  502    0  0.35850307774E+01 -0.12063572096E+03 -0.99665493015E+02  0.15652169215E+03  0.00000000000E+00 0. -1.
          4    1    6    6  503    0  0.11327348020E+03 -0.80841316035E+02  0.22839450215E+02  0.14102425388E+03  0.00000000000E+00 0. -1.
         -4    1    5    5    0  502  0.18233101427E+03 -0.91928390412E+03 -0.10520968181E+04  0.14089837507E+04  0.00000000000E+00 0.  1.
         -4    1    6    6    0  503  0.71407779123E+02 -0.35293405132E+02  0.94409832135E+02  0.12352292001E+03  0.00000000000E+00 0.  1.
<mgrwt>
<rscale>  0 0.27939146E+04</rscale>
<asrwt>0</asrwt>
<pdfrwt beam="1">  1        2 0.49738496E+00 0.27939146E+04</pdfrwt>
<pdfrwt beam="2">  1       -2 0.92863898E-01 0.27939146E+04</pdfrwt>
<totfact> 0.10552383E+00</totfact>
</mgrwt>
</event>
<event>
12    1  0.4403484E-008  0.2792819E+04  0.7818608E-02  0.8305501E-01
         -2   -1    0    0    0  501 -0.00000000000E+00  0.00000000000E+00  0.69560201380E+03  0.69560201380E+03  0.00000000000E+00 0.  1.
          2   -1    0    0  501    0  0.00000000000E+00 -0.00000000000E+00 -0.28032689175E+04  0.28032689175E+04  0.00000000000E+00 0. -1.
         23    2    1    2    0    0  0.53282231941E+03  0.65953411245E+03  0.19925796161E+03  0.87612575045E+03  0.94909039519E+02 0.  0.
        254    2    1    2    0    0 -0.53282231941E+03 -0.65953411245E+03 -0.23069248654E+04  0.26227451809E+04  0.91542617393E+03 0.  0.
         23    2    4    4    0    0 -0.45256011482E+03 -0.75374459818E+03 -0.23047969553E+04  0.24685525498E+04  0.93386879830E+02 0.  0.
         23    2    4    4    0    0 -0.80262204590E+02  0.94210485723E+02 -0.21279100974E+01  0.15419263109E+03  0.91941298534E+02 0.  0.
         11    1    3    3    0    0  0.15631681463E+03  0.15256644834E+03  0.18142238672E+02  0.21918167924E+03  0.00000000000E+00 0. -1.
        -11    1    3    3    0    0  0.37650550478E+03  0.50696766412E+03  0.18111572294E+03  0.65694407120E+03  0.00000000000E+00 0.  1.
          2    1    5    5  502    0 -0.18095089803E+03 -0.28264069069E+03 -0.75867222948E+03  0.82958576369E+03  0.00000000000E+00 0. -1.
          4    1    6    6  503    0 -0.94588568210E+02  0.99532793706E+02 -0.86386974822E+01  0.13758052679E+03  0.00000000000E+00 0. -1.
         -2    1    5    5    0  502 -0.27160921679E+03 -0.47110390749E+03 -0.15461247258E+04  0.16389667861E+04  0.00000000000E+00 0.  1.
         -4    1    6    6    0  503  0.14326363620E+02 -0.53223079829E+01  0.65107873848E+01  0.16612104298E+02  0.00000000000E+00 0.  1.
<mgrwt>
<rscale>  0 0.27928190E+04</rscale>
<asrwt>0</asrwt>
<pdfrwt beam="1">  1        2 0.43127214E+00 0.27928190E+04</pdfrwt>
<pdfrwt beam="2">  1       -2 0.10701570E+00 0.27928190E+04</pdfrwt>
<totfact> 0.14067973E+00</totfact>
</mgrwt>
</event>
<event>
12    1  0.4403484E-008  0.1235237E+04  0.7818608E-02  0.9082561E-01
         -2   -1    0    0    0  501 -0.00000000000E+00  0.00000000000E+00  0.20533818800E+03  0.20533818800E+03  0.00000000000E+00 0.  1.
          2   -1    0    0  501    0  0.00000000000E+00 -0.00000000000E+00 -0.18576800980E+04  0.18576800980E+04  0.00000000000E+00 0. -1.
         23    2    1    2    0    0 -0.59691439576E+02  0.86130497278E+02  0.30306249930E+02  0.14692019626E+03  0.98415165315E+02 0.  0.
        254    2    1    2    0    0  0.59691439576E+02 -0.86130497278E+02 -0.16826481599E+04  0.19160980897E+04  0.91057428522E+03 0.  0.
         23    2    4    4    0    0  0.18245387397E+03 -0.29085406818E+03 -0.19276853705E+03  0.40435412232E+03  0.91962178370E+02 0.  0.
         23    2    4    4    0    0 -0.12276243440E+03  0.20472357091E+03 -0.14898796229E+04  0.15117439674E+04  0.92984819293E+02 0.  0.
         13    1    3    3    0    0 -0.39668516911E+02 -0.13665450352E+02  0.77530077477E+01  0.42666671962E+02  0.00000000000E+00 0.  1.
        -13    1    3    3    0    0 -0.20022922665E+02  0.99795947630E+02  0.22553242182E+02  0.10425352430E+03  0.00000000000E+00 0. -1.
          2    1    5    5  502    0  0.47034795407E+02 -0.85802065306E+02 -0.10515468331E+02  0.98411592122E+02  0.00000000000E+00 0. -1.
          3    1    6    6  503    0 -0.36855277665E+02  0.53674610799E+02 -0.69759950791E+03  0.70063139294E+03  0.00000000000E+00 0. -1.
         -2    1    5    5    0  502  0.13541907857E+03 -0.20505200288E+03 -0.18225306872E+03  0.30594253019E+03  0.00000000000E+00 0.  1.
         -3    1    6    6    0  503 -0.85907156731E+02  0.15104896011E+03 -0.79228011495E+03  0.81111257448E+03  0.00000000000E+00 0.  1.
<mgrwt>
<rscale>  0 0.12352371E+04</rscale>
<asrwt>0</asrwt>
<pdfrwt beam="1">  1        2 0.28579694E+00 0.12352371E+04</pdfrwt>
<pdfrwt beam="2">  1       -2 0.31590490E-01 0.12352371E+04</pdfrwt>
<totfact> 0.73474386E+01</totfact>
</mgrwt>
</event>
<event>
12    1  0.4403484E-008  0.2559849E+04  0.7818608E-02  0.8381969E-01
          1   -1    0    0  501    0  0.00000000000E+00  0.00000000000E+00  0.28559716880E+04  0.28559716880E+04  0.00000000000E+00 0. -1.
         -1   -1    0    0    0  501 -0.00000000000E+00 -0.00000000000E+00 -0.57360727557E+03  0.57360727557E+03  0.00000000000E+00 0.  1.
         23    2    1    2    0    0  0.96310567974E+03  0.80703764941E+02  0.23176053706E+03  0.99806870002E+03  0.91337480724E+02 0.  0.
        254    2    1    2    0    0 -0.96310567974E+03 -0.80703764941E+02  0.20506038753E+04  0.24315102635E+04  0.87930669281E+03 0.  0.
         23    2    4    4    0    0 -0.59156452879E+03  0.37489293947E+03  0.99962179741E+03  0.12239139606E+04  0.90710182344E+02 0.  0.
         23    2    4    4    0    0 -0.37154115095E+03 -0.45559670441E+03  0.10509820779E+04  0.12075963030E+04  0.90079514389E+02 0.  0.
         11    1    3    3    0    0  0.43574990364E+02  0.16780178426E+02 -0.33253997728E+01  0.46812524572E+02  0.00000000000E+00 0. -1.
        -11    1    3    3    0    0  0.91953068938E+03  0.63923586515E+02  0.23508593683E+03  0.95125617544E+03  0.00000000000E+00 0.  1.
          4    1    5    5  502    0 -0.54490615782E+03  0.31508020914E+03  0.91029052165E+03  0.11067190668E+04  0.00000000000E+00 0. -1.
          1    1    6    6  503    0 -0.16728065373E+03 -0.21626194603E+03  0.57956707672E+03  0.64081982088E+03  0.00000000000E+00 0. -1.
         -4    1    5    5    0  502 -0.46658370976E+02  0.59812730328E+02  0.89331275766E+02  0.11719489375E+03  0.00000000000E+00 0.  1.
         -1    1    6    6    0  503 -0.20426049722E+03 -0.23933475837E+03  0.47141500120E+03  0.56677648208E+03  0.00000000000E+00 0.  1.
<mgrwt>
<rscale>  0 0.25598485E+04</rscale>
<asrwt>0</asrwt>
<pdfrwt beam="1">  1        1 0.43938025E+00 0.25598485E+04</pdfrwt>
<pdfrwt beam="2">  1       -1 0.88247275E-01 0.25598485E+04</pdfrwt>
<totfact> 0.84702578E-01</totfact>
</mgrwt>
</event>
<event>
12    1  0.4540485E-008  0.1438964E+04  0.7818608E-02  0.8926087E-01
         -1   -1    0    0    0  501 -0.00000000000E+00  0.00000000000E+00  0.57993735694E+03  0.57993735694E+03  0.00000000000E+00 0.  1.
          1   -1    0    0  501    0  0.00000000000E+00 -0.00000000000E+00 -0.89260394206E+03  0.89260394206E+03  0.00000000000E+00 0. -1.
         23    2    1    2    0    0 -0.22515426137E+03 -0.22146426444E+03 -0.41095691936E+03  0.52611146014E+03  0.90370443608E+02 0.  0.
        254    2    1    2    0    0  0.22515426137E+03  0.22146426444E+03  0.98290334241E+02  0.94642983886E+03  0.88675114223E+03 0.  0.
         23    2    4    4    0    0  0.30963446303E+01 -0.30709027296E+03  0.16807326563E+03  0.36159308825E+03  0.90481576854E+02 0.  0.
         23    2    4    4    0    0  0.22205791674E+03  0.52855453741E+03 -0.69782931389E+02  0.58483675061E+03  0.92112702442E+02 0.  0.
         13    1    3    3    0    0 -0.22658252212E+03 -0.22377800673E+03 -0.41381428267E+03  0.52216711517E+03  0.00000000000E+00 0. -1.
        -13    1    3    3    0    0  0.14282607544E+01  0.23137422868E+01  0.28573633044E+01  0.39443449654E+01  0.00000000000E+00 0.  1.
          2    1    5    5  502    0  0.38078652575E+02 -0.11776295813E+03  0.38869843653E+02  0.12972649242E+03  0.00000000000E+00 0. -1.
          3    1    6    6  503    0  0.19935437098E+01  0.40834031778E+01  0.95361532728E+01  0.10563456692E+02  0.00000000000E+00 0. -1.
         -2    1    5    5    0  502 -0.34982307944E+02 -0.18932731484E+03  0.12920342198E+03  0.23186659583E+03  0.00000000000E+00 0.  1.
         -3    1    6    6    0  503  0.22006437303E+03  0.52447113423E+03 -0.79319084661E+02  0.57427329392E+03  0.00000000000E+00 0.  1.
<mgrwt>
<rscale>  0 0.14389640E+04</rscale>
<asrwt>0</asrwt>
<pdfrwt beam="1">  1        1 0.13732368E+00 0.14389640E+04</pdfrwt>
<pdfrwt beam="2">  1       -1 0.89221133E-01 0.14389640E+04</pdfrwt>
<totfact> 0.22095644E+01</totfact>
</mgrwt>
</event>
<event>
12    1  0.4403484E-008  0.1885088E+04  0.7818608E-02  0.8662315E-01
          2   -1    0    0  501    0  0.00000000000E+00  0.00000000000E+00  0.10052085612E+04  0.10052085612E+04  0.00000000000E+00 0. -1.
         -2   -1    0    0    0  501 -0.00000000000E+00 -0.00000000000E+00 -0.88378586025E+03  0.88378586025E+03  0.00000000000E+00 0.  1.
         23    2    1    2    0    0  0.58480806507E+03 -0.15739314538E+02  0.46446933165E+03  0.75256579111E+03  0.91516724737E+02 0.  0.
        254    2    1    2    0    0 -0.58480806507E+03  0.15739314538E+02 -0.34304663070E+03  0.11364286303E+04  0.91188861273E+03 0.  0.
         23    2    4    4    0    0  0.83642592160E+02 -0.23494666776E+03  0.10863479243E+03  0.28600491649E+03  0.88324822188E+02 0.  0.
         23    2    4    4    0    0 -0.66845065723E+03  0.25068598230E+03 -0.45168142313E+03  0.85042371385E+03  0.97645492499E+02 0.  0.
         11    1    3    3    0    0  0.28305715345E+03  0.12765241556E+01  0.28181942526E+03  0.39943105799E+03  0.00000000000E+00 0.  1.
        -11    1    3    3    0    0  0.30175091161E+03 -0.17015838693E+02  0.18264990640E+03  0.35313473311E+03  0.00000000000E+00 0. -1.
          2    1    5    5  502    0  0.67561193183E+02 -0.20826306335E+03  0.57909907808E+02  0.22647643543E+03  0.00000000000E+00 0. -1.
          4    1    6    6  503    0 -0.45485808249E+02  0.14331396781E+02 -0.43375645967E+01  0.47886972679E+02  0.00000000000E+00 0.  1.
         -2    1    5    5    0  502  0.16081398977E+02 -0.26683604405E+02  0.50724884626E+02  0.59528481061E+02  0.00000000000E+00 0.  1.
         -4    1    6    6    0  503 -0.62296484898E+03  0.23635458552E+03 -0.44734385854E+03  0.80253674117E+03  0.00000000000E+00 0. -1.
<mgrwt>
<rscale>  0 0.18850879E+04</rscale>
<asrwt>0</asrwt>
<pdfrwt beam="1">  1        2 0.15464747E+00 0.18850879E+04</pdfrwt>
<pdfrwt beam="2">  1       -2 0.13596706E+00 0.18850879E+04</pdfrwt>
<totfact> 0.90786843E+00</totfact>
</mgrwt>
</event>
<event>
12    1  0.4403484E-008  0.1361771E+04  0.7818608E-02  0.8981965E-01
         -2   -1    0    0    0  501 -0.00000000000E+00  0.00000000000E+00  0.73262353025E+03  0.73262353025E+03  0.00000000000E+00 0. -1.
          2   -1    0    0  501    0  0.00000000000E+00 -0.00000000000E+00 -0.63280155707E+03  0.63280155707E+03  0.00000000000E+00 0.  1.
         23    2    1    2    0    0 -0.18735836648E+03  0.30583248055E+03  0.14977751889E+03  0.40157507873E+03  0.10095828367E+03 0.  0.
        254    2    1    2    0    0  0.18735836648E+03 -0.30583248055E+03 -0.49955545715E+02  0.96385000859E+03  0.89323827665E+03 0.  0.
         23    2    4    4    0    0  0.76977485629E+02  0.10885619179E+03 -0.38131304867E+03  0.41384104195E+03  0.89941998676E+02 0.  0.
         23    2    4    4    0    0  0.11038088085E+03 -0.41468867235E+03  0.33135750296E+03  0.55000896665E+03  0.92528021687E+02 0.  0.
         13    1    3    3    0    0 -0.26775394932E+02  0.13038359268E+03  0.72048356962E+02  0.15135312602E+03  0.00000000000E+00 0.  1.
        -13    1    3    3    0    0 -0.16058297154E+03  0.17544888787E+03  0.77729161932E+02  0.25022195271E+03  0.00000000000E+00 0. -1.
          1    1    5    5  502    0  0.61624668303E+02  0.85324467688E+02 -0.36798838999E+03  0.38274445744E+03  0.00000000000E+00 0. -1.
          3    1    6    6  503    0  0.12270270658E+03 -0.40538516419E+03  0.31939818817E+03  0.53047930041E+03  0.00000000000E+00 0. -1.
         -1    1    5    5    0  502  0.15352817325E+02  0.23531724106E+02 -0.13324658680E+02  0.31096584510E+02  0.00000000000E+00 0.  1.
         -3    1    6    6    0  503 -0.12321825735E+02 -0.93035081533E+01  0.11959314784E+02  0.19529666242E+02  0.00000000000E+00 0.  1.
<mgrwt>
<rscale>  0 0.13617714E+04</rscale>
<asrwt>0</asrwt>
<pdfrwt beam="1">  1        2 0.97354086E-01 0.13617714E+04</pdfrwt>
<pdfrwt beam="2">  1       -2 0.11271131E+00 0.13617714E+04</pdfrwt>
<totfact> 0.28089385E+01</totfact>
</mgrwt>
</event>
<event>
12    1  0.4403484E-008  0.1402485E+04  0.7818608E-02  0.8952021E-01
         -2   -1    0    0    0  501 -0.00000000000E+00  0.00000000000E+00  0.62469958791E+03  0.62469958791E+03  0.00000000000E+00 0.  1.
          2   -1    0    0  501    0  0.00000000000E+00 -0.00000000000E+00 -0.78716451779E+03  0.78716451779E+03  0.00000000000E+00 0. -1.
         23    2    1    2    0    0 -0.57651466511E+02 -0.13729674953E+03  0.32788787007E+03  0.37136805282E+03  0.90717618432E+02 0.  0.
        254    2    1    2    0    0  0.57651466511E+02  0.13729674953E+03 -0.49035279995E+03  0.10404960529E+04  0.90554518310E+03 0.  0.
         23    2    4    4    0    0 -0.28760422245E+03  0.37895773890E+03 -0.29621976881E+03  0.56761315982E+03  0.90074364411E+02 0.  0.
         23    2    4    4    0    0  0.34525568896E+03 -0.24166098936E+03 -0.19413303115E+03  0.47288289307E+03  0.91263750936E+02 0.  0.
         11    1    3    3    0    0 -0.75358816989E+01 -0.12053424560E+03  0.21166122345E+03  0.24369195183E+03  0.00000000000E+00 0. -1.
        -11    1    3    3    0    0 -0.50115584812E+02 -0.16762503931E+02  0.11622664663E+03  0.12767610099E+03  0.00000000000E+00 0.  1.
          1    1    5    5  502    0  0.10409525300E+00  0.29785126966E+02 -0.31821638937E+02  0.43586481033E+02  0.00000000000E+00 0. -1.
          3    1    6    6  503    0 -0.58088389906E+01 -0.40430444860E+01 -0.14372908624E+01  0.72218158491E+01  0.00000000000E+00 0. -1.
         -1    1    5    5    0  502 -0.28770831771E+03  0.34917261193E+03 -0.26439812987E+03  0.52402667878E+03  0.00000000000E+00 0.  1.
         -3    1    6    6    0  503  0.35106452795E+03 -0.23761794488E+03 -0.19269574028E+03  0.46566107722E+03  0.00000000000E+00 0.  1.
<mgrwt>
<rscale>  0 0.14024854E+04</rscale>
<asrwt>0</asrwt>
<pdfrwt beam="1">  1        2 0.12110223E+00 0.14024854E+04</pdfrwt>
<pdfrwt beam="2">  1       -2 0.96107629E-01 0.14024854E+04</pdfrwt>
<totfact> 0.31073754E+01</totfact>
</mgrwt>
</event>
<event>
12    1  0.4403484E-008  0.1193187E+04  0.7818608E-02  0.9118841E-01
         -2   -1    0    0    0  501 -0.00000000000E+00  0.00000000000E+00  0.31807479947E+03  0.31807479947E+03  0.00000000000E+00 0. -1.
          2   -1    0    0  501    0  0.00000000000E+00 -0.00000000000E+00 -0.11189947792E+04  0.11189947792E+04  0.00000000000E+00 0.  1.
         23    2    1    2    0    0  0.21043100072E+03  0.16908329043E+03 -0.19600086051E+03  0.34304475022E+03  0.79956226533E+02 0.  0.
        254    2    1    2    0    0 -0.21043100072E+03 -0.16908329043E+03 -0.60491911922E+03  0.10940248284E+04  0.87068525845E+03 0.  0.
         23    2    4    4    0    0 -0.24012884853E+03 -0.48609105439E+03 -0.50930244116E+03  0.74951001582E+03  0.91814542324E+02 0.  0.
         23    2    4    4    0    0  0.29697847808E+02  0.31700776396E+03 -0.95616678058E+02  0.34451481263E+03  0.90399239067E+02 0.  0.
         13    1    3    3    0    0  0.13693597700E+03  0.88743078671E+02 -0.72967872045E+02  0.17874872352E+03  0.00000000000E+00 0. -1.
        -13    1    3    3    0    0  0.73495023727E+02  0.80340211763E+02 -0.12303298847E+03  0.16429602670E+03  0.00000000000E+00 0.  1.
          2    1    5    5  502    0 -0.31480133971E+02 -0.15913607171E+02 -0.38059933973E+02  0.51892198856E+02  0.00000000000E+00 0. -1.
          3    1    6    6  503    0 -0.20401894259E+02  0.35223787490E+02 -0.30849538633E+02  0.51074910948E+02  0.00000000000E+00 0. -1.
         -2    1    5    5    0  502 -0.20864871456E+03 -0.47017744722E+03 -0.47124250719E+03  0.69761781696E+03  0.00000000000E+00 0.  1.
         -3    1    6    6    0  503  0.50099742067E+02  0.28178397647E+03 -0.64767139425E+02  0.29343990168E+03  0.00000000000E+00 0.  1.
<mgrwt>
<rscale>  0 0.11931874E+04</rscale>
<asrwt>0</asrwt>
<pdfrwt beam="1">  1        2 0.17215304E+00 0.11931874E+04</pdfrwt>
<pdfrwt beam="2">  1       -2 0.48934584E-01 0.11931874E+04</pdfrwt>
<totfact> 0.82756749E+01</totfact>
</mgrwt>
</event>
<event>
12    1  0.4403484E-008  0.2080200E+04  0.7818608E-02  0.8570016E-01
         -2   -1    0    0    0  501 -0.00000000000E+00  0.00000000000E+00  0.31031852759E+03  0.31031852759E+03  0.00000000000E+00 0.  1.
          2   -1    0    0  501    0  0.00000000000E+00 -0.00000000000E+00 -0.34861224523E+04  0.34861224523E+04  0.00000000000E+00 0. -1.
         23    2    1    2    0    0  0.13660182867E+03 -0.19368080954E+03  0.18042078160E+03  0.31127581751E+03  0.90380642572E+02 0.  0.
        254    2    1    2    0    0 -0.13660182867E+03  0.19368080954E+03 -0.33562247063E+04  0.34851651623E+04  0.90882320297E+03 0.  0.
         23    2    4    4    0    0 -0.36425717827E+03 -0.22012107470E+03 -0.19962079449E+04  0.20430213641E+04  0.89182709271E+02 0.  0.
         23    2    4    4    0    0  0.22765534960E+03  0.41380188424E+03 -0.13600167614E+04  0.14421437982E+04  0.84108179547E+02 0.  0.
         11    1    3    3    0    0  0.12873209783E+03 -0.17149706094E+03  0.18937928210E+03  0.28609038329E+03  0.00000000000E+00 0.  1.
        -11    1    3    3    0    0  0.78697308495E+01 -0.22183748600E+02 -0.89585005022E+01  0.25185434220E+02  0.00000000000E+00 0. -1.
          4    1    5    5  502    0 -0.17593805871E+03 -0.13112970789E+03 -0.12074042661E+04  0.12271814302E+04  0.00000000000E+00 0. -1.
          1    1    6    6  503    0  0.38873462188E+02  0.13418723647E+03 -0.33250605397E+03  0.36066277382E+03  0.00000000000E+00 0. -1.
         -4    1    5    5    0  502 -0.18831911957E+03 -0.88991366807E+02 -0.78880367877E+03  0.81583993393E+03  0.00000000000E+00 0.  1.
         -1    1    6    6    0  503  0.18878188741E+03  0.27961464778E+03 -0.10275107074E+04  0.10814810244E+04  0.00000000000E+00 0.  1.
<mgrwt>
<rscale>  0 0.20802004E+04</rscale>
<asrwt>0</asrwt>
<pdfrwt beam="1">  1        2 0.53632653E+00 0.20802004E+04</pdfrwt>
<pdfrwt beam="2">  1       -2 0.47741312E-01 0.20802004E+04</pdfrwt>
<totfact> 0.32050981E+00</totfact>
</mgrwt>
</event>
<event>
12    1  0.4403484E-008  0.3585220E+04  0.7818608E-02  0.8093886E-01
         -2   -1    0    0    0  501 -0.00000000000E+00  0.00000000000E+00  0.16799004079E+04  0.16799004079E+04  0.00000000000E+00 0.  1.
          2   -1    0    0  501    0  0.00000000000E+00 -0.00000000000E+00 -0.19128815285E+04  0.19128815285E+04  0.00000000000E+00 0. -1.
         23    2    1    2    0    0 -0.44143239611E+03 -0.14262459289E+04  0.65626912441E+03  0.16334117756E+04  0.91130977587E+02 0.  0.
        254    2    1    2    0    0  0.44143239611E+03  0.14262459289E+04 -0.88925024509E+03  0.19593701608E+04  0.90516596196E+03 0.  0.
         23    2    4    4    0    0  0.19693480387E+03  0.96195774243E+03 -0.10121829599E+04  0.14132191769E+04  0.92347617661E+02 0.  0.
         23    2    4    4    0    0  0.24449759224E+03  0.46428818644E+03  0.12293271483E+03  0.54615098386E+03  0.88463846427E+02 0.  0.
         11    1    3    3    0    0 -0.82896466096E+02 -0.20239511665E+03  0.68474293477E+02  0.22918188454E+03  0.00000000000E+00 0. -1.
        -11    1    3    3    0    0 -0.35853593001E+03 -0.12238508122E+04  0.58779483093E+03  0.14042298911E+04  0.00000000000E+00 0.  1.
          4    1    5    5  502    0  0.15913645321E+03  0.82989950450E+03 -0.91131809207E+03  0.12428025842E+04  0.00000000000E+00 0.  1.
          3    1    6    6  503    0  0.86148797161E+02  0.20128218452E+03  0.92393424216E+02  0.23763980705E+03  0.00000000000E+00 0. -1.
         -4    1    5    5    0  502  0.37798350661E+02  0.13205823793E+03 -0.10086486786E+03  0.17041659276E+03  0.00000000000E+00 0. -1.
         -3    1    6    6    0  503  0.15834879508E+03  0.26300600192E+03  0.30539290618E+02  0.30851117681E+03  0.00000000000E+00 0.  1.
<mgrwt>
<rscale>  0 0.35852199E+04</rscale>
<asrwt>0</asrwt>
<pdfrwt beam="1">  1        2 0.29428947E+00 0.35852199E+04</pdfrwt>
<pdfrwt beam="2">  1       -2 0.25844622E+00 0.35852199E+04</pdfrwt>
<totfact> 0.34761788E-01</totfact>
</mgrwt>
</event>
<event>
12    1  0.4403484E-008  0.2018712E+04  0.7818608E-02  0.8597922E-01
          2   -1    0    0  501    0  0.00000000000E+00  0.00000000000E+00  0.27575478684E+04  0.27575478684E+04  0.00000000000E+00 0. -1.
         -2   -1    0    0    0  501 -0.00000000000E+00 -0.00000000000E+00 -0.36945844959E+03  0.36945844959E+03  0.00000000000E+00 0.  1.
         23    2    1    2    0    0 -0.76436376995E+03  0.13184416966E+03  0.63348085766E+03  0.10057926070E+04  0.93198248187E+02 0.  0.
        254    2    1    2    0    0  0.76436376995E+03 -0.13184416966E+03  0.17546085612E+04  0.21212137110E+04  0.90513067942E+03 0.  0.
         23    2    4    4    0    0  0.79830639725E+02  0.33255735519E+03  0.43603667069E+03  0.56195683593E+03  0.93274764750E+02 0.  0.
         23    2    4    4    0    0  0.68453313022E+03 -0.46440152485E+03  0.13185718905E+04  0.15592568751E+04  0.91628540015E+02 0.  0.
         11    1    3    3    0    0 -0.73418473305E+03  0.14085095989E+03  0.62121125245E+03  0.97199261073E+03  0.00000000000E+00 0.  1.
        -11    1    3    3    0    0 -0.30179036900E+02 -0.90067902287E+01  0.12269605215E+02  0.33799996310E+02  0.00000000000E+00 0. -1.
          1    1    5    5  502    0  0.98559486980E+02  0.26942554242E+03  0.33143361486E+03  0.43835184092E+03  0.00000000000E+00 0. -1.
          3    1    6    6  503    0  0.42266595467E+03 -0.23676212558E+03  0.80213304457E+03  0.93708069798E+03  0.00000000000E+00 0. -1.
         -1    1    5    5    0  502 -0.18728847255E+02  0.63131812770E+02  0.10460305583E+03  0.12360499501E+03  0.00000000000E+00 0.  1.
         -3    1    6    6    0  503  0.26186717556E+03 -0.22763939927E+03  0.51643884593E+03  0.62217617707E+03  0.00000000000E+00 0.  1.
<mgrwt>
<rscale>  0 0.20187118E+04</rscale>
<asrwt>0</asrwt>
<pdfrwt beam="1">  1        2 0.42423812E+00 0.20187118E+04</pdfrwt>
<pdfrwt beam="2">  1       -2 0.56839763E-01 0.20187118E+04</pdfrwt>
<totfact> 0.66129588E+00</totfact>
</mgrwt>
</event>
<event>
12    1  0.4403484E-008  0.1342596E+04  0.7818608E-02  0.8996452E-01
         -1   -1    0    0    0  501 -0.00000000000E+00  0.00000000000E+00  0.12534136270E+03  0.12534136270E+03  0.00000000000E+00 0.  1.
          1   -1    0    0  501    0  0.00000000000E+00 -0.00000000000E+00 -0.35953080737E+04  0.35953080737E+04  0.00000000000E+00 0. -1.
         23    2    1    2    0    0  0.22592974031E+02  0.21097220366E+03 -0.15051548659E+03  0.27442226533E+03  0.87366783244E+02 0.  0.
        254    2    1    2    0    0 -0.22592974031E+02 -0.21097220366E+03 -0.33194512244E+04  0.34462271710E+04  0.90150184148E+03 0.  0.
         23    2    4    4    0    0 -0.13034221623E+02  0.17041751961E+03 -0.27367281819E+04  0.27435935912E+04  0.91720392234E+02 0.  0.
         23    2    4    4    0    0 -0.95587524079E+01 -0.38138972327E+03 -0.58272304250E+03  0.70263357982E+03  0.92619179817E+02 0.  0.
         11    1    3    3    0    0  0.52331645425E+02  0.16160676000E+03 -0.12737099795E+03  0.21231749129E+03  0.00000000000E+00 0.  1.
        -11    1    3    3    0    0 -0.29738671395E+02  0.49365443663E+02 -0.23144488641E+02  0.62104774042E+02  0.00000000000E+00 0. -1.
          4    1    5    5  502    0 -0.50227139854E+02  0.74256353360E+02 -0.14272509551E+04  0.14300636561E+04  0.00000000000E+00 0. -1.
          3    1    6    6  503    0  0.36226843577E+02 -0.25194094989E+03 -0.35745575734E+03  0.43881800884E+03  0.00000000000E+00 0. -1.
         -4    1    5    5    0  502  0.37192918232E+02  0.96161166251E+02 -0.13094772268E+04  0.13135299352E+04  0.00000000000E+00 0.  1.
         -3    1    6    6    0  503 -0.45785595985E+02 -0.12944877338E+03 -0.22526728516E+03  0.26381557098E+03  0.00000000000E+00 0.  1.
<mgrwt>
<rscale>  0 0.13425957E+04</rscale>
<asrwt>0</asrwt>
<pdfrwt beam="1">  1        1 0.55312434E+00 0.13425957E+04</pdfrwt>
<pdfrwt beam="2">  1       -1 0.19283286E-01 0.13425957E+04</pdfrwt>
<totfact> 0.45494820E+00</totfact>
</mgrwt>
</event>
<event>
12    1  0.4403484E-008  0.1138108E+04  0.7818608E-02  0.9168825E-01
         -2   -1    0    0    0  501 -0.00000000000E+00  0.00000000000E+00  0.10744435185E+03  0.10744435185E+03  0.00000000000E+00 0.  1.
          2   -1    0    0  501    0  0.00000000000E+00 -0.00000000000E+00 -0.30138602123E+04  0.30138602123E+04  0.00000000000E+00 0. -1.
         23    2    1    2    0    0 -0.39942901116E+02  0.40197906360E+02 -0.30693026761E+02  0.11171295307E+03  0.91249191595E+02 0.  0.
        254    2    1    2    0    0  0.39942901116E+02 -0.40197906360E+02 -0.28757228337E+04  0.30095916111E+04  0.88580389607E+03 0.  0.
         23    2    4    4    0    0  0.41829519046E+03 -0.23814746921E+02 -0.20760324177E+04  0.21198214115E+04  0.90521867000E+02 0.  0.
         23    2    4    4    0    0 -0.37835228934E+03 -0.16383159438E+02 -0.79969041591E+03  0.88977019959E+03  0.93634310118E+02 0.  0.
         13    1    3    3    0    0 -0.52902299494E+02  0.42823467665E+02  0.10120612158E+02  0.68810823749E+02  0.00000000000E+00 0.  1.
        -13    1    3    3    0    0  0.12959398378E+02 -0.26255613050E+01 -0.40813638919E+02  0.42902129321E+02  0.00000000000E+00 0. -1.
          2    1    5    5  502    0  0.73069798943E+02 -0.10388987283E+02 -0.22415873149E+03  0.23599632090E+03  0.00000000000E+00 0. -1.
          4    1    6    6  503    0 -0.75703549873E+02 -0.30417870000E+02 -0.23773355487E+03  0.25134342519E+03  0.00000000000E+00 0. -1.
         -2    1    5    5    0  502  0.34522539151E+03 -0.13425759638E+02 -0.18518736863E+04  0.18838250906E+04  0.00000000000E+00 0.  1.
         -4    1    6    6    0  503 -0.30264873947E+03  0.14034710562E+02 -0.56195686104E+03  0.63842677440E+03  0.00000000000E+00 0.  1.
<mgrwt>
<rscale>  0 0.11381077E+04</rscale>
<asrwt>0</asrwt>
<pdfrwt beam="1">  1        2 0.46367080E+00 0.11381077E+04</pdfrwt>
<pdfrwt beam="2">  1       -2 0.16529900E-01 0.11381077E+04</pdfrwt>
<totfact> 0.51185781E+01</totfact>
</mgrwt>
</event>
<event>
12    1  0.4403484E-008  0.2426143E+04  0.7818608E-02  0.8429780E-01
          2   -1    0    0  501    0  0.00000000000E+00  0.00000000000E+00  0.91230102970E+03  0.91230102970E+03  0.00000000000E+00 0. -1.
         -2   -1    0    0    0  501 -0.00000000000E+00 -0.00000000000E+00 -0.16130007850E+04  0.16130007850E+04  0.00000000000E+00 0.  1.
         23    2    1    2    0    0  0.39640700756E+03  0.44143415968E+03 -0.11972229148E+04  0.13393151504E+04  0.91759094417E+02 0.  0.
        254    2    1    2    0    0 -0.39640700756E+03 -0.44143415968E+03  0.49652315948E+03  0.11859866643E+04  0.89890293527E+03 0.  0.
         23    2    4    4    0    0 -0.38234489583E+03  0.14485130116E+03  0.12739931183E+02  0.41999480691E+03  0.95204060659E+02 0.  0.
         23    2    4    4    0    0 -0.14062111726E+02 -0.58628546084E+03  0.48378322830E+03  0.76599185740E+03  0.93642559961E+02 0.  0.
         13    1    3    3    0    0  0.56228550454E+02  0.93129165176E+02 -0.15962259526E+03  0.19316848659E+03  0.00000000000E+00 0. -1.
        -13    1    3    3    0    0  0.34017845711E+03  0.34830499450E+03 -0.10376003195E+04  0.11461466638E+04  0.00000000000E+00 0.  1.
          4    1    5    5  502    0 -0.35044574412E+03  0.11867160783E+03  0.37469190947E+02  0.37188588350E+03  0.00000000000E+00 0. -1.
          3    1    6    6  503    0  0.35325832894E+02 -0.12446018704E+03  0.10138964103E+03  0.16437187087E+03  0.00000000000E+00 0. -1.
         -4    1    5    5    0  502 -0.31899151711E+02  0.26179693333E+02 -0.24729259764E+02  0.48108923407E+02  0.00000000000E+00 0.  1.
         -3    1    6    6    0  503 -0.49387944621E+02 -0.46182527381E+03  0.38239358727E+03  0.60161998652E+03  0.00000000000E+00 0.  1.
<mgrwt>
<rscale>  0 0.24261428E+04</rscale>
<asrwt>0</asrwt>
<pdfrwt beam="1">  1        2 0.14035401E+00 0.24261428E+04</pdfrwt>
<pdfrwt beam="2">  1       -2 0.24815397E+00 0.24261428E+04</pdfrwt>
<totfact> 0.17024590E+00</totfact>
</mgrwt>
</event>
<event>
12    1  0.4403484E-008  0.1114141E+04  0.7818608E-02  0.9191517E-01
         -1   -1    0    0    0  501 -0.00000000000E+00  0.00000000000E+00  0.92480747042E+03  0.92480747042E+03  0.00000000000E+00 0.  1.
          1   -1    0    0  501    0  0.00000000000E+00 -0.00000000000E+00 -0.33555921310E+03  0.33555921310E+03  0.00000000000E+00 0. -1.
         23    2    1    2    0    0  0.31164350028E+02 -0.15693141453E+03  0.10987522883E+03  0.21341701182E+03  0.88744405155E+02 0.  0.
        254    2    1    2    0    0 -0.31164350028E+02  0.15693141453E+03  0.47937302849E+03  0.10469496717E+04  0.91690044664E+03 0.  0.
         23    2    4    4    0    0 -0.33833277898E+03 -0.23701597556E+03  0.22335342862E+03  0.47826170191E+03  0.90564117794E+02 0.  0.
         23    2    4    4    0    0  0.30716842895E+03  0.39394739009E+03  0.25601959987E+03  0.56868796979E+03  0.91175553537E+02 0.  0.
         11    1    3    3    0    0  0.18691484086E+02 -0.13531933756E+03  0.12421684532E+03  0.18463618106E+03  0.00000000000E+00 0. -1.
        -11    1    3    3    0    0  0.12472865943E+02 -0.21612076968E+02 -0.14341616493E+02  0.28780830762E+02  0.00000000000E+00 0.  1.
          2    1    5    5  502    0 -0.67029983488E+01 -0.31594547750E+02  0.11058339303E+02  0.34138431460E+02  0.00000000000E+00 0. -1.
          3    1    6    6  503    0  0.66994588641E+01  0.58767146775E+01  0.24413750229E+02  0.25989415629E+02  0.00000000000E+00 0. -1.
         -2    1    5    5    0  502 -0.33162978063E+03 -0.20542142781E+03  0.21229508932E+03  0.44412327045E+03  0.00000000000E+00 0.  1.
         -3    1    6    6    0  503  0.30046897008E+03  0.38807067542E+03  0.23160584964E+03  0.54269855416E+03  0.00000000000E+00 0.  1.
<mgrwt>
<rscale>  0 0.11141412E+04</rscale>
<asrwt>0</asrwt>
<pdfrwt beam="1">  1        1 0.51624495E-01 0.11141412E+04</pdfrwt>
<pdfrwt beam="2">  1       -1 0.14227807E+00 0.11141412E+04</pdfrwt>
<totfact> 0.30283583E+01</totfact>
</mgrwt>
</event>
<event>
12    1  0.4403484E-008  0.1242301E+04  0.7818608E-02  0.9076615E-01
          2   -1    0    0  501    0  0.00000000000E+00  0.00000000000E+00  0.45715664767E+03  0.45715664767E+03  0.00000000000E+00 0. -1.
         -2   -1    0    0    0  501 -0.00000000000E+00 -0.00000000000E+00 -0.84397359891E+03  0.84397359891E+03  0.00000000000E+00 0.  1.
         23    2    1    2    0    0  0.14274691157E+03  0.23661343880E+03 -0.21795245566E+02  0.29514442465E+03  0.10135382820E+03 0.  0.
        254    2    1    2    0    0 -0.14274691157E+03 -0.23661343880E+03 -0.36502170567E+03  0.10059858219E+04  0.89577007549E+03 0.  0.
         23    2    4    4    0    0  0.54049118719E+02  0.25296687797E+03 -0.38390324363E+03  0.47043353187E+03  0.83740425444E+02 0.  0.
         23    2    4    4    0    0 -0.19679603029E+03 -0.48958031677E+03  0.18881537959E+02  0.53555229006E+03  0.89678195853E+02 0.  0.
         13    1    3    3    0    0  0.11692280542E+03  0.19785944760E+03  0.22435980908E+02  0.23091703417E+03  0.00000000000E+00 0.  1.
        -13    1    3    3    0    0  0.25824106148E+02  0.38753991197E+02 -0.44231226473E+02  0.64227390476E+02  0.00000000000E+00 0. -1.
          1    1    5    5  502    0  0.28717884559E+02  0.26281484973E+02 -0.28964658281E+02  0.48522003002E+02  0.00000000000E+00 0. -1.
          3    1    6    6  503    0 -0.91357876030E+02 -0.12463426499E+03  0.18877363001E+02  0.15568017329E+03  0.00000000000E+00 0. -1.
         -1    1    5    5    0  502  0.25331234160E+02  0.22668539300E+03 -0.35493858535E+03  0.42191152887E+03  0.00000000000E+00 0.  1.
         -3    1    6    6    0  503 -0.10543815425E+03 -0.36494605178E+03  0.41749578076E-02  0.37987211677E+03  0.00000000000E+00 0.  1.
<mgrwt>
<rscale>  0 0.12423013E+04</rscale>
<asrwt>0</asrwt>
<pdfrwt beam="1">  1        2 0.70331792E-01 0.12423013E+04</pdfrwt>
<pdfrwt beam="2">  1       -2 0.12984209E+00 0.12423013E+04</pdfrwt>
<totfact> 0.29261791E+01</totfact>
</mgrwt>
</event>
<event>
12    1  0.4403484E-008  0.1709273E+04  0.7818608E-02  0.8756093E-01
          1   -1    0    0  501    0  0.00000000000E+00  0.00000000000E+00  0.32055443024E+03  0.32055443024E+03  0.00000000000E+00 0. -1.
         -1   -1    0    0    0  501 -0.00000000000E+00 -0.00000000000E+00 -0.22785639674E+04  0.22785639674E+04  0.00000000000E+00 0.  1.
         23    2    1    2    0    0 -0.61783875543E+02 -0.57622690704E+03 -0.10780323489E+04  0.12275864805E+04  0.94657942908E+02 0.  0.
        254    2    1    2    0    0  0.61783875543E+02  0.57622690704E+03 -0.87997718828E+03  0.13715319172E+04  0.87800071311E+03 0.  0.
         23    2    4    4    0    0  0.49320334848E+02  0.62732128002E+03 -0.17556678461E+03  0.65954681800E+03  0.90630157649E+02 0.  0.
         23    2    4    4    0    0  0.12463540695E+02 -0.51094372981E+02 -0.70441040367E+03  0.71198509916E+03  0.89234465477E+02 0.  0.
         11    1    3    3    0    0 -0.30871095337E+02 -0.21173716009E+03 -0.49547451091E+03  0.53970421571E+03  0.00000000000E+00 0. -1.
        -11    1    3    3    0    0 -0.30912780206E+02 -0.36448974695E+03 -0.58255783797E+03  0.68788226477E+03  0.00000000000E+00 0.  1.
          2    1    5    5  502    0  0.33059180614E+02  0.60845949966E+03 -0.15941610711E+03  0.62986456271E+03  0.00000000000E+00 0. -1.
          3    1    6    6  503    0  0.13201654246E+02  0.14867966259E+02 -0.40071039502E+03  0.40120339078E+03  0.00000000000E+00 0. -1.
         -2    1    5    5    0  502  0.16261154233E+02  0.18861780364E+02 -0.16150677501E+02  0.29682255292E+02  0.00000000000E+00 0.  1.
         -3    1    6    6    0  503 -0.73811355092E+00 -0.65962339240E+02 -0.30370000865E+03  0.31078170838E+03  0.00000000000E+00 0.  1.
<mgrwt>
<rscale>  0 0.17092733E+04</rscale>
<asrwt>0</asrwt>
<pdfrwt beam="1">  1        1 0.49316067E-01 0.17092733E+04</pdfrwt>
<pdfrwt beam="2">  1       -1 0.35054830E+00 0.17092733E+04</pdfrwt>
<totfact> 0.11814875E+00</totfact>
</mgrwt>
</event>
<event>
12    1  0.5065834E-008  0.2507386E+04  0.7818608E-02  0.8400359E-01
         -2   -1    0    0    0  501 -0.00000000000E+00  0.00000000000E+00  0.67080369534E+03  0.67080369534E+03  0.00000000000E+00 0. -1.
          2   -1    0    0  501    0  0.00000000000E+00 -0.00000000000E+00 -0.23430790564E+04  0.23430790564E+04  0.00000000000E+00 0.  1.
         23    2    1    2    0    0 -0.54735074969E+03 -0.67107849505E+03  0.68985502503E+02  0.87340535573E+03  0.90214888732E+02 0.  0.
        254    2    1    2    0    0  0.54735074969E+03  0.67107849505E+03 -0.17412608636E+04  0.21404773960E+04  0.89426780002E+03 0.  0.
         23    2    4    4    0    0  0.15309372042E+03 -0.13068709039E+03 -0.83909909832E+03  0.86750244888E+03  0.89198650089E+02 0.  0.
         23    2    4    4    0    0  0.39425702927E+03  0.80176558545E+03 -0.90216176524E+03  0.12729749471E+04  0.91119186933E+02 0.  0.
         13    1    3    3    0    0 -0.41234198044E+03 -0.53685824613E+03  0.85507206180E+02  0.68231529924E+03  0.00000000000E+00 0. -1.
        -13    1    3    3    0    0 -0.13500876925E+03 -0.13422024893E+03 -0.16521703677E+02  0.19109005649E+03  0.00000000000E+00 0.  1.
          1    1    6    6  502    0  0.47142204902E+02  0.46711338470E+02 -0.80557084750E+02  0.10437327497E+03  0.00000000000E+00 0. -1.
          1    1    5    5  503    0  0.19266337101E+02  0.60410635104E+01 -0.30504766132E+02  0.36581784407E+02  0.00000000000E+00 0. -1.
         -1    1    5    5    0  503  0.13382738332E+03 -0.13672815390E+03 -0.80859433219E+03  0.83092066447E+03  0.00000000000E+00 0.  1.
         -1    1    6    6    0  502  0.34711482437E+03  0.75505424698E+03 -0.82160468049E+03  0.11686016722E+04  0.00000000000E+00 0.  1.
<mgrwt>
<rscale>  0 0.25073860E+04</rscale>
<asrwt>0</asrwt>
<pdfrwt beam="1">  1        2 0.36047370E+00 0.25073860E+04</pdfrwt>
<pdfrwt beam="2">  1       -2 0.10320057E+00 0.25073860E+04</pdfrwt>
<totfact> 0.29258250E+00</totfact>
</mgrwt>
</event>
<event>
12    1  0.4403484E-008  0.2374438E+04  0.7818608E-02  0.8449136E-01
         -1   -1    0    0    0  501 -0.00000000000E+00  0.00000000000E+00  0.51645554553E+03  0.51645554553E+03  0.00000000000E+00 0.  1.
          1   -1    0    0  501    0  0.00000000000E+00 -0.00000000000E+00 -0.27291574506E+04  0.27291574506E+04  0.00000000000E+00 0. -1.
         23    2    1    2    0    0  0.14705866224E+03 -0.80974650482E+03 -0.13540614095E+03  0.83886725908E+03  0.89709548712E+02 0.  0.
        254    2    1    2    0    0 -0.14705866224E+03  0.80974650482E+03 -0.20772957641E+04  0.24067457370E+04  0.89440018952E+03 0.  0.
         23    2    4    4    0    0 -0.45866928545E+03  0.63098858518E+03 -0.10292343937E+04  0.12947676806E+04  0.92605623398E+02 0.  0.
         23    2    4    4    0    0  0.31161062321E+03  0.17875791965E+03 -0.10480613704E+04  0.11119780564E+04  0.94905150479E+02 0.  0.
         11    1    3    3    0    0  0.21036621643E+02 -0.39622544743E+02 -0.23105393364E+02  0.50461318894E+02  0.00000000000E+00 0. -1.
        -11    1    3    3    0    0  0.12602204060E+03 -0.77012396008E+03 -0.11230074759E+03  0.78840594018E+03  0.00000000000E+00 0.  1.
          2    1    5    5  502    0 -0.39653331299E+03  0.48355429949E+03 -0.80723131460E+03  0.10211198873E+04  0.00000000000E+00 0.  1.
          3    1    6    6  503    0  0.86053742482E+02  0.96781878483E+02 -0.42502624457E+03  0.44431890256E+03  0.00000000000E+00 0. -1.
         -2    1    5    5    0  502 -0.62135972456E+02  0.14743428568E+03 -0.22200307911E+03  0.27364779334E+03  0.00000000000E+00 0. -1.
         -3    1    6    6    0  503  0.22555688072E+03  0.81976041164E+02 -0.62303512582E+03  0.66765915389E+03  0.00000000000E+00 0.  1.
<mgrwt>
<rscale>  0 0.23744376E+04</rscale>
<asrwt>0</asrwt>
<pdfrwt beam="1">  1        1 0.41987039E+00 0.23744376E+04</pdfrwt>
<pdfrwt beam="2">  1       -1 0.79454697E-01 0.23744376E+04</pdfrwt>
<totfact> 0.13302965E+00</totfact>
</mgrwt>
</event>
<event>
12    1  0.4403484E-008  0.1381259E+04  0.7818608E-02  0.8967497E-01
          2   -1    0    0  501    0  0.00000000000E+00  0.00000000000E+00  0.41726909918E+04  0.41726909918E+04  0.00000000000E+00 0. -1.
         -2   -1    0    0    0  501 -0.00000000000E+00 -0.00000000000E+00 -0.11430734977E+03  0.11430734977E+03  0.00000000000E+00 0.  1.
         23    2    1    2    0    0 -0.12888807705E+03 -0.11701016230E+03  0.21270462303E+04  0.21360962633E+04  0.90983876827E+02 0.  0.
        254    2    1    2    0    0  0.12888807705E+03  0.11701016230E+03  0.19313374117E+04  0.21509020783E+04  0.93059767775E+03 0.  0.
         23    2    4    4    0    0  0.14532135412E+03 -0.33322126695E+03  0.38558285421E+03  0.53823977390E+03  0.94197707208E+02 0.  0.
         23    2    4    4    0    0 -0.16433277070E+02  0.45023142925E+03  0.15457545575E+04  0.16126623044E+04  0.91346391946E+02 0.  0.
         11    1    3    3    0    0 -0.75389601224E+02 -0.90797106098E+01  0.83927013219E+03  0.84269827809E+03  0.00000000000E+00 0.  1.
        -11    1    3    3    0    0 -0.53498475830E+02 -0.10793045169E+03  0.12877760981E+04  0.12933979852E+04  0.00000000000E+00 0. -1.
          4    1    5    5  502    0  0.12950866111E+03 -0.18274967429E+03  0.23971837419E+03  0.32807748426E+03  0.00000000000E+00 0. -1.
          1    1    6    6  503    0 -0.20675579208E+02  0.45267316040E+03  0.15086119112E+04  0.15751985171E+04  0.00000000000E+00 0. -1.
         -4    1    5    5    0  502  0.15812693018E+02 -0.15047159266E+03  0.14586448002E+03  0.21016228965E+03  0.00000000000E+00 0.  1.
         -1    1    6    6    0  503  0.42423021387E+01 -0.24417311496E+01  0.37142646356E+02  0.37463787272E+02  0.00000000000E+00 0.  1.
<mgrwt>
<rscale>  0 0.13812592E+04</rscale>
<asrwt>0</asrwt>
<pdfrwt beam="1">  1        2 0.64195234E+00 0.13812592E+04</pdfrwt>
<pdfrwt beam="2">  1       -2 0.17585749E-01 0.13812592E+04</pdfrwt>
<totfact> 0.66197384E+00</totfact>
</mgrwt>
</event>
<event>
12    1  0.4403484E-008  0.1771314E+04  0.7818608E-02  0.8721705E-01
          2   -1    0    0  501    0  0.00000000000E+00  0.00000000000E+00  0.11576759837E+04  0.11576759837E+04  0.00000000000E+00 0. -1.
         -2   -1    0    0    0  501 -0.00000000000E+00 -0.00000000000E+00 -0.67755456743E+03  0.67755456743E+03  0.00000000000E+00 0.  1.
         23    2    1    2    0    0 -0.34857356870E+03  0.45968752236E+03 -0.13575730652E+03  0.59928884669E+03  0.88887144690E+02 0.  0.
        254    2    1    2    0    0  0.34857356870E+03 -0.45968752236E+03  0.61587872275E+03  0.12359417044E+04  0.90301115415E+03 0.  0.
         23    2    4    4    0    0 -0.26463632050E+03 -0.52515549818E+01  0.28437060711E+03  0.39899203799E+03  0.90928781121E+02 0.  0.
         23    2    4    4    0    0  0.61320988920E+03 -0.45443596738E+03  0.33150811564E+03  0.83694966640E+03  0.89714528910E+02 0.  0.
         11    1    3    3    0    0 -0.62596172394E+02  0.12967517444E+03 -0.60421682002E+02  0.15615604798E+03  0.00000000000E+00 0. -1.
        -11    1    3    3    0    0 -0.28597739630E+03  0.33001234792E+03 -0.75335624515E+02  0.44313279872E+03  0.00000000000E+00 0.  1.
          2    1    5    5  502    0 -0.23708937388E+03  0.39038143088E+01  0.28397965555E+03  0.36996088407E+03  0.00000000000E+00 0. -1.
          1    1    6    6  503    0  0.37593526290E+03 -0.28009259064E+03  0.15554470335E+03  0.49393657079E+03  0.00000000000E+00 0. -1.
         -2    1    5    5    0  502 -0.27546946627E+02 -0.91553692906E+01  0.39095155692E+00  0.29031153928E+02  0.00000000000E+00 0.  1.
         -1    1    6    6    0  503  0.23727462630E+03 -0.17434337674E+03  0.17596341229E+03  0.34301309562E+03  0.00000000000E+00 0.  1.
<mgrwt>
<rscale>  0 0.17713144E+04</rscale>
<asrwt>0</asrwt>
<pdfrwt beam="1">  1        2 0.17810400E+00 0.17713144E+04</pdfrwt>
<pdfrwt beam="2">  1       -2 0.10423916E+00 0.17713144E+04</pdfrwt>
<totfact> 0.14219339E+01</totfact>
</mgrwt>
</event>
<event>
12    1  0.4403484E-008  0.1684479E+04  0.7818608E-02  0.8770266E-01
         -2   -1    0    0    0  501 -0.00000000000E+00  0.00000000000E+00  0.63890683938E+03  0.63890683938E+03  0.00000000000E+00 0.  1.
          2   -1    0    0  501    0  0.00000000000E+00 -0.00000000000E+00 -0.11102828677E+04  0.11102828677E+04  0.00000000000E+00 0. -1.
         23    2    1    2    0    0 -0.34673045077E+03 -0.39515716868E+02  0.33028394884E+03  0.48918755112E+03  0.91833958547E+02 0.  0.
        254    2    1    2    0    0  0.34673045077E+03  0.39515716868E+02 -0.80165997715E+03  0.12600021559E+04  0.90728342685E+03 0.  0.
         23    2    4    4    0    0  0.31133373592E+03  0.51868074057E+02  0.10667739389E+03  0.34578215985E+03  0.92554003028E+02 0.  0.
         23    2    4    4    0    0  0.35396714848E+02 -0.12352357188E+02 -0.90833737104E+03  0.91421999609E+03  0.96518979872E+02 0.  0.
         11    1    3    3    0    0 -0.29505525844E+03 -0.40223752354E+01  0.29499167276E+03  0.41724557761E+03  0.00000000000E+00 0.  1.
        -11    1    3    3    0    0 -0.51675192324E+02 -0.35493341633E+02  0.35292276085E+02  0.71941973515E+02  0.00000000000E+00 0. -1.
          1    1    5    5  502    0  0.21296638860E+03  0.17345036029E+01  0.99702733026E+02  0.23515596133E+03  0.00000000000E+00 0. -1.
          3    1    6    6  503    0  0.61473770821E+02  0.16967169300E+02 -0.51619727066E+03  0.52012165074E+03  0.00000000000E+00 0. -1.
         -1    1    5    5    0  502  0.98367347321E+02  0.50133570454E+02  0.69746608619E+01  0.11062619852E+03  0.00000000000E+00 0.  1.
         -3    1    6    6    0  503 -0.26077055973E+02 -0.29319526488E+02 -0.39214010038E+03  0.39409834535E+03  0.00000000000E+00 0.  1.
<mgrwt>
<rscale>  0 0.16844789E+04</rscale>
<asrwt>0</asrwt>
<pdfrwt beam="1">  1        2 0.17081275E+00 0.16844789E+04</pdfrwt>
<pdfrwt beam="2">  1       -2 0.98293361E-01 0.16844789E+04</pdfrwt>
<totfact> 0.17600801E+01</totfact>
</mgrwt>
</event>
<event>
12    1  0.4403484E-008  0.1513475E+04  0.7818608E-02  0.8875541E-01
         -2   -1    0    0    0  501 -0.00000000000E+00  0.00000000000E+00  0.62013311046E+03  0.62013311046E+03  0.00000000000E+00 0.  1.
          2   -1    0    0  501    0  0.00000000000E+00 -0.00000000000E+00 -0.92343391185E+03  0.92343391185E+03  0.00000000000E+00 0. -1.
         23    2    1    2    0    0  0.21479371057E+03  0.12046017576E+03  0.33794701541E+03  0.42939686288E+03  0.97603732423E+02 0.  0.
        254    2    1    2    0    0 -0.21479371057E+03 -0.12046017576E+03 -0.64124781680E+03  0.11141701594E+04  0.87722824256E+03 0.  0.
         23    2    4    4    0    0  0.21422501748E+03 -0.19673520692E+03 -0.59278554512E+03  0.66636325805E+03  0.89711701641E+02 0.  0.
         23    2    4    4    0    0 -0.42901872805E+03  0.76275031162E+02 -0.48462271682E+02  0.44780690138E+03  0.91145376994E+02 0.  0.
         13    1    3    3    0    0  0.59324176307E+02  0.81317558874E+02  0.95607697276E+02  0.13882627653E+03  0.00000000000E+00 0. -1.
        -13    1    3    3    0    0  0.15546953426E+03  0.39142616884E+02  0.24233931814E+03  0.29057058636E+03  0.00000000000E+00 0.  1.
          1    1    5    5  502    0  0.17578896365E+03 -0.11309442961E+03 -0.36388923588E+03  0.41965162425E+03  0.00000000000E+00 0. -1.
          1    1    6    6  503    0 -0.24323739543E+03  0.88777886447E+02 -0.31258442500E+02  0.26081225793E+03  0.00000000000E+00 0. -1.
         -1    1    5    5    0  502  0.38436053831E+02 -0.83640777313E+02 -0.22889630925E+03  0.24671163380E+03  0.00000000000E+00 0.  1.
         -1    1    6    6    0  503 -0.18578133262E+03 -0.12502855284E+02 -0.17203829182E+02  0.18699464345E+03  0.00000000000E+00 0.  1.
<mgrwt>
<rscale>  0 0.15134754E+04</rscale>
<asrwt>0</asrwt>
<pdfrwt beam="1">  1        2 0.14206676E+00 0.15134754E+04</pdfrwt>
<pdfrwt beam="2">  1       -2 0.95405093E-01 0.15134754E+04</pdfrwt>
<totfact> 0.25190366E+01</totfact>
</mgrwt>
</event>
<event>
12    1  0.4403484E-008  0.1363642E+04  0.7818608E-02  0.8980565E-01
          2   -1    0    0  501    0  0.00000000000E+00  0.00000000000E+00  0.24735231743E+04  0.24735231743E+04  0.00000000000E+00 0. -1.
         -2   -1    0    0    0  501 -0.00000000000E+00 -0.00000000000E+00 -0.18794235756E+03  0.18794235756E+03  0.00000000000E+00 0.  1.
         23    2    1    2    0    0 -0.20622074403E+03 -0.60701997236E+02  0.12459975483E+04  0.12663552117E+04  0.70241752945E+02 0.  0.
        254    2    1    2    0    0  0.20622074403E+03  0.60701997236E+02  0.10395832684E+04  0.13951103203E+04  0.90520036782E+03 0.  0.
         23    2    4    4    0    0  0.20816031365E+03 -0.87869450642E+02  0.11585941470E+04  0.11844784618E+04  0.97964648317E+02 0.  0.
         23    2    4    4    0    0 -0.19395696265E+01  0.14857144788E+03 -0.11901087860E+03  0.21063185847E+03  0.90138524081E+02 0.  0.
         11    1    3    3    0    0 -0.28524728310E+02 -0.25460371310E+02  0.12195488208E+03  0.12780799621E+03  0.00000000000E+00 0.  1.
        -11    1    3    3    0    0 -0.17769601572E+03 -0.35241625926E+02  0.11240426663E+04  0.11385472154E+04  0.00000000000E+00 0. -1.
          4    1    5    5  502    0  0.17757442844E+03 -0.42143155451E+02  0.10024125543E+04  0.10188913839E+04  0.00000000000E+00 0. -1.
          3    1    6    6  503    0  0.10580976585E+02  0.13652438775E+02 -0.60716278348E+02  0.63125372129E+02  0.00000000000E+00 0. -1.
         -4    1    5    5    0  502  0.30585885214E+02 -0.45726295190E+02  0.15618159278E+03  0.16558707791E+03  0.00000000000E+00 0.  1.
         -3    1    6    6    0  503 -0.12520546212E+02  0.13491900910E+03 -0.58294600250E+02  0.14750648634E+03  0.00000000000E+00 0.  1.
<mgrwt>
<rscale>  0 0.13636419E+04</rscale>
<asrwt>0</asrwt>
<pdfrwt beam="1">  1        2 0.38054200E+00 0.13636419E+04</pdfrwt>
<pdfrwt beam="2">  1       -2 0.28914211E-01 0.13636419E+04</pdfrwt>
<totfact> 0.38798946E+01</totfact>
</mgrwt>
</event>
<event>
12    1  0.4403484E-008  0.3073498E+04  0.7818608E-02  0.8223049E-01
         -1   -1    0    0    0  501 -0.00000000000E+00  0.00000000000E+00  0.34772301029E+04  0.34772301029E+04  0.00000000000E+00 0.  1.
          1   -1    0    0  501    0  0.00000000000E+00 -0.00000000000E+00 -0.67916042337E+03  0.67916042337E+03  0.00000000000E+00 0. -1.
         23    2    1    2    0    0  0.51238812351E+03  0.90665464976E+03  0.25546102965E+04  0.27601968403E+04  0.89936571966E+02 0.  0.
        254    2    1    2    0    0 -0.51238812351E+03 -0.90665464976E+03  0.24345938308E+03  0.13961936860E+04  0.89750771290E+03 0.  0.
         23    2    4    4    0    0 -0.63827788413E+03 -0.37936992998E+03  0.36449005565E+03  0.83254626966E+03  0.94657748330E+02 0.  0.
         23    2    4    4    0    0  0.12588976063E+03 -0.52728471978E+03 -0.12103067257E+03  0.56364741639E+03  0.95773580666E+02 0.  0.
         11    1    3    3    0    0  0.41566082026E+02  0.11480514443E+03  0.24824439692E+03  0.27664641868E+03  0.00000000000E+00 0. -1.
        -11    1    3    3    0    0  0.47082204148E+03  0.79184950533E+03  0.23063658996E+04  0.24835504216E+04  0.00000000000E+00 0.  1.
          2    1    5    5  502    0 -0.56425931219E+03 -0.30024856639E+03  0.32650018178E+03  0.71773263945E+03  0.00000000000E+00 0. -1.
          1    1    6    6  503    0  0.88095363249E+02 -0.18490357477E+03 -0.63349663390E+02  0.21439054280E+03  0.00000000000E+00 0. -1.
         -2    1    5    5    0  502 -0.74018571936E+02 -0.79121363590E+02  0.37989873863E+02  0.11481363022E+03  0.00000000000E+00 0.  1.
         -1    1    6    6    0  503  0.37794397377E+02 -0.34238114500E+03 -0.57681009182E+02  0.34925687359E+03  0.00000000000E+00 0.  1.
<mgrwt>
<rscale>  0 0.30734977E+04</rscale>
<asrwt>0</asrwt>
<pdfrwt beam="1">  1        1 0.10448622E+00 0.30734977E+04</pdfrwt>
<pdfrwt beam="2">  1       -1 0.53495847E+00 0.30734977E+04</pdfrwt>
<totfact> 0.21837137E-02</totfact>
</mgrwt>
</event>
<event>
12    1  0.4403484E-008  0.2660509E+04  0.7818608E-02  0.8347933E-01
         -1   -1    0    0    0  501 -0.00000000000E+00  0.00000000000E+00  0.84685080587E+03  0.84685080587E+03  0.00000000000E+00 0.  1.
          1   -1    0    0  501    0  0.00000000000E+00 -0.00000000000E+00 -0.20895964537E+04  0.20895964537E+04  0.00000000000E+00 0. -1.
         23    2    1    2    0    0 -0.34277674359E+03  0.75837215378E+03 -0.14739455354E+04  0.16952989592E+04  0.94333981071E+02 0.  0.
        254    2    1    2    0    0  0.34277674359E+03 -0.75837215378E+03  0.23119988756E+03  0.12411483004E+04  0.89127520783E+03 0.  0.
         23    2    4    4    0    0  0.31204506448E+03  0.29790440002E+02  0.30075808940E+03  0.44423914242E+03  0.92916062854E+02 0.  0.
         23    2    4    4    0    0  0.30731679112E+02 -0.78816259378E+03 -0.69558201839E+02  0.79690915802E+03  0.89895229895E+02 0.  0.
         11    1    3    3    0    0 -0.11260850775E+03  0.35411755743E+03 -0.61808606337E+03  0.72118673188E+03  0.00000000000E+00 0.  1.
        -11    1    3    3    0    0 -0.23016823584E+03  0.40425459635E+03 -0.85585947205E+03  0.97411222729E+03  0.00000000000E+00 0. -1.
          1    1    5    5  502    0  0.23891274786E+02  0.21731563484E+02  0.62113742820E+02  0.70008363140E+02  0.00000000000E+00 0. -1.
          3    1    6    6  503    0  0.78228640139E+01 -0.89516660314E+02  0.20338832337E+02  0.92130873088E+02  0.00000000000E+00 0. -1.
         -1    1    5    5    0  502  0.28815378970E+03  0.80588765181E+01  0.23864434658E+03  0.37423077928E+03  0.00000000000E+00 0.  1.
         -3    1    6    6    0  503  0.22908815098E+02 -0.69864593347E+03 -0.89897034176E+02  0.70477828493E+03  0.00000000000E+00 0.  1.
<mgrwt>
<rscale>  0 0.26605086E+04</rscale>
<asrwt>0</asrwt>
<pdfrwt beam="1">  1        1 0.32147638E+00 0.26605086E+04</pdfrwt>
<pdfrwt beam="2">  1       -1 0.13028474E+00 0.26605086E+04</pdfrwt>
<totfact> 0.11443519E+00</totfact>
</mgrwt>
</event>
<event>
12    1  0.4403484E-008  0.1324462E+04  0.7818608E-02  0.9010388E-01
         -1   -1    0    0    0  501 -0.00000000000E+00  0.00000000000E+00  0.23027746741E+04  0.23027746741E+04  0.00000000000E+00 0.  1.
          1   -1    0    0  501    0  0.00000000000E+00 -0.00000000000E+00 -0.19044412273E+03  0.19044412273E+03  0.00000000000E+00 0. -1.
         23    2    1    2    0    0  0.11678782184E+03 -0.32870750573E+03  0.54325596863E+03  0.65199775822E+03  0.91027521190E+02 0.  0.
        254    2    1    2    0    0 -0.11678782184E+03  0.32870750573E+03  0.15690745827E+04  0.18412210386E+04  0.89800436922E+03 0.  0.
         23    2    4    4    0    0  0.23888593172E+03  0.47168783600E+03  0.66388094018E+03  0.85392599068E+03  0.94317505425E+02 0.  0.
         23    2    4    4    0    0 -0.35567375356E+03 -0.14298033027E+03  0.90519364254E+03  0.98729504790E+03  0.91808427213E+02 0.  0.
         13    1    3    3    0    0  0.91813115716E+02 -0.22055357403E+03  0.43858327516E+03  0.49942848986E+03  0.00000000000E+00 0. -1.
        -13    1    3    3    0    0  0.24974706126E+02 -0.10815393170E+03  0.10467269347E+03  0.15256926836E+03  0.00000000000E+00 0.  1.
          4    1    5    5  502    0  0.71952336610E+02  0.23384009439E+03  0.26852379103E+03  0.36326760775E+03  0.00000000000E+00 0. -1.
          1    1    6    6  503    0 -0.15862470514E+03 -0.11305455239E+03  0.45730026645E+03  0.49705800727E+03  0.00000000000E+00 0. -1.
         -4    1    5    5    0  502  0.16693359511E+03  0.23784774161E+03  0.39535714915E+03  0.49065838294E+03  0.00000000000E+00 0.  1.
         -1    1    6    6    0  503 -0.19704904842E+03 -0.29925777882E+02  0.44789337609E+03  0.49023704063E+03  0.00000000000E+00 0.  1.
<mgrwt>
<rscale>  0 0.13244620E+04</rscale>
<asrwt>0</asrwt>
<pdfrwt beam="1">  1        1 0.29299097E-01 0.13244620E+04</pdfrwt>
<pdfrwt beam="2">  1       -1 0.35427301E+00 0.13244620E+04</pdfrwt>
<totfact> 0.22832378E+00</totfact>
</mgrwt>
</event>
<event>
12    1  0.4403484E-008  0.2046130E+04  0.7818608E-02  0.8585352E-01
          1   -1    0    0  501    0  0.00000000000E+00  0.00000000000E+00  0.14646097098E+04  0.14646097098E+04  0.00000000000E+00 0. -1.
         -1   -1    0    0    0  501 -0.00000000000E+00 -0.00000000000E+00 -0.71463551415E+03  0.71463551415E+03  0.00000000000E+00 0.  1.
         23    2    1    2    0    0  0.10630047804E+03  0.51821858742E+03  0.96834670606E+03  0.11071215341E+04  0.90401616361E+02 0.  0.
        254    2    1    2    0    0 -0.10630047804E+03 -0.51821858742E+03 -0.21837251044E+03  0.10721236898E+04  0.90659382135E+03 0.  0.
         23    2    4    4    0    0  0.31749138780E+01 -0.45635589065E+03 -0.54238193752E+03  0.71321094542E+03  0.78872729766E+02 0.  0.
         23    2    4    4    0    0 -0.10947539192E+03 -0.61862696766E+02  0.32400942708E+03  0.35891274437E+03  0.89578984966E+02 0.  0.
         13    1    3    3    0    0  0.45552908167E+02  0.87324508312E+02  0.22791054990E+03  0.24828180753E+03  0.00000000000E+00 0.  1.
        -13    1    3    3    0    0  0.60747569873E+02  0.43089407911E+03  0.74043615616E+03  0.85883972661E+03  0.00000000000E+00 0. -1.
          1    1    5    5  502    0 -0.15219073043E+02 -0.10776723625E+03 -0.86449229703E+02  0.13899232608E+03  0.00000000000E+00 0. -1.
          3    1    6    6  503    0  0.41303227601E+01 -0.11526697330E+02  0.38174992603E+00  0.12250308177E+02  0.00000000000E+00 0. -1.
         -1    1    5    5    0  502  0.18393986921E+02 -0.34858865441E+03 -0.45593270782E+03  0.57421861934E+03  0.00000000000E+00 0.  1.
         -3    1    6    6    0  503 -0.11360571468E+03 -0.50335999437E+02  0.32362767716E+03  0.34666243620E+03  0.00000000000E+00 0.  1.
<mgrwt>
<rscale>  0 0.20461301E+04</rscale>
<asrwt>0</asrwt>
<pdfrwt beam="1">  1        1 0.22532457E+00 0.20461301E+04</pdfrwt>
<pdfrwt beam="2">  1       -1 0.10994393E+00 0.20461301E+04</pdfrwt>
<totfact> 0.48876946E+00</totfact>
</mgrwt>
</event>
<event>
12    1  0.4403484E-008  0.1839085E+04  0.7818608E-02  0.8685786E-01
         -2   -1    0    0    0  501 -0.00000000000E+00  0.00000000000E+00  0.85274981029E+03  0.85274981029E+03  0.00000000000E+00 0.  1.
          2   -1    0    0  501    0  0.00000000000E+00 -0.00000000000E+00 -0.99156724287E+03  0.99156724287E+03  0.00000000000E+00 0. -1.
         23    2    1    2    0    0  0.54349669512E+03  0.42683819142E+03 -0.11756733229E+03  0.70661669987E+03  0.88913349067E+02 0.  0.
        254    2    1    2    0    0 -0.54349669512E+03 -0.42683819142E+03 -0.21250100297E+02  0.11377003533E+04  0.90351039166E+03 0.  0.
         23    2    4    4    0    0 -0.68608931804E+03 -0.16278285048E+02 -0.38526827977E+02  0.69317786009E+03  0.89597401513E+02 0.  0.
         23    2    4    4    0    0  0.14259262291E+03 -0.41055990638E+03  0.17276727680E+02  0.44452249320E+03  0.91704246392E+02 0.  0.
         13    1    3    3    0    0  0.12653455612E+02  0.14016248666E+02 -0.19305806002E+02  0.27005171930E+02  0.00000000000E+00 0. -1.
        -13    1    3    3    0    0  0.53084323951E+03  0.41282194276E+03 -0.98261526286E+02  0.67961152794E+03  0.00000000000E+00 0.  1.
          2    1    5    5  502    0 -0.43657735791E+03 -0.53264886493E+02 -0.28623193048E+02  0.44074507910E+03  0.00000000000E+00 0. -1.
          1    1    6    6  503    0  0.13902309582E+03 -0.41223997759E+03  0.87629456926E+01  0.43513906916E+03  0.00000000000E+00 0. -1.
         -2    1    5    5    0  502 -0.24951196013E+03  0.36986601445E+02 -0.99036349291E+01  0.25243278099E+03  0.00000000000E+00 0.  1.
         -1    1    6    6    0  503  0.35695270895E+01  0.16800712107E+01  0.85137819875E+01  0.93834240364E+01  0.00000000000E+00 0.  1.
<mgrwt>
<rscale>  0 0.18390854E+04</rscale>
<asrwt>0</asrwt>
<pdfrwt beam="1">  1        2 0.15254881E+00 0.18390854E+04</pdfrwt>
<pdfrwt beam="2">  1       -2 0.13119228E+00 0.18390854E+04</pdfrwt>
<totfact> 0.10186265E+01</totfact>
</mgrwt>
</event>
<event>
12    1  0.4403484E-008  0.2601038E+04  0.7818608E-02  0.8367849E-01
         -1   -1    0    0    0  501 -0.00000000000E+00  0.00000000000E+00  0.90413439954E+03  0.90413439954E+03  0.00000000000E+00 0.  1.
          1   -1    0    0  501    0  0.00000000000E+00 -0.00000000000E+00 -0.18706838903E+04  0.18706838903E+04  0.00000000000E+00 0. -1.
         23    2    1    2    0    0  0.10307489048E+04  0.25687039848E+03 -0.87420921604E+03  0.13786238254E+04  0.89085307701E+02 0.  0.
        254    2    1    2    0    0 -0.10307489048E+04 -0.25687039848E+03 -0.92340274705E+02  0.13961944645E+04  0.90133598053E+03 0.  0.
         23    2    4    4    0    0 -0.26607332327E+03 -0.48234363538E+03 -0.18307414019E+03  0.58895193701E+03  0.99487925689E+02 0.  0.
         23    2    4    4    0    0 -0.76467558156E+03  0.22547323690E+03  0.90733865483E+02  0.80724252744E+03  0.88549072064E+02 0.  0.
         11    1    3    3    0    0  0.89675468652E+03  0.22498391205E+03 -0.71978337818E+03  0.11716974183E+04  0.00000000000E+00 0. -1.
        -11    1    3    3    0    0  0.13399421832E+03  0.31886486427E+02 -0.15442583786E+03  0.20692640711E+03  0.00000000000E+00 0.  1.
          2    1    5    5  502    0 -0.46747227250E+02 -0.72184914972E+02 -0.68459029355E+02  0.10992089840E+03  0.00000000000E+00 0. -1.
          3    1    6    6  503    0 -0.97305079404E+02  0.81871085435E+01 -0.10157352492E+02  0.98175755835E+02  0.00000000000E+00 0. -1.
         -2    1    5    5    0  502 -0.21932609602E+03 -0.41015872041E+03 -0.11461511083E+03  0.47903103861E+03  0.00000000000E+00 0.  1.
         -3    1    6    6    0  503 -0.66737050216E+03  0.21728612836E+03  0.10089121798E+03  0.70906677160E+03  0.00000000000E+00 0.  1.
<mgrwt>
<rscale>  0 0.26010380E+04</rscale>
<asrwt>0</asrwt>
<pdfrwt beam="1">  1        1 0.28779751E+00 0.26010380E+04</pdfrwt>
<pdfrwt beam="2">  1       -1 0.13909760E+00 0.26010380E+04</pdfrwt>
<totfact> 0.13692844E+00</totfact>
</mgrwt>
</event>
<event>
12    1  0.4403484E-008  0.4275504E+04  0.7818608E-02  0.7951163E-01
          3   -1    0    0  501    0  0.00000000000E+00  0.00000000000E+00  0.29757413259E+04  0.29757413259E+04  0.00000000000E+00 0. -1.
         -3   -1    0    0    0  501 -0.00000000000E+00 -0.00000000000E+00 -0.15357463833E+04  0.15357463833E+04  0.00000000000E+00 0.  1.
         23    2    1    2    0    0  0.49456191952E+03 -0.36412412063E+03  0.27447211770E+04  0.28140841915E+04  0.91638583430E+02 0.  0.
        254    2    1    2    0    0 -0.49456191952E+03  0.36412412063E+03 -0.13047262344E+04  0.16974035177E+04  0.89537159185E+03 0.  0.
         23    2    4    4    0    0  0.20762338912E+03  0.27144244737E+03 -0.59038328418E+03  0.68832723194E+03  0.91942819433E+02 0.  0.
         23    2    4    4    0    0 -0.70218530864E+03  0.92681673256E+02 -0.71434295024E+03  0.10090762857E+04  0.79341033584E+02 0.  0.
         13    1    3    3    0    0  0.82465921592E+02 -0.22251041598E+02  0.36155528718E+03  0.37150768870E+03  0.00000000000E+00 0.  1.
        -13    1    3    3    0    0  0.41209599793E+03 -0.34187307903E+03  0.23831658898E+04  0.24425765028E+04  0.00000000000E+00 0. -1.
          2    1    5    5  502    0  0.14616408633E+03  0.22150450582E+03 -0.37967311168E+03  0.46322765242E+03  0.00000000000E+00 0. -1.
          3    1    6    6  503    0 -0.23682948202E+03 -0.46866217863E+01 -0.25354264600E+03  0.34697844503E+03  0.00000000000E+00 0. -1.
         -2    1    5    5    0  502  0.61459302789E+02  0.49937941552E+02 -0.21071017251E+03  0.22509957953E+03  0.00000000000E+00 0.  1.
         -3    1    6    6    0  503 -0.46535582662E+03  0.97368295042E+02 -0.46080030425E+03  0.66209784069E+03  0.00000000000E+00 0.  1.
<mgrwt>
<rscale>  0 0.42755042E+04</rscale>
<asrwt>0</asrwt>
<pdfrwt beam="1">  1        3 0.45780636E+00 0.42755042E+04</pdfrwt>
<pdfrwt beam="2">  1       -3 0.23626867E+00 0.42755042E+04</pdfrwt>
<totfact> 0.97318176E-04</totfact>
</mgrwt>
</event>
<event>
12    1  0.4403484E-008  0.1247396E+04  0.7818608E-02  0.9072354E-01
         -1   -1    0    0    0  501 -0.00000000000E+00  0.00000000000E+00  0.14334445448E+03  0.14334445448E+03  0.00000000000E+00 0.  1.
          1   -1    0    0  501    0  0.00000000000E+00 -0.00000000000E+00 -0.27137364760E+04  0.27137364760E+04  0.00000000000E+00 0. -1.
         23    2    1    2    0    0 -0.99030298007E+02 -0.91151577971E+02 -0.12012297337E+04  0.12122052560E+04  0.91504641652E+02 0.  0.
        254    2    1    2    0    0  0.99030298007E+02  0.91151577971E+02 -0.13691622877E+04  0.16448756744E+04  0.90160690103E+03 0.  0.
         23    2    4    4    0    0 -0.12883041834E+03  0.16950462416E+03  0.19304725239E+02  0.23274149906E+03  0.92015426261E+02 0.  0.
         23    2    4    4    0    0  0.22786071634E+03 -0.78353046186E+02 -0.13884670130E+04  0.14121341753E+04  0.90678427135E+02 0.  0.
         11    1    3    3    0    0 -0.10191530247E+03 -0.10344330249E+03 -0.98942441657E+03  0.10000239606E+04  0.00000000000E+00 0. -1.
        -11    1    3    3    0    0  0.28850044627E+01  0.12291724515E+02 -0.21180531717E+03  0.21218129542E+03  0.00000000000E+00 0.  1.
          1    1    5    5  502    0  0.13819348977E+02  0.19895072247E+02  0.87482182873E+01  0.25754992313E+02  0.00000000000E+00 0. -1.
          3    1    6    6  503    0  0.14192851318E+03 -0.77098332108E+02 -0.70387558834E+03  0.72216943963E+03  0.00000000000E+00 0. -1.
         -1    1    5    5    0  502 -0.14264976731E+03  0.14960955191E+03  0.10556506952E+02  0.20698650675E+03  0.00000000000E+00 0.  1.
         -3    1    6    6    0  503  0.85932203160E+02 -0.12547140776E+01 -0.68459142462E+03  0.68996473571E+03  0.00000000000E+00 0.  1.
<mgrwt>
<rscale>  0 0.12473958E+04</rscale>
<asrwt>0</asrwt>
<pdfrwt beam="1">  1        1 0.41749787E+00 0.12473958E+04</pdfrwt>
<pdfrwt beam="2">  1       -1 0.22052995E-01 0.12473958E+04</pdfrwt>
<totfact> 0.16550570E+01</totfact>
</mgrwt>
</event>
<event>
12    1  0.4403484E-008  0.1136084E+04  0.7818608E-02  0.9170719E-01
         -2   -1    0    0    0  501 -0.00000000000E+00  0.00000000000E+00  0.46225497614E+03  0.46225497614E+03  0.00000000000E+00 0. -1.
          2   -1    0    0  501    0  0.00000000000E+00 -0.00000000000E+00 -0.69803779743E+03  0.69803779743E+03  0.00000000000E+00 0.  1.
         23    2    1    2    0    0  0.11147712517E+03 -0.73131179057E+02 -0.18739427374E+03  0.24795186211E+03  0.92672505676E+02 0.  0.
        254    2    1    2    0    0 -0.11147712517E+03  0.73131179057E+02 -0.48388547551E+02  0.91234091146E+03  0.90124867179E+03 0.  0.
         23    2    4    4    0    0  0.36019533358E+03  0.13346508153E+03  0.98748443984E+02  0.40631731019E+03  0.88254716859E+02 0.  0.
         23    2    4    4    0    0 -0.47167245875E+03 -0.60333902471E+02 -0.14713699154E+03  0.50602360127E+03  0.91079649978E+02 0.  0.
         11    1    3    3    0    0  0.19430293630E+02  0.14911131232E+02 -0.42334752523E+01  0.24855592085E+02  0.00000000000E+00 0. -1.
        -11    1    3    3    0    0  0.92046831536E+02 -0.88042310290E+02 -0.18316079849E+03  0.22309627003E+03  0.00000000000E+00 0.  1.
          2    1    5    5  502    0  0.30752326900E+03  0.14387731904E+03  0.94687281737E+02  0.35247258792E+03  0.00000000000E+00 0. -1.
          4    1    6    6  503    0 -0.25949071518E+03 -0.78708053771E+02 -0.80186183288E+02  0.28277236955E+03  0.00000000000E+00 0. -1.
         -2    1    5    5    0  502  0.52672064586E+02 -0.10412237515E+02  0.40611622466E+01  0.53844722273E+02  0.00000000000E+00 0.  1.
         -4    1    6    6    0  503 -0.21218174357E+03  0.18374151301E+02 -0.66950808247E+02  0.22325123172E+03  0.00000000000E+00 0.  1.
<mgrwt>
<rscale>  0 0.11360835E+04</rscale>
<asrwt>0</asrwt>
<pdfrwt beam="1">  1        2 0.10739043E+00 0.11360835E+04</pdfrwt>
<pdfrwt beam="2">  1       -2 0.71116150E-01 0.11360835E+04</pdfrwt>
<totfact> 0.73190184E+01</totfact>
</mgrwt>
</event>
<event>
12    1  0.4403484E-008  0.1503682E+04  0.7818608E-02  0.8882008E-01
         -2   -1    0    0    0  501 -0.00000000000E+00  0.00000000000E+00  0.57723213518E+03  0.57723213518E+03  0.00000000000E+00 0. -1.
          2   -1    0    0  501    0  0.00000000000E+00 -0.00000000000E+00 -0.97926795816E+03  0.97926795816E+03  0.00000000000E+00 0.  1.
         23    2    1    2    0    0  0.33042410934E+03  0.32195711974E+03  0.11082513376E+02  0.47068570331E+03  0.92659215460E+02 0.  0.
        254    2    1    2    0    0 -0.33042410934E+03 -0.32195711974E+03 -0.41311833636E+03  0.10858143900E+04  0.89190226528E+03 0.  0.
         23    2    4    4    0    0 -0.13197807992E+03 -0.61661350028E+03 -0.26478673615E+03  0.69017735060E+03  0.92748786143E+02 0.  0.
         23    2    4    4    0    0 -0.19844602942E+03  0.29465638054E+03 -0.14833160021E+03  0.39563703944E+03  0.91231541549E+02 0.  0.
         13    1    3    3    0    0  0.32964502535E+03  0.32721115191E+03  0.13889198595E+02  0.46467826559E+03  0.00000000000E+00 0.  1.
        -13    1    3    3    0    0  0.77908398814E+00 -0.52540321752E+01 -0.28066852191E+01  0.60074377132E+01  0.00000000000E+00 0. -1.
          1    1    6    6  502    0 -0.20691468580E+03  0.29048950870E+03 -0.14032769867E+03  0.38326192725E+03  0.00000000000E+00 0. -1.
          1    1    5    5  503    0 -0.48932292926E+02 -0.38316023400E+03 -0.12673870038E+03  0.40653269534E+03  0.00000000000E+00 0. -1.
         -1    1    5    5    0  503 -0.83045786998E+02 -0.23345326629E+03 -0.13804803577E+03  0.28364465526E+03  0.00000000000E+00 0.  1.
         -1    1    6    6    0  502  0.84686563862E+01  0.41668718405E+01 -0.80039015369E+01  0.12375112191E+02  0.00000000000E+00 0.  1.
<mgrwt>
<rscale>  0 0.15036821E+04</rscale>
<asrwt>0</asrwt>
<pdfrwt beam="1">  1        2 0.15065661E+00 0.15036821E+04</pdfrwt>
<pdfrwt beam="2">  1       -2 0.88804944E-01 0.15036821E+04</pdfrwt>
<totfact> 0.27355648E+01</totfact>
</mgrwt>
</event>
<event>
12    1  0.4403484E-008  0.1365801E+04  0.7818608E-02  0.8978952E-01
          4   -1    0    0  501    0  0.00000000000E+00  0.00000000000E+00  0.41107851479E+03  0.41107851479E+03  0.00000000000E+00 0. -1.
         -4   -1    0    0    0  501 -0.00000000000E+00 -0.00000000000E+00 -0.11344631266E+04  0.11344631266E+04  0.00000000000E+00 0.  1.
         23    2    1    2    0    0 -0.23272095339E+03  0.23226968977E+02  0.13055606379E+03  0.28287882312E+03  0.90978066271E+02 0.  0.
        254    2    1    2    0    0  0.23272095339E+03 -0.23226968977E+02 -0.85394067555E+03  0.12626628182E+04  0.90022451696E+03 0.  0.
         23    2    4    4    0    0 -0.29723542017E+03 -0.11312936837E+03 -0.54193915767E+03  0.63460414618E+03  0.88753719553E+02 0.  0.
         23    2    4    4    0    0  0.52995637356E+03  0.89902399394E+02 -0.31200151788E+03  0.62805867205E+03  0.90424272639E+02 0.  0.
         11    1    3    3    0    0 -0.16872631439E+03 -0.92707948288E+01  0.12632671734E+03  0.21098093828E+03  0.00000000000E+00 0. -1.
        -11    1    3    3    0    0 -0.63994638997E+02  0.32497763806E+02  0.42293464558E+01  0.71897884838E+02  0.00000000000E+00 0.  1.
          2    1    5    5  502    0 -0.14598327572E+03 -0.15607427170E+02 -0.28928113516E+03  0.32440450634E+03  0.00000000000E+00 0. -1.
          4    1    6    6  503    0  0.37570879763E+03  0.27317286971E+02 -0.24024982398E+03  0.44679224782E+03  0.00000000000E+00 0. -1.
         -2    1    5    5    0  502 -0.15125214445E+03 -0.97521941202E+02 -0.25265802251E+03  0.31019963984E+03  0.00000000000E+00 0.  1.
         -4    1    6    6    0  503  0.15424757593E+03  0.62585112424E+02 -0.71751693901E+02  0.18126642423E+03  0.00000000000E+00 0.  1.
<mgrwt>
<rscale>  0 0.13658015E+04</rscale>
<asrwt>0</asrwt>
<pdfrwt beam="1">  1        4 0.63242849E-01 0.13658015E+04</pdfrwt>
<pdfrwt beam="2">  1       -4 0.17453279E+00 0.13658015E+04</pdfrwt>
<totfact> 0.89558586E-01</totfact>
</mgrwt>
</event>
<event>
12    1  0.4403484E-008  0.1610335E+04  0.7818608E-02  0.8814224E-01
         -2   -1    0    0    0  501 -0.00000000000E+00  0.00000000000E+00  0.45563968123E+03  0.45563968123E+03  0.00000000000E+00 0.  1.
          2   -1    0    0  501    0  0.00000000000E+00 -0.00000000000E+00 -0.14228232232E+04  0.14228232232E+04  0.00000000000E+00 0. -1.
         23    2    1    2    0    0 -0.43595102268E+03 -0.44968393991E+02 -0.71654544779E+03  0.84484727741E+03  0.90852037756E+02 0.  0.
        254    2    1    2    0    0  0.43595102268E+03  0.44968393991E+02 -0.25063809418E+03  0.10336156270E+04  0.90192369941E+03 0.  0.
         23    2    4    4    0    0  0.18288215670E+03  0.31381707975E+02 -0.57518776416E+03  0.61145906525E+03  0.92792939405E+02 0.  0.
         23    2    4    4    0    0  0.25306886597E+03  0.13586686015E+02  0.32454966999E+03  0.42215656178E+03  0.93033463881E+02 0.  0.
         11    1    3    3    0    0 -0.76003638568E+02  0.24080509504E+02 -0.10428549733E+03  0.13127028973E+03  0.00000000000E+00 0.  1.
        -11    1    3    3    0    0 -0.35994738411E+03 -0.69048903494E+02 -0.61225995047E+03  0.71357698768E+03  0.00000000000E+00 0. -1.
          1    1    5    5  502    0  0.13749040573E+03 -0.31167660665E+01 -0.29435254294E+03  0.32489497601E+03  0.00000000000E+00 0. -1.
          3    1    6    6  503    0  0.12253069913E+03 -0.10651957783E+02  0.22423559937E+03  0.25575152093E+03  0.00000000000E+00 0. -1.
         -1    1    5    5    0  502  0.45391750973E+02  0.34498474042E+02 -0.28083522122E+03  0.28656408925E+03  0.00000000000E+00 0.  1.
         -3    1    6    6    0  503  0.13053816684E+03  0.24238643798E+02  0.10031407062E+03  0.16640504084E+03  0.00000000000E+00 0.  1.
<mgrwt>
<rscale>  0 0.16103350E+04</rscale>
<asrwt>0</asrwt>
<pdfrwt beam="1">  1        2 0.21889588E+00 0.16103350E+04</pdfrwt>
<pdfrwt beam="2">  1       -2 0.70098412E-01 0.16103350E+04</pdfrwt>
<totfact> 0.24933679E+01</totfact>
</mgrwt>
</event>
<event>
12    1  0.4403484E-008  0.2304677E+04  0.7818608E-02  0.8476079E-01
          2   -1    0    0  501    0  0.00000000000E+00  0.00000000000E+00  0.28926294527E+04  0.28926294527E+04  0.00000000000E+00 0. -1.
         -2   -1    0    0    0  501 -0.00000000000E+00 -0.00000000000E+00 -0.45905762361E+03  0.45905762361E+03  0.00000000000E+00 0.  1.
         23    2    1    2    0    0 -0.29407281178E+02 -0.89819298215E+03  0.46864973670E+03  0.10177064230E+04  0.92078044903E+02 0.  0.
        254    2    1    2    0    0  0.29407281178E+02  0.89819298215E+03  0.19649220924E+04  0.23339806533E+04  0.88257092599E+03 0.  0.
         23    2    4    4    0    0 -0.10631667747E+03  0.24421530545E+03  0.27293152536E+02  0.28244066685E+03  0.89908079689E+02 0.  0.
         23    2    4    4    0    0  0.13572395865E+03  0.65397767670E+03  0.19376289398E+04  0.20515399864E+04  0.91118674436E+02 0.  0.
         11    1    3    3    0    0 -0.65085447448E+01 -0.76159360378E+02  0.70725702795E+02  0.10413805435E+03  0.00000000000E+00 0. -1.
        -11    1    3    3    0    0 -0.22898736433E+02 -0.82203362177E+03  0.39792403390E+03  0.91356836866E+03  0.00000000000E+00 0.  1.
          2    1    5    5  502    0  0.13217457027E+02  0.15744519975E+02 -0.82509103004E+01  0.22151040614E+02  0.00000000000E+00 0. -1.
          4    1    6    6  503    0  0.11245177782E+03  0.31833385449E+03  0.98138679755E+03  0.10378351948E+04  0.00000000000E+00 0.  1.
         -2    1    5    5    0  502 -0.11953413450E+03  0.22847078547E+03  0.35544062837E+02  0.26028962624E+03  0.00000000000E+00 0.  1.
         -4    1    6    6    0  503  0.23272180822E+02  0.33564382221E+03  0.95624214227E+03  0.10137047916E+04  0.00000000000E+00 0. -1.
<mgrwt>
<rscale>  0 0.23046766E+04</rscale>
<asrwt>0</asrwt>
<pdfrwt beam="1">  1        2 0.44501990E+00 0.23046766E+04</pdfrwt>
<pdfrwt beam="2">  1       -2 0.70624252E-01 0.23046766E+04</pdfrwt>
<totfact> 0.33561581E+00</totfact>
</mgrwt>
</event>
<event>
12    1  0.4403484E-008  0.2938608E+04  0.7818608E-02  0.8261482E-01
          1   -1    0    0  501    0  0.00000000000E+00  0.00000000000E+00  0.12852262269E+04  0.12852262269E+04  0.00000000000E+00 0. -1.
         -1   -1    0    0    0  501 -0.00000000000E+00 -0.00000000000E+00 -0.16797465682E+04  0.16797465682E+04  0.00000000000E+00 0.  1.
         23    2    1    2    0    0 -0.10921553272E+03  0.86534179251E+03 -0.11857028433E+04  0.14747590350E+04  0.90986418673E+02 0.  0.
        254    2    1    2    0    0  0.10921553272E+03 -0.86534179251E+03  0.79118250208E+03  0.14902137600E+04  0.91324851413E+03 0.  0.
         23    2    4    4    0    0 -0.17602441605E+03 -0.55796681928E+02  0.56022781212E+03  0.59692288172E+03  0.91454144149E+02 0.  0.
         23    2    4    4    0    0  0.28523994877E+03 -0.80954511058E+03  0.23095468996E+03  0.89329087832E+03  0.88901125065E+02 0.  0.
         11    1    3    3    0    0 -0.74360786086E+02  0.39621804259E+03 -0.48298509908E+03  0.62912071156E+03  0.00000000000E+00 0.  1.
        -11    1    3    3    0    0 -0.34854746630E+02  0.46912374992E+03 -0.70271774423E+03  0.84563832349E+03  0.00000000000E+00 0. -1.
          2    1    5    5  502    0 -0.49879954881E+02  0.20997150109E+02  0.10175464263E+03  0.11525145339E+03  0.00000000000E+00 0. -1.
          3    1    6    6  503    0  0.12292926479E+03 -0.27019338132E+03  0.11432185533E+03  0.31809676839E+03  0.00000000000E+00 0. -1.
         -2    1    5    5    0  502 -0.12614446117E+03 -0.76793832037E+02  0.45847316949E+03  0.48167142833E+03  0.00000000000E+00 0.  1.
         -3    1    6    6    0  503  0.16231068397E+03 -0.53935172926E+03  0.11663283463E+03  0.57519410993E+03  0.00000000000E+00 0.  1.
<mgrwt>
<rscale>  0 0.29386081E+04</rscale>
<asrwt>0</asrwt>
<pdfrwt beam="1">  1        1 0.19772711E+00 0.29386081E+04</pdfrwt>
<pdfrwt beam="2">  1       -1 0.25842255E+00 0.29386081E+04</pdfrwt>
<totfact> 0.48715941E-01</totfact>
</mgrwt>
</event>
<event>
12    1  0.4403484E-008  0.2316827E+04  0.7818608E-02  0.8471316E-01
          2   -1    0    0  501    0  0.00000000000E+00  0.00000000000E+00  0.24262664177E+04  0.24262664177E+04  0.00000000000E+00 0. -1.
         -2   -1    0    0    0  501 -0.00000000000E+00 -0.00000000000E+00 -0.55308102138E+03  0.55308102138E+03  0.00000000000E+00 0.  1.
         23    2    1    2    0    0 -0.14811730229E+03  0.80163970985E+03  0.14902024296E+04  0.17009503539E+04  0.89240493539E+02 0.  0.
        254    2    1    2    0    0  0.14811730229E+03 -0.80163970985E+03  0.38298296671E+03  0.12783970851E+04  0.90722554796E+03 0.  0.
         23    2    4    4    0    0 -0.23902991788E+03 -0.27586408192E+03 -0.17349947956E+03  0.41570122472E+03  0.97309534392E+02 0.  0.
         23    2    4    4    0    0  0.38714722017E+03 -0.52577562793E+03  0.55648244627E+03  0.86269586043E+03  0.90820997489E+02 0.  0.
         11    1    3    3    0    0 -0.20307103343E+02  0.40046301906E+02  0.53418526057E+02  0.69782688890E+02  0.00000000000E+00 0.  1.
        -11    1    3    3    0    0 -0.12781019894E+03  0.76159340795E+03  0.14367839035E+04  0.16311676650E+04  0.00000000000E+00 0. -1.
          4    1    5    5  502    0 -0.19331723251E+03 -0.17167714543E+03 -0.87032954750E+02  0.27279906499E+03  0.00000000000E+00 0. -1.
          1    1    6    6  503    0  0.27712896955E+02 -0.41651327434E+02  0.14863765134E+02  0.52189742753E+02  0.00000000000E+00 0. -1.
         -4    1    5    5    0  502 -0.45712685367E+02 -0.10418693649E+03 -0.86466524814E+02  0.14290215972E+03  0.00000000000E+00 0.  1.
         -1    1    6    6    0  503  0.35943432321E+03 -0.48412430050E+03  0.54161868114E+03  0.81050611768E+03  0.00000000000E+00 0.  1.
<mgrwt>
<rscale>  0 0.23168271E+04</rscale>
<asrwt>0</asrwt>
<pdfrwt beam="1">  1        2 0.37327175E+00 0.23168271E+04</pdfrwt>
<pdfrwt beam="2">  1       -2 0.85089389E-01 0.23168271E+04</pdfrwt>
<totfact> 0.41783724E+00</totfact>
</mgrwt>
</event>
<event>
12    1  0.4403484E-008  0.1827406E+04  0.7818608E-02  0.8691860E-01
         -2   -1    0    0    0  501 -0.00000000000E+00  0.00000000000E+00  0.28854294037E+03  0.28854294037E+03  0.00000000000E+00 0. -1.
          2   -1    0    0  501    0  0.00000000000E+00 -0.00000000000E+00 -0.28933409642E+04  0.28933409642E+04  0.00000000000E+00 0.  1.
         23    2    1    2    0    0  0.57149130314E+03  0.35122277601E+03 -0.72894433349E+03  0.99442315009E+03  0.86935678200E+02 0.  0.
        254    2    1    2    0    0 -0.57149130314E+03 -0.35122277601E+03 -0.18758536903E+04  0.21874607545E+04  0.90343662581E+03 0.  0.
         23    2    4    4    0    0 -0.28256491585E+03 -0.42000292852E+03 -0.17939271085E+04  0.18662055523E+04  0.91122451324E+02 0.  0.
         23    2    4    4    0    0 -0.28892638730E+03  0.68780152510E+02 -0.81926581826E+02  0.32125520218E+03  0.91015237538E+02 0.  0.
         13    1    3    3    0    0  0.56608877260E+03  0.33304887847E+03 -0.71506988401E+03  0.97092893300E+03  0.00000000000E+00 0. -1.
        -13    1    3    3    0    0  0.54025305440E+01  0.18173897548E+02 -0.13874449475E+02  0.23494217088E+02  0.00000000000E+00 0.  1.
          2    1    5    5  502    0 -0.28828823389E+03 -0.41106096214E+03 -0.17292502058E+04  0.18006630708E+04  0.00000000000E+00 0. -1.
          1    1    6    6  503    0 -0.21388037655E+03  0.49877214431E+02 -0.17069223196E+02  0.22028143448E+03  0.00000000000E+00 0. -1.
         -2    1    5    5    0  502  0.57233180458E+01 -0.89419663788E+01 -0.64676902708E+02  0.65542481462E+02  0.00000000000E+00 0.  1.
         -1    1    6    6    0  503 -0.75046010742E+02  0.18902938079E+02 -0.64857358630E+02  0.10097376771E+03  0.00000000000E+00 0.  1.
<mgrwt>
<rscale>  0 0.18274059E+04</rscale>
<asrwt>0</asrwt>
<pdfrwt beam="1">  1        2 0.44512936E+00 0.18274059E+04</pdfrwt>
<pdfrwt beam="2">  1       -2 0.44391224E-01 0.18274059E+04</pdfrwt>
<totfact> 0.92214065E+00</totfact>
</mgrwt>
</event>
<event>
12    1  0.4403484E-008  0.1586690E+04  0.7818608E-02  0.8828767E-01
         -1   -1    0    0    0  501 -0.00000000000E+00  0.00000000000E+00  0.25912181052E+03  0.25912181052E+03  0.00000000000E+00 0.  1.
          1   -1    0    0  501    0  0.00000000000E+00 -0.00000000000E+00 -0.24289597095E+04  0.24289597095E+04  0.00000000000E+00 0. -1.
         23    2    1    2    0    0  0.32722426471E+03 -0.23156627137E+03 -0.13268010148E+03  0.43047329911E+03  0.83693455307E+02 0.  0.
        254    2    1    2    0    0 -0.32722426471E+03  0.23156627137E+03 -0.20371577975E+04  0.22576082210E+04  0.88661396889E+03 0.  0.
         23    2    4    4    0    0 -0.49011673868E+03 -0.17318902587E+03 -0.11250696153E+04  0.12424350996E+04  0.87489891760E+02 0.  0.
         23    2    4    4    0    0  0.16289247396E+03  0.40475529724E+03 -0.91208818221E+03  0.10151731214E+04  0.91163619357E+02 0.  0.
         13    1    3    3    0    0  0.43761855704E+02 -0.71699929697E+02 -0.23786633603E+02  0.87302828541E+02  0.00000000000E+00 0. -1.
        -13    1    3    3    0    0  0.28346240901E+03 -0.15986634167E+03 -0.10889346788E+03  0.34317047057E+03  0.00000000000E+00 0.  1.
          2    1    5    5  502    0 -0.34375644023E+02 -0.15932867441E+01 -0.37956084231E+02  0.51233658808E+02  0.00000000000E+00 0.  1.
          4    1    6    6  503    0  0.14077306772E+03  0.23228047332E+03 -0.57187815466E+03  0.63310022797E+03  0.00000000000E+00 0. -1.
         -2    1    5    5    0  502 -0.45574109465E+03 -0.17159573913E+03 -0.10871135311E+04  0.11912014408E+04  0.00000000000E+00 0. -1.
         -4    1    6    6    0  503  0.22119406244E+02  0.17247482392E+03 -0.34021002755E+03  0.38207289339E+03  0.00000000000E+00 0.  1.
<mgrwt>
<rscale>  0 0.15866902E+04</rscale>
<asrwt>0</asrwt>
<pdfrwt beam="1">  1        1 0.37368612E+00 0.15866902E+04</pdfrwt>
<pdfrwt beam="2">  1       -1 0.39864892E-01 0.15866902E+04</pdfrwt>
<totfact> 0.89482668E+00</totfact>
</mgrwt>
</event>
<event>
12    1  0.4403484E-008  0.1808524E+04  0.7818608E-02  0.8701779E-01
         -2   -1    0    0    0  501 -0.00000000000E+00  0.00000000000E+00  0.13511838222E+04  0.13511838222E+04  0.00000000000E+00 0.  1.
          2   -1    0    0  501    0  0.00000000000E+00 -0.00000000000E+00 -0.60516562060E+03  0.60516562060E+03  0.00000000000E+00 0. -1.
         23    2    1    2    0    0  0.34745001642E+02  0.22408807343E+03 -0.41783880101E+03  0.48383781113E+03  0.89928216123E+02 0.  0.
        254    2    1    2    0    0 -0.34745001642E+02 -0.22408807343E+03  0.11638570026E+04  0.14725116317E+04  0.87310062599E+03 0.  0.
         23    2    4    4    0    0  0.88184801499E+02 -0.53681401626E+03  0.76673345259E+03  0.94452038691E+03  0.91064409614E+02 0.  0.
         23    2    4    4    0    0 -0.12292980314E+03  0.31272594283E+03  0.39712355005E+03  0.52799124479E+03  0.90323799470E+02 0.  0.
         11    1    3    3    0    0  0.46176048431E+02  0.83800631941E+02 -0.11295628124E+03  0.14803342472E+03  0.00000000000E+00 0.  1.
        -11    1    3    3    0    0 -0.11431046789E+02  0.14028744149E+03 -0.30488251977E+03  0.33580438641E+03  0.00000000000E+00 0. -1.
          2    1    5    5  502    0  0.41514799897E+02 -0.43471041698E+03  0.57055604918E+03  0.71849205319E+03  0.00000000000E+00 0. -1.
          1    1    6    6  503    0 -0.74190107948E+02  0.20121840121E+03  0.31538916090E+03  0.38139656517E+03  0.00000000000E+00 0. -1.
         -2    1    5    5    0  502  0.46670001602E+02 -0.10210359928E+03  0.19617740341E+03  0.22602833372E+03  0.00000000000E+00 0.  1.
         -1    1    6    6    0  503 -0.48739695194E+02  0.11150754162E+03  0.81734389147E+02  0.14659467963E+03  0.00000000000E+00 0.  1.
<mgrwt>
<rscale>  0 0.18085243E+04</rscale>
<asrwt>0</asrwt>
<pdfrwt beam="1">  1        2 0.93102404E-01 0.18085243E+04</pdfrwt>
<pdfrwt beam="2">  1       -2 0.20787443E+00 0.18085243E+04</pdfrwt>
<totfact> 0.54682400E+00</totfact>
</mgrwt>
</event>
<event>
12    1  0.4403484E-008  0.2418432E+04  0.7818608E-02  0.8432635E-01
         -2   -1    0    0    0  501 -0.00000000000E+00  0.00000000000E+00  0.95581242814E+03  0.95581242814E+03  0.00000000000E+00 0. -1.
          2   -1    0    0  501    0  0.00000000000E+00 -0.00000000000E+00 -0.15298011339E+04  0.15298011339E+04  0.00000000000E+00 0.  1.
         23    2    1    2    0    0  0.21737147583E+03  0.12895406217E+02  0.79832372092E+03  0.83206408159E+03  0.87139098506E+02 0.  0.
        254    2    1    2    0    0 -0.21737147583E+03 -0.12895406217E+02 -0.13723124266E+04  0.16535494804E+04  0.89641945421E+03 0.  0.
         23    2    4    4    0    0 -0.13019797172E+03  0.39149688865E+03 -0.10139766343E+04  0.10984978857E+04  0.91256036401E+02 0.  0.
         23    2    4    4    0    0 -0.87173504108E+02 -0.40439229486E+03 -0.35833579231E+03  0.55505159475E+03  0.92441250674E+02 0.  0.
         11    1    3    3    0    0  0.45800674026E+02  0.31910907900E+01  0.69790907554E+02  0.83538347954E+02  0.00000000000E+00 0.  1.
        -11    1    3    3    0    0  0.17157080180E+03  0.97043154271E+01  0.72853281336E+03  0.74852573364E+03  0.00000000000E+00 0. -1.
          4    1    5    5  502    0 -0.11508913129E+03  0.35341994848E+03 -0.82093903771E+03  0.90116151258E+03  0.00000000000E+00 0. -1.
          3    1    6    6  503    0 -0.91728566991E+02 -0.37333613994E+03 -0.35536162435E+03  0.52352257587E+03  0.00000000000E+00 0. -1.
         -4    1    5    5    0  502 -0.15108840430E+02  0.38076940167E+02 -0.19303759662E+03  0.19733637308E+03  0.00000000000E+00 0.  1.
         -3    1    6    6    0  503  0.45550628835E+01 -0.31056154924E+02 -0.29741679566E+01  0.31529018881E+02  0.00000000000E+00 0.  1.
<mgrwt>
<rscale>  0 0.24184317E+04</rscale>
<asrwt>0</asrwt>
<pdfrwt beam="1">  1        2 0.23535402E+00 0.24184317E+04</pdfrwt>
<pdfrwt beam="2">  1       -2 0.14704806E+00 0.24184317E+04</pdfrwt>
<totfact> 0.34631584E+00</totfact>
</mgrwt>
</event>
<event>
12    1  0.4403484E-008  0.1706507E+04  0.7818608E-02  0.8757662E-01
          2   -1    0    0  501    0  0.00000000000E+00  0.00000000000E+00  0.98265337730E+03  0.98265337730E+03  0.00000000000E+00 0. -1.
         -2   -1    0    0    0  501 -0.00000000000E+00 -0.00000000000E+00 -0.74089311000E+03  0.74089311000E+03  0.00000000000E+00 0.  1.
         23    2    1    2    0    0 -0.36040670426E+03  0.16570794889E+03  0.53529003049E+03  0.67264708089E+03  0.92555723155E+02 0.  0.
        254    2    1    2    0    0  0.36040670426E+03 -0.16570794889E+03 -0.29352976320E+03  0.10508994064E+04  0.92783496577E+03 0.  0.
         23    2    4    4    0    0 -0.12350233704E+03  0.20219794035E+03  0.14820197334E+03  0.29377342657E+03  0.90565815415E+02 0.  0.
         23    2    4    4    0    0  0.48390904131E+03 -0.36790588924E+03 -0.44173173654E+03  0.75712597984E+03  0.92682893141E+02 0.  0.
         13    1    3    3    0    0 -0.10532171701E+03  0.35875352830E+02  0.22182173951E+03  0.24816242491E+03  0.00000000000E+00 0.  1.
        -13    1    3    3    0    0 -0.25508498725E+03  0.12983259606E+03  0.31346829098E+03  0.42448465599E+03  0.00000000000E+00 0. -1.
          1    1    6    6  502    0  0.18589826706E+03 -0.18372011649E+03 -0.22729559510E+03  0.34637340320E+03  0.00000000000E+00 0. -1.
          1    1    5    5  503    0 -0.91043547531E+02  0.20071622399E+03  0.13645972916E+03  0.25922420374E+03  0.00000000000E+00 0. -1.
         -1    1    5    5    0  503 -0.32458789514E+02  0.14817163528E+01  0.11742244185E+02  0.34549222836E+02  0.00000000000E+00 0.  1.
         -1    1    6    6    0  502  0.29801077425E+03 -0.18418577275E+03 -0.21443614145E+03  0.41075257663E+03  0.00000000000E+00 0.  1.
<mgrwt>
<rscale>  0 0.17065065E+04</rscale>
<asrwt>0</asrwt>
<pdfrwt beam="1">  1        2 0.15117744E+00 0.17065065E+04</pdfrwt>
<pdfrwt beam="2">  1       -2 0.11398356E+00 0.17065065E+04</pdfrwt>
<totfact> 0.14814030E+01</totfact>
</mgrwt>
</event>
<event>
12    1  0.4403484E-008  0.1821897E+04  0.7818608E-02  0.8694741E-01
          2   -1    0    0  501    0  0.00000000000E+00  0.00000000000E+00  0.16266371588E+04  0.16266371588E+04  0.00000000000E+00 0.  1.
         -2   -1    0    0    0  501 -0.00000000000E+00 -0.00000000000E+00 -0.51014870761E+03  0.51014870761E+03  0.00000000000E+00 0. -1.
         23    2    1    2    0    0 -0.44432303765E+03  0.57339665112E+01  0.10318901500E+04  0.11271554021E+04  0.90698284645E+02 0.  0.
        254    2    1    2    0    0  0.44432303765E+03 -0.57339665112E+01  0.84598301277E+02  0.10096304643E+04  0.90263002483E+03 0.  0.
         23    2    4    4    0    0  0.64569019859E+03  0.61172825986E+02  0.27425868912E+03  0.71096067562E+03  0.97925004588E+02 0.  0.
         23    2    4    4    0    0 -0.20136716093E+03 -0.66906792497E+02 -0.18966038784E+03  0.29866978869E+03  0.90594302112E+02 0.  0.
         11    1    3    3    0    0 -0.31971418067E+03 -0.91343622877E+00  0.83427934775E+03  0.89344279154E+03  0.00000000000E+00 0. -1.
        -11    1    3    3    0    0 -0.12460885698E+03  0.66474027400E+01  0.19761080222E+03  0.23371261061E+03  0.00000000000E+00 0.  1.
          1    1    5    5  502    0  0.62240847683E+03  0.46308243616E+02  0.27770746966E+03  0.68312385711E+03  0.00000000000E+00 0. -1.
          3    1    6    6  503    0 -0.12134480682E+03 -0.44876947402E+02 -0.55212000097E+02  0.14066580077E+03  0.00000000000E+00 0. -1.
         -1    1    5    5    0  502  0.23281721758E+02  0.14864582369E+02 -0.34487805384E+01  0.27836818500E+02  0.00000000000E+00 0.  1.
         -3    1    6    6    0  503 -0.80022354113E+02 -0.22029845095E+02 -0.13444838775E+03  0.15800398792E+03  0.00000000000E+00 0.  1.
<mgrwt>
<rscale>  0 0.18218966E+04</rscale>
<asrwt>0</asrwt>
<pdfrwt beam="1">  1        2 0.25025187E+00 0.18218966E+04</pdfrwt>
<pdfrwt beam="2">  1       -2 0.78484417E-01 0.18218966E+04</pdfrwt>
<totfact> 0.14653044E+01</totfact>
</mgrwt>
</event>
<event>
12    1  0.4403484E-008  0.3219012E+04  0.7818608E-02  0.8183814E-01
         -2   -1    0    0    0  501 -0.00000000000E+00  0.00000000000E+00  0.24279074700E+04  0.24279074700E+04  0.00000000000E+00 0.  1.
          2   -1    0    0  501    0  0.00000000000E+00 -0.00000000000E+00 -0.10669720929E+04  0.10669720929E+04  0.00000000000E+00 0. -1.
         23    2    1    2    0    0 -0.15757854877E+03 -0.22787840657E+03 -0.95291363038E+03  0.99660777856E+03  0.91777503334E+02 0.  0.
        254    2    1    2    0    0  0.15757854877E+03  0.22787840657E+03  0.23138490075E+04  0.24982717843E+04  0.90039164343E+03 0.  0.
         23    2    4    4    0    0  0.28197164340E+03 -0.27041537196E+03  0.12471375613E+04  0.13100463981E+04  0.90757850474E+02 0.  0.
         23    2    4    4    0    0 -0.12439309463E+03  0.49829377853E+03  0.10667114462E+04  0.11882253862E+04  0.10117275894E+03 0.  0.
         11    1    3    3    0    0 -0.12096940503E+03 -0.11877123151E+03 -0.67153979727E+03  0.69260804334E+03  0.00000000000E+00 0. -1.
        -11    1    3    3    0    0 -0.36609143733E+02 -0.10910717506E+03 -0.28137383311E+03  0.30399973522E+03  0.00000000000E+00 0.  1.
          1    1    5    5  502    0  0.55808115248E+02 -0.34518634455E+02  0.12350864071E+03  0.13985873653E+03  0.00000000000E+00 0. -1.
          1    1    6    6  503    0 -0.24357070633E+02  0.17384105331E+03  0.46957502647E+03  0.50131296033E+03  0.00000000000E+00 0. -1.
         -1    1    5    5    0  502  0.22616352815E+03 -0.23589673750E+03  0.11236289206E+04  0.11701876616E+04  0.00000000000E+00 0.  1.
         -1    1    6    6    0  503 -0.10003602400E+03  0.32445272522E+03  0.59713641973E+03  0.68691242584E+03  0.00000000000E+00 0.  1.
<mgrwt>
<rscale>  0 0.32190120E+04</rscale>
<asrwt>0</asrwt>
<pdfrwt beam="1">  1        2 0.16414955E+00 0.32190120E+04</pdfrwt>
<pdfrwt beam="2">  1       -2 0.37352423E+00 0.32190120E+04</pdfrwt>
<totfact> 0.21151395E-01</totfact>
</mgrwt>
</event>
<event>
12    1  0.4403484E-008  0.1467841E+04  0.7818608E-02  0.8906124E-01
          2   -1    0    0  501    0  0.00000000000E+00  0.00000000000E+00  0.85971936644E+03  0.85971936644E+03  0.00000000000E+00 0. -1.
         -2   -1    0    0    0  501 -0.00000000000E+00 -0.00000000000E+00 -0.62652937344E+03  0.62652937344E+03  0.00000000000E+00 0.  1.
         23    2    1    2    0    0 -0.46448735457E+03  0.13803732276E+03  0.99148515429E+02  0.50213361321E+03  0.86631012783E+02 0.  0.
        254    2    1    2    0    0  0.46448735457E+03 -0.13803732276E+03  0.13404147757E+03  0.98411512667E+03  0.84599802588E+03 0.  0.
         23    2    4    4    0    0  0.66993651448E+03 -0.20242505585E+03  0.21307570427E+03  0.73718536941E+03  0.90830481987E+02 0.  0.
         23    2    4    4    0    0 -0.20544915991E+03  0.64387733085E+02 -0.79034226702E+02  0.24692975726E+03  0.91502778921E+02 0.  0.
         11    1    3    3    0    0 -0.39918908507E+03  0.14886211840E+03  0.84427028990E+02  0.43432681146E+03  0.00000000000E+00 0.  1.
        -11    1    3    3    0    0 -0.65298269506E+02 -0.10824795637E+02  0.14721486439E+02  0.67806801754E+02  0.00000000000E+00 0. -1.
          4    1    5    5  502    0  0.23246843292E+03 -0.11067065123E+03  0.99234759723E+02  0.27592952521E+03  0.00000000000E+00 0. -1.
          1    1    6    6  503    0 -0.59745817202E+01  0.24976957334E+02  0.62605947326E+01  0.26433673048E+02  0.00000000000E+00 0. -1.
         -4    1    5    5    0  502  0.43746808156E+03 -0.91754404611E+02  0.11384094455E+03  0.46125584420E+03  0.00000000000E+00 0.  1.
         -1    1    6    6    0  503 -0.19947457819E+03  0.39410775752E+02 -0.85294821434E+02  0.22049608421E+03  0.00000000000E+00 0.  1.
<mgrwt>
<rscale>  0 0.14678412E+04</rscale>
<asrwt>0</asrwt>
<pdfrwt beam="1">  1        2 0.13226452E+00 0.14678412E+04</pdfrwt>
<pdfrwt beam="2">  1       -2 0.96389135E-01 0.14678412E+04</pdfrwt>
<totfact> 0.27269317E+01</totfact>
</mgrwt>
</event>
<event>
12    1  0.4403484E-008  0.1904293E+04  0.7818608E-02  0.8652723E-01
          2   -1    0    0  501    0  0.00000000000E+00  0.00000000000E+00  0.62785933291E+03  0.62785933291E+03  0.00000000000E+00 0. -1.
         -2   -1    0    0    0  501 -0.00000000000E+00 -0.00000000000E+00 -0.14439262888E+04  0.14439262888E+04  0.00000000000E+00 0.  1.
         23    2    1    2    0    0 -0.18873931164E+01  0.26125894179E+01 -0.11164521951E+04  0.11204966253E+04  0.95062061420E+02 0.  0.
        254    2    1    2    0    0  0.18873931164E+01 -0.26125894179E+01  0.30038523921E+03  0.95128899640E+03  0.90261236134E+03 0.  0.
         23    2    4    4    0    0 -0.33315553314E+03  0.25619630079E+03  0.11565839573E+02  0.43059986978E+03  0.93023251959E+02 0.  0.
         23    2    4    4    0    0  0.33504292626E+03 -0.25880889021E+03  0.28881939964E+03  0.52068912662E+03  0.92003896028E+02 0.  0.
         13    1    3    3    0    0 -0.26763015478E+02 -0.37819763092E+02 -0.64440506536E+03  0.64606848069E+03  0.00000000000E+00 0. -1.
        -13    1    3    3    0    0  0.24875622362E+02  0.40432352510E+02 -0.47204712976E+03  0.47442814465E+03  0.00000000000E+00 0.  1.
          4    1    5    5  502    0 -0.66648939401E+02  0.70743080501E+02 -0.33499134010E+02  0.10280494415E+03  0.00000000000E+00 0. -1.
          4    1    6    6  503    0  0.13687616493E+03 -0.73538130429E+02  0.14991576982E+03  0.21591127621E+03  0.00000000000E+00 0. -1.
         -4    1    5    5    0  502 -0.26650659374E+03  0.18545322029E+03  0.45064973584E+02  0.32779492563E+03  0.00000000000E+00 0.  1.
         -4    1    6    6    0  503  0.19816676133E+03 -0.18527075978E+03  0.13890362982E+03  0.30477785041E+03  0.00000000000E+00 0.  1.
<mgrwt>
<rscale>  0 0.19042926E+04</rscale>
<asrwt>0</asrwt>
<pdfrwt beam="1">  1        2 0.96593745E-01 0.19042926E+04</pdfrwt>
<pdfrwt beam="2">  1       -2 0.22214250E+00 0.19042926E+04</pdfrwt>
<totfact> 0.42062197E+00</totfact>
</mgrwt>
</event>
<event>
12    1  0.4403484E-008  0.1542230E+04  0.7818608E-02  0.8856846E-01
          1   -1    0    0  501    0  0.00000000000E+00  0.00000000000E+00  0.16886286686E+04  0.16886286686E+04  0.00000000000E+00 0. -1.
         -1   -1    0    0    0  501 -0.00000000000E+00 -0.00000000000E+00 -0.35213076512E+03  0.35213076512E+03  0.00000000000E+00 0.  1.
         23    2    1    2    0    0  0.40598061486E+03  0.70609498913E+02  0.81069210124E+03  0.91379948586E+03  0.89453095947E+02 0.  0.
        254    2    1    2    0    0 -0.40598061486E+03 -0.70609498913E+02  0.52580580221E+03  0.11269599478E+04  0.90761281468E+03 0.  0.
         23    2    4    4    0    0 -0.67051720581E+01 -0.75073347440E+02 -0.23520237951E+03  0.26269310436E+03  0.89479276502E+02 0.  0.
         23    2    4    4    0    0 -0.39927544280E+03  0.44638485267E+01  0.76100818172E+03  0.86426684345E+03  0.91558281283E+02 0.  0.
         13    1    3    3    0    0  0.16865832426E+03 -0.15133357576E+02  0.32507991129E+03  0.36654003543E+03  0.00000000000E+00 0. -1.
        -13    1    3    3    0    0  0.23732229060E+03  0.85742856489E+02  0.48561218995E+03  0.54725945043E+03  0.00000000000E+00 0.  1.
          2    1    5    5  502    0  0.10385147443E+02  0.16884216997E+02 -0.20571412947E+02  0.28567658316E+02  0.00000000000E+00 0. -1.
          1    1    6    6  503    0 -0.22605414126E+03 -0.19287415036E+02  0.34388670425E+03  0.41198367021E+03  0.00000000000E+00 0. -1.
         -2    1    5    5    0  502 -0.17090319501E+02 -0.91957564437E+02 -0.21463096657E+03  0.23412544605E+03  0.00000000000E+00 0.  1.
         -1    1    6    6    0  503 -0.17322130155E+03  0.23751263563E+02  0.41712147747E+03  0.45228317325E+03  0.00000000000E+00 0.  1.
<mgrwt>
<rscale>  0 0.15422297E+04</rscale>
<asrwt>0</asrwt>
<pdfrwt beam="1">  1        1 0.25978902E+00 0.15422297E+04</pdfrwt>
<pdfrwt beam="2">  1       -1 0.54173965E-01 0.15422297E+04</pdfrwt>
<totfact> 0.16094383E+01</totfact>
</mgrwt>
</event>
<event>
12    1  0.4403484E-008  0.1103187E+04  0.7818608E-02  0.9202091E-01
         -1   -1    0    0    0  501 -0.00000000000E+00  0.00000000000E+00  0.28007042679E+03  0.28007042679E+03  0.00000000000E+00 0.  1.
          1   -1    0    0  501    0  0.00000000000E+00 -0.00000000000E+00 -0.10863529085E+04  0.10863529085E+04  0.00000000000E+00 0. -1.
         23    2    1    2    0    0 -0.68312966577E+02 -0.33949658160E+02  0.53612395302E+02  0.13028899141E+03  0.91003800255E+02 0.  0.
        254    2    1    2    0    0  0.68312966577E+02  0.33949658160E+02 -0.85989487699E+03  0.12361343438E+04  0.88475401998E+03 0.  0.
         23    2    4    4    0    0  0.45313548196E+03  0.13405641906E+03 -0.45416410819E+03  0.66091070179E+03  0.85058979943E+02 0.  0.
         23    2    4    4    0    0 -0.38482251538E+03 -0.10010676090E+03 -0.40573076880E+03  0.57522364206E+03  0.90305313844E+02 0.  0.
         13    1    3    3    0    0  0.48933932615E+01  0.23862797741E+02  0.18617326359E+02  0.30659146341E+02  0.00000000000E+00 0. -1.
        -13    1    3    3    0    0 -0.73206359839E+02 -0.57812455901E+02  0.34995068944E+02  0.99629845069E+02  0.00000000000E+00 0.  1.
          1    1    5    5  502    0  0.15410967992E+03  0.69169446589E+02 -0.11631209910E+03  0.20509195543E+03  0.00000000000E+00 0. -1.
          3    1    6    6  503    0 -0.87425334997E+02 -0.53045055541E+02 -0.68224290728E+02  0.12292892647E+03  0.00000000000E+00 0. -1.
         -1    1    5    5    0  502  0.29902580204E+03  0.64886972470E+02 -0.33785200910E+03  0.45581874636E+03  0.00000000000E+00 0.  1.
         -3    1    6    6    0  503 -0.29739718039E+03 -0.47061705358E+02 -0.33750647807E+03  0.45229471559E+03  0.00000000000E+00 0.  1.
<mgrwt>
<rscale>  0 0.11031869E+04</rscale>
<asrwt>0</asrwt>
<pdfrwt beam="1">  1        1 0.16713122E+00 0.11031869E+04</pdfrwt>
<pdfrwt beam="2">  1       -1 0.43087758E-01 0.11031869E+04</pdfrwt>
<totfact> 0.68644402E+01</totfact>
</mgrwt>
</event>
<event>
12    1  0.4403484E-008  0.2476988E+04  0.7818608E-02  0.8411230E-01
         -2   -1    0    0    0  501 -0.00000000000E+00  0.00000000000E+00  0.13499315506E+04  0.13499315506E+04  0.00000000000E+00 0.  1.
          2   -1    0    0  501    0  0.00000000000E+00 -0.00000000000E+00 -0.11362559786E+04  0.11362559786E+04  0.00000000000E+00 0. -1.
         23    2    1    2    0    0  0.23046451014E+03  0.64574762570E+03  0.92086966050E+03  0.11517417142E+04  0.91674194998E+02 0.  0.
        254    2    1    2    0    0 -0.23046451014E+03 -0.64574762570E+03 -0.70719408847E+03  0.13344458150E+04  0.90028788053E+03 0.  0.
         23    2    4    4    0    0 -0.12720972775E+03  0.64641960584E+02  0.13929032085E+03  0.22084413294E+03  0.94918068207E+02 0.  0.
         23    2    4    4    0    0 -0.10325478239E+03 -0.71038958628E+03 -0.84648440932E+03  0.11136016820E+04  0.90873189837E+02 0.  0.
         11    1    3    3    0    0  0.16120296638E+03  0.54490179006E+03  0.73129796333E+03  0.92612151922E+03  0.00000000000E+00 0. -1.
        -11    1    3    3    0    0  0.69261543758E+02  0.10084583564E+03  0.18957169717E+03  0.22562019497E+03  0.00000000000E+00 0.  1.
          1    1    5    5  502    0 -0.54864290494E+01  0.46641648359E+02  0.26498171742E+02  0.53923069006E+02  0.00000000000E+00 0. -1.
          3    1    6    6  503    0 -0.82792090495E+02 -0.34107761345E+03 -0.36398967502E+03  0.50564508518E+03  0.00000000000E+00 0. -1.
         -1    1    5    5    0  502 -0.12172329870E+03  0.18000312225E+02  0.11279214910E+03  0.16692106394E+03  0.00000000000E+00 0.  1.
         -3    1    6    6    0  503 -0.20462691897E+02 -0.36931197283E+03 -0.48249473429E+03  0.60795659685E+03  0.00000000000E+00 0.  1.
<mgrwt>
<rscale>  0 0.24769883E+04</rscale>
<asrwt>0</asrwt>
<pdfrwt beam="1">  1        2 0.17480861E+00 0.24769883E+04</pdfrwt>
<pdfrwt beam="2">  1       -2 0.20768178E+00 0.24769883E+04</pdfrwt>
<totfact> 0.21917902E+00</totfact>
</mgrwt>
</event>
<event>
12    1  0.4403484E-008  0.1890852E+04  0.7818608E-02  0.8659423E-01
          1   -1    0    0  501    0  0.00000000000E+00  0.00000000000E+00  0.24079280959E+04  0.24079280959E+04  0.00000000000E+00 0. -1.
         -1   -1    0    0    0  501 -0.00000000000E+00 -0.00000000000E+00 -0.37120311199E+03  0.37120311199E+03  0.00000000000E+00 0.  1.
         23    2    1    2    0    0 -0.47269646689E+03  0.23711430603E+03  0.55281583848E+02  0.54007869654E+03  0.94677352180E+02 0.  0.
        254    2    1    2    0    0  0.47269646689E+03 -0.23711430603E+03  0.19814434001E+04  0.22390525114E+04  0.89865068686E+03 0.  0.
         23    2    4    4    0    0 -0.15256073977E+03 -0.43192263569E+02  0.36949033164E+02  0.18529535820E+03  0.88480437202E+02 0.  0.
         23    2    4    4    0    0  0.62525720666E+03 -0.19392204246E+03  0.19444943669E+04  0.20537571532E+04  0.91146959141E+02 0.  0.
         13    1    3    3    0    0 -0.30969178271E+03  0.12624901918E+03  0.72466175074E+02  0.34219754770E+03  0.00000000000E+00 0. -1.
        -13    1    3    3    0    0 -0.16300468418E+03  0.11086528685E+03 -0.17184591227E+02  0.19788114884E+03  0.00000000000E+00 0.  1.
          1    1    5    5  502    0 -0.12851683313E+03 -0.48374819204E+02 -0.41682493352E+01  0.13738294593E+03  0.00000000000E+00 0. -1.
          3    1    6    6  503    0  0.31102257996E+03 -0.11750908976E+03  0.11125880885E+04  0.11612044119E+04  0.00000000000E+00 0. -1.
         -1    1    5    5    0  502 -0.24043906648E+02  0.51825556347E+01  0.41117282499E+02  0.47912412274E+02  0.00000000000E+00 0.  1.
         -3    1    6    6    0  503  0.31423462670E+03 -0.76412952703E+02  0.83190627840E+03  0.89255274130E+03  0.00000000000E+00 0.  1.
<mgrwt>
<rscale>  0 0.18908521E+04</rscale>
<asrwt>0</asrwt>
<pdfrwt beam="1">  1        1 0.37045047E+00 0.18908521E+04</pdfrwt>
<pdfrwt beam="2">  1       -1 0.57108173E-01 0.18908521E+04</pdfrwt>
<totfact> 0.45632109E+00</totfact>
</mgrwt>
</event>
<event>
12    1  0.4403484E-008  0.2835817E+04  0.7818608E-02  0.8292234E-01
          2   -1    0    0  501    0  0.00000000000E+00  0.00000000000E+00  0.26294712627E+04  0.26294712627E+04  0.00000000000E+00 0. -1.
         -2   -1    0    0    0  501 -0.00000000000E+00 -0.00000000000E+00 -0.76458909630E+03  0.76458909630E+03  0.00000000000E+00 0.  1.
         23    2    1    2    0    0 -0.10767314995E+03  0.75715280959E+03  0.20599735724E+04  0.21997112989E+04  0.10180763828E+03 0.  0.
        254    2    1    2    0    0  0.10767314995E+03 -0.75715280959E+03 -0.19509140597E+03  0.11943490601E+04  0.89640121400E+03 0.  0.
         23    2    4    4    0    0  0.60261727229E+02 -0.12164192854E+03 -0.46743705205E+03  0.49533294900E+03  0.91810120295E+02 0.  0.
         23    2    4    4    0    0  0.47411422722E+02 -0.63551088105E+03  0.27234564608E+03  0.69901611113E+03  0.91265819117E+02 0.  0.
         13    1    3    3    0    0 -0.41450129463E+02  0.11924369485E+03  0.42845592687E+03  0.44666727355E+03  0.00000000000E+00 0.  1.
        -13    1    3    3    0    0 -0.66223020488E+02  0.63790911474E+03  0.16315176455E+04  0.17530440253E+04  0.00000000000E+00 0. -1.
          4    1    5    5  502    0  0.65466704029E+02 -0.32230476235E+02 -0.24179669745E+03  0.25256748768E+03  0.00000000000E+00 0. -1.
          3    1    6    6  503    0  0.67606532855E+02 -0.51179531036E+03  0.24143220522E+03  0.56990752996E+03  0.00000000000E+00 0. -1.
         -4    1    5    5    0  502 -0.52049768001E+01 -0.89411452301E+02 -0.22564035460E+03  0.24276546132E+03  0.00000000000E+00 0.  1.
         -3    1    6    6    0  503 -0.20195110133E+02 -0.12371557069E+03  0.30913440862E+02  0.12910858117E+03  0.00000000000E+00 0.  1.
<mgrwt>
<rscale>  0 0.28358174E+04</rscale>
<asrwt>0</asrwt>
<pdfrwt beam="1">  1        2 0.40453404E+00 0.28358174E+04</pdfrwt>
<pdfrwt beam="2">  1       -2 0.11762909E+00 0.28358174E+04</pdfrwt>
<totfact> 0.14148885E+00</totfact>
</mgrwt>
</event>
<event>
12    1  0.4403484E-008  0.1043753E+04  0.7818608E-02  0.9261817E-01
         -1   -1    0    0    0  501 -0.00000000000E+00  0.00000000000E+00  0.11157895567E+03  0.11157895567E+03  0.00000000000E+00 0.  1.
          1   -1    0    0  501    0  0.00000000000E+00 -0.00000000000E+00 -0.24409195027E+04  0.24409195027E+04  0.00000000000E+00 0. -1.
         23    2    1    2    0    0  0.52275795376E+02 -0.80752619398E+02 -0.24736333642E+03  0.28108691559E+03  0.92560734602E+02 0.  0.
        254    2    1    2    0    0 -0.52275795376E+02  0.80752619398E+02 -0.20819772106E+04  0.22714115428E+04  0.90301026950E+03 0.  0.
         23    2    4    4    0    0 -0.20270197409E+03 -0.24899338269E+03 -0.29570149337E+03  0.44640668282E+03  0.93561521820E+02 0.  0.
         23    2    4    4    0    0  0.15042617871E+03  0.32974600209E+03 -0.17862757173E+04  0.18250048600E+04  0.92202709873E+02 0.  0.
         11    1    3    3    0    0  0.32268447225E+02 -0.17372772675E+01 -0.15308677882E+03  0.15646032299E+03  0.00000000000E+00 0. -1.
        -11    1    3    3    0    0  0.20007348150E+02 -0.79015342131E+02 -0.94276557599E+02  0.12462659261E+03  0.00000000000E+00 0.  1.
          2    1    5    5  502    0 -0.16099332033E+03 -0.21740445330E+03 -0.19685661732E+03  0.33456848819E+03  0.00000000000E+00 0. -1.
          1    1    6    6  503    0  0.13593518726E+03  0.32827521079E+03 -0.16423593420E+04  0.16803532954E+04  0.00000000000E+00 0. -1.
         -2    1    5    5    0  502 -0.41708653758E+02 -0.31588929393E+02 -0.98844876048E+02  0.11183819464E+03  0.00000000000E+00 0.  1.
         -1    1    6    6    0  503  0.14490991449E+02  0.14707912974E+01 -0.14391637531E+03  0.14465156461E+03  0.00000000000E+00 0.  1.
<mgrwt>
<rscale>  0 0.10437533E+04</rscale>
<asrwt>0</asrwt>
<pdfrwt beam="1">  1        1 0.37552610E+00 0.10437533E+04</pdfrwt>
<pdfrwt beam="2">  1       -1 0.17165992E-01 0.10437533E+04</pdfrwt>
<totfact> 0.39648589E+01</totfact>
</mgrwt>
</event>
<event>
12    1  0.4403484E-008  0.1719969E+04  0.7818608E-02  0.8750057E-01
         -2   -1    0    0    0  501 -0.00000000000E+00  0.00000000000E+00  0.79363705566E+03  0.79363705566E+03  0.00000000000E+00 0.  1.
          2   -1    0    0  501    0  0.00000000000E+00 -0.00000000000E+00 -0.93187846574E+03  0.93187846574E+03  0.00000000000E+00 0. -1.
         23    2    1    2    0    0 -0.71972142987E+02 -0.82705478573E+02  0.56213293838E+03  0.58015612156E+03  0.92560787725E+02 0.  0.
        254    2    1    2    0    0  0.71972142987E+02  0.82705478573E+02 -0.70037434845E+03  0.11453593998E+04  0.89961310644E+03 0.  0.
         23    2    4    4    0    0 -0.27088653111E+03 -0.22971324708E+03 -0.52187264875E+03  0.63803094356E+03  0.92653843954E+02 0.  0.
         23    2    4    4    0    0  0.34285867410E+03  0.31241872565E+03 -0.17850169970E+03  0.50732845628E+03  0.10179280532E+03 0.  0.
         13    1    3    3    0    0 -0.84484905074E+02 -0.88762055323E+02  0.54206518300E+03  0.55574370376E+03  0.00000000000E+00 0.  1.
        -13    1    3    3    0    0  0.12512762087E+02  0.60565767493E+01  0.20067755381E+02  0.24412417803E+02  0.00000000000E+00 0. -1.
          2    1    5    5  502    0 -0.22674773673E+03 -0.22393062419E+03 -0.48446627721E+03  0.57988536308E+03  0.00000000000E+00 0. -1.
          1    1    6    6  503    0  0.10029132603E+03  0.11688050691E+03 -0.13067973437E+02  0.15456446844E+03  0.00000000000E+00 0. -1.
         -2    1    5    5    0  502 -0.44138794381E+02 -0.57826228852E+01 -0.37406371549E+02  0.58145580479E+02  0.00000000000E+00 0.  1.
         -1    1    6    6    0  503  0.24256734806E+03  0.19553821874E+03 -0.16543372626E+03  0.35276398784E+03  0.00000000000E+00 0.  1.
<mgrwt>
<rscale>  0 0.17199689E+04</rscale>
<asrwt>0</asrwt>
<pdfrwt beam="1">  1        2 0.14336592E+00 0.17199689E+04</pdfrwt>
<pdfrwt beam="2">  1       -2 0.12209801E+00 0.17199689E+04</pdfrwt>
<totfact> 0.13485264E+01</totfact>
</mgrwt>
</event>
<event>
12    1  0.4403484E-008  0.3085383E+04  0.7818608E-02  0.8219761E-01
          2   -1    0    0  501    0  0.00000000000E+00  0.00000000000E+00  0.26371835841E+04  0.26371835841E+04  0.00000000000E+00 0. -1.
         -2   -1    0    0    0  501 -0.00000000000E+00 -0.00000000000E+00 -0.90243880192E+03  0.90243880192E+03  0.00000000000E+00 0.  1.
         23    2    1    2    0    0 -0.10759793451E+03  0.12892556999E+04  0.14342584312E+04  0.19336810859E+04  0.90927000244E+02 0.  0.
        254    2    1    2    0    0  0.10759793451E+03 -0.12892556999E+04  0.30048635093E+03  0.16059413001E+04  0.90277230632E+03 0.  0.
         23    2    4    4    0    0  0.45653490025E+03 -0.94570898501E+03  0.67982289078E+02  0.10566403865E+04  0.95277045377E+02 0.  0.
         23    2    4    4    0    0 -0.34893696574E+03 -0.34354671485E+03  0.23250406185E+03  0.54930091353E+03  0.88836948854E+02 0.  0.
         11    1    3    3    0    0 -0.63886549012E+01  0.86190728207E+02  0.64787234949E+02  0.10801408405E+03  0.00000000000E+00 0. -1.
        -11    1    3    3    0    0 -0.10120927961E+03  0.12030649717E+04  0.13694711963E+04  0.18256670019E+04  0.00000000000E+00 0.  1.
          4    1    5    5  502    0  0.27920215239E+03 -0.56042450549E+03 -0.57202353966E+01  0.62614869587E+03  0.00000000000E+00 0. -1.
          1    1    6    6  503    0 -0.26834119597E+03 -0.30925596385E+03  0.20191380139E+03  0.45652539012E+03  0.00000000000E+00 0. -1.
         -4    1    5    5    0  502  0.17733274787E+03 -0.38528447952E+03  0.73702524475E+02  0.43049169067E+03  0.00000000000E+00 0.  1.
         -1    1    6    6    0  503 -0.80595769767E+02 -0.34290751002E+02  0.30590260456E+02  0.92775523407E+02  0.00000000000E+00 0.  1.
<mgrwt>
<rscale>  0 0.30853828E+04</rscale>
<asrwt>0</asrwt>
<pdfrwt beam="1">  1        2 0.40572055E+00 0.30853828E+04</pdfrwt>
<pdfrwt beam="2">  1       -2 0.13883674E+00 0.30853828E+04</pdfrwt>
<totfact> 0.90246201E-01</totfact>
</mgrwt>
</event>
<event>
12    1  0.4403484E-008  0.1975542E+04  0.7818608E-02  0.8618142E-01
          1   -1    0    0  501    0  0.00000000000E+00  0.00000000000E+00  0.26055800867E+04  0.26055800867E+04  0.00000000000E+00 0. -1.
         -1   -1    0    0    0  501 -0.00000000000E+00 -0.00000000000E+00 -0.37446236321E+03  0.37446236321E+03  0.00000000000E+00 0.  1.
         23    2    1    2    0    0 -0.17811558318E+03  0.17377115570E+03  0.20037478010E+04  0.20210366279E+04  0.87534139812E+02 0.  0.
        254    2    1    2    0    0  0.17811558318E+03 -0.17377115570E+03  0.22736992249E+03  0.95900582204E+03  0.89781596641E+03 0.  0.
         23    2    4    4    0    0  0.42746620410E+03  0.47155970098E+02 -0.13519501721E+03  0.45973440226E+03  0.90149801873E+02 0.  0.
         23    2    4    4    0    0 -0.24935062092E+03 -0.22092712580E+03  0.36256493969E+03  0.49927141978E+03  0.82668543297E+02 0.  0.
         11    1    3    3    0    0 -0.16104629793E+03  0.16457112498E+03  0.15637531985E+04  0.15806149535E+04  0.00000000000E+00 0. -1.
        -11    1    3    3    0    0 -0.17069285255E+02  0.92000307180E+01  0.43999460249E+03  0.44042167440E+03  0.00000000000E+00 0.  1.
          3    1    6    6  502    0 -0.14822673311E+03 -0.14972231016E+03  0.17145655346E+03  0.27163446816E+03  0.00000000000E+00 0. -1.
          3    1    5    5  503    0  0.39641520324E+03  0.53547911377E+02 -0.99918183053E+02  0.41230575484E+03  0.00000000000E+00 0. -1.
         -3    1    5    5    0  503  0.31051000865E+02 -0.63919412785E+01 -0.35276834154E+02  0.47428647418E+02  0.00000000000E+00 0.  1.
         -3    1    6    6    0  502 -0.10112388781E+03 -0.71204815639E+02  0.19110838623E+03  0.22763695162E+03  0.00000000000E+00 0.  1.
<mgrwt>
<rscale>  0 0.19755421E+04</rscale>
<asrwt>0</asrwt>
<pdfrwt beam="1">  1        1 0.40085846E+00 0.19755421E+04</pdfrwt>
<pdfrwt beam="2">  1       -1 0.57609596E-01 0.19755421E+04</pdfrwt>
<totfact> 0.32466529E+00</totfact>
</mgrwt>
</event>
<event>
12    1  0.4403484E-008  0.1728557E+04  0.7818608E-02  0.8745243E-01
          2   -1    0    0  501    0  0.00000000000E+00  0.00000000000E+00  0.21001930770E+04  0.21001930770E+04  0.00000000000E+00 0. -1.
         -2   -1    0    0    0  501 -0.00000000000E+00 -0.00000000000E+00 -0.35567069708E+03  0.35567069708E+03  0.00000000000E+00 0.  1.
         23    2    1    2    0    0  0.76846717442E+02 -0.33463656840E+03  0.13730961567E+04  0.14182632430E+04  0.90501491604E+02 0.  0.
        254    2    1    2    0    0 -0.76846717442E+02  0.33463656840E+03  0.37142622322E+03  0.10376005311E+04  0.90596378069E+03 0.  0.
         23    2    4    4    0    0 -0.75508633722E+02 -0.30090174238E+03  0.82760687965E+02  0.33379129228E+03  0.91235316589E+02 0.  0.
         23    2    4    4    0    0 -0.13380837200E+01  0.63553831079E+03  0.28866553526E+03  0.70380923880E+03  0.90049533243E+02 0.  0.
         11    1    3    3    0    0  0.90190138518E+02 -0.32119164366E+03  0.13297150763E+04  0.13709268825E+04  0.00000000000E+00 0. -1.
        -11    1    3    3    0    0 -0.13343421076E+02 -0.13444924744E+02  0.43381080433E+02  0.47336360516E+02  0.00000000000E+00 0.  1.
          4    1    6    6  502    0  0.30769388536E+02  0.54048513361E+03  0.23712281238E+03  0.59101452019E+03  0.00000000000E+00 0. -1.
          4    1    5    5  503    0 -0.58980101918E+02 -0.19025085537E+03  0.82161179382E+01  0.19935281534E+03  0.00000000000E+00 0. -1.
         -4    1    5    5    0  503 -0.16528531804E+02 -0.11065088701E+03  0.74544570026E+02  0.13443847694E+03  0.00000000000E+00 0.  1.
         -4    1    6    6    0  502 -0.32107472256E+02  0.95053177175E+02  0.51542722877E+02  0.11279471861E+03  0.00000000000E+00 0.  1.
<mgrwt>
<rscale>  0 0.17285568E+04</rscale>
<asrwt>0</asrwt>
<pdfrwt beam="1">  1        2 0.32310662E+00 0.17285568E+04</pdfrwt>
<pdfrwt beam="2">  1       -2 0.54718570E-01 0.17285568E+04</pdfrwt>
<totfact> 0.17529795E+01</totfact>
</mgrwt>
</event>
<event>
12    1  0.4403484E-008  0.2654754E+04  0.7818608E-02  0.8349837E-01
          1   -1    0    0  501    0  0.00000000000E+00  0.00000000000E+00  0.12140495152E+04  0.12140495152E+04  0.00000000000E+00 0. -1.
         -1   -1    0    0    0  501 -0.00000000000E+00 -0.00000000000E+00 -0.14512835124E+04  0.14512835124E+04  0.00000000000E+00 0.  1.
         23    2    1    2    0    0 -0.26169506844E+03 -0.85950025431E+03  0.65166731288E+03  0.11136315458E+04  0.90994159274E+02 0.  0.
        254    2    1    2    0    0  0.26169506844E+03  0.85950025431E+03 -0.88890131008E+03  0.15517014818E+04  0.90022605690E+03 0.  0.
         23    2    4    4    0    0  0.17591956759E+03 -0.12090330788E+03 -0.36671118653E+03  0.43378993323E+03  0.90173764086E+02 0.  0.
         23    2    4    4    0    0  0.85775500853E+02  0.98040356219E+03 -0.52219012354E+03  0.11179115486E+04  0.92168996793E+02 0.  0.
         13    1    3    3    0    0 -0.24262538213E+03 -0.73827079408E+03  0.59346223405E+03  0.97780788742E+03  0.00000000000E+00 0.  1.
        -13    1    3    3    0    0 -0.19069686306E+02 -0.12122946023E+03  0.58205078828E+02  0.13582365834E+03  0.00000000000E+00 0. -1.
          4    1    5    5  502    0  0.11047202972E+03 -0.99990630335E+02 -0.17336835413E+03  0.22860179728E+03  0.00000000000E+00 0.  1.
          3    1    6    6  503    0  0.71213988609E+02  0.63211254846E+03 -0.29022250482E+03  0.69919010892E+03  0.00000000000E+00 0. -1.
         -4    1    5    5    0  502  0.65447537868E+02 -0.20912677544E+02 -0.19334283240E+03  0.20518813595E+03  0.00000000000E+00 0. -1.
         -3    1    6    6    0  503  0.14561512244E+02  0.34829101373E+03 -0.23196761872E+03  0.41872143964E+03  0.00000000000E+00 0.  1.
<mgrwt>
<rscale>  0 0.26547543E+04</rscale>
<asrwt>0</asrwt>
<pdfrwt beam="1">  1        1 0.18677685E+00 0.26547543E+04</pdfrwt>
<pdfrwt beam="2">  1       -1 0.22327439E+00 0.26547543E+04</pdfrwt>
<totfact> 0.95719505E-01</totfact>
</mgrwt>
</event>
<event>
12    1  0.4403484E-008  0.2386915E+04  0.7818608E-02  0.8444419E-01
         -1   -1    0    0    0  501 -0.00000000000E+00  0.00000000000E+00  0.11940279644E+04  0.11940279644E+04  0.00000000000E+00 0.  1.
          1   -1    0    0  501    0  0.00000000000E+00 -0.00000000000E+00 -0.11928871471E+04  0.11928871471E+04  0.00000000000E+00 0. -1.
         23    2    1    2    0    0  0.27577670535E+02 -0.34849714421E+03 -0.95694506340E+03  0.10228604854E+04  0.91043565429E+02 0.  0.
        254    2    1    2    0    0 -0.27577670535E+02  0.34849714421E+03  0.95808588060E+03  0.13640546261E+04  0.90581768636E+03 0.  0.
         23    2    4    4    0    0  0.18228920036E+03 -0.14377336767E+03 -0.15334128688E+02  0.24957698732E+03  0.90296197490E+02 0.  0.
         23    2    4    4    0    0 -0.20986687089E+03  0.49227051188E+03  0.97342000929E+03  0.11144776388E+04  0.90219357521E+02 0.  0.
         13    1    3    3    0    0 -0.21860544448E+02 -0.34858067871E+02 -0.15442008933E+03  0.15980779796E+03  0.00000000000E+00 0.  1.
        -13    1    3    3    0    0  0.49438214983E+02 -0.31363907634E+03 -0.80252497407E+03  0.86305268745E+03  0.00000000000E+00 0. -1.
          2    1    5    5  502    0  0.18533052066E+03 -0.15175374076E+03 -0.10501486671E+02  0.23976421948E+03  0.00000000000E+00 0.  1.
          1    1    6    6  503    0 -0.48888239165E+02  0.21265466348E+03  0.34830260847E+03  0.41100702293E+03  0.00000000000E+00 0. -1.
         -2    1    5    5    0  502 -0.30413203059E+01  0.79803730866E+01 -0.48326420170E+01  0.98127678393E+01  0.00000000000E+00 0. -1.
         -1    1    6    6    0  503 -0.16097863173E+03  0.27961584840E+03  0.62511740082E+03  0.70347061585E+03  0.00000000000E+00 0.  1.
<mgrwt>
<rscale>  0 0.23869148E+04</rscale>
<asrwt>0</asrwt>
<pdfrwt beam="1">  1        1 0.18352110E+00 0.23869148E+04</pdfrwt>
<pdfrwt beam="2">  1       -1 0.18369661E+00 0.23869148E+04</pdfrwt>
<totfact> 0.18998742E+00</totfact>
</mgrwt>
</event>
<event>
12    1  0.4581574E-008  0.2646175E+04  0.7818608E-02  0.8352684E-01
         -1   -1    0    0    0  501 -0.00000000000E+00  0.00000000000E+00  0.74486945008E+03  0.74486945008E+03  0.00000000000E+00 0.  1.
          1   -1    0    0  501    0  0.00000000000E+00 -0.00000000000E+00 -0.23501566345E+04  0.23501566345E+04  0.00000000000E+00 0. -1.
         23    2    1    2    0    0 -0.86041419329E+02 -0.66411508272E+03 -0.18340989325E+04  0.19547570640E+04  0.93296923489E+02 0.  0.
        254    2    1    2    0    0  0.86041419329E+02  0.66411508272E+03  0.22881174808E+03  0.11402690206E+04  0.89409543922E+03 0.  0.
         23    2    4    4    0    0  0.43640766146E+03  0.24293139217E+03  0.28541002299E+03  0.58185321297E+03  0.87332536541E+02 0.  0.
         23    2    4    4    0    0 -0.35036624213E+03  0.42118369054E+03 -0.56598274905E+02  0.55841580766E+03  0.92046970203E+02 0.  0.
         11    1    3    3    0    0  0.89003376202E+01 -0.10944153819E+03 -0.38066708682E+03  0.39618694739E+03  0.00000000000E+00 0.  1.
        -11    1    3    3    0    0 -0.94941756949E+02 -0.55467354452E+03 -0.14534318457E+04  0.15585701166E+04  0.00000000000E+00 0. -1.
          3    1    6    6  502    0 -0.27772847015E+03  0.34606925756E+03 -0.81122375395E+02  0.45108521806E+03  0.00000000000E+00 0. -1.
          3    1    5    5  503    0  0.35748461827E+03  0.21516313629E+03  0.26943953038E+03  0.49667704602E+03  0.00000000000E+00 0. -1.
         -3    1    5    5    0  503  0.78923043193E+02  0.27768255884E+02  0.15970492607E+02  0.85176166947E+02  0.00000000000E+00 0.  1.
         -3    1    6    6    0  502 -0.72637771981E+02  0.75114432981E+02  0.24524100490E+02  0.10733058961E+03  0.00000000000E+00 0.  1.
<mgrwt>
<rscale>  0 0.26461745E+04</rscale>
<asrwt>0</asrwt>
<pdfrwt beam="1">  1        1 0.36156256E+00 0.26461745E+04</pdfrwt>
<pdfrwt beam="2">  1       -1 0.11459530E+00 0.26461745E+04</pdfrwt>
<totfact> 0.10436757E+00</totfact>
</mgrwt>
</event>
<event>
12    1  0.4403484E-008  0.1773182E+04  0.7818608E-02  0.8720692E-01
          1   -1    0    0  501    0  0.00000000000E+00  0.00000000000E+00  0.92978661822E+03  0.92978661822E+03  0.00000000000E+00 0.  1.
         -1   -1    0    0    0  501 -0.00000000000E+00 -0.00000000000E+00 -0.84540225717E+03  0.84540225717E+03  0.00000000000E+00 0. -1.
         23    2    1    2    0    0 -0.25990186858E+03 -0.20066390657E+03 -0.43853625132E+03  0.55758902918E+03  0.10380990824E+03 0.  0.
        254    2    1    2    0    0  0.25990186858E+03  0.20066390657E+03  0.52292061237E+03  0.12175998462E+04  0.10494229052E+04 0.  0.
         23    2    4    4    0    0  0.62107157524E+03 -0.60182267455E+02  0.39840270291E+03  0.74592522352E+03  0.91257429837E+02 0.  0.
         23    2    4    4    0    0 -0.36116970666E+03  0.26084617402E+03  0.12451790946E+03  0.47167462269E+03  0.92130105864E+02 0.  0.
         13    1    3    3    0    0 -0.15476059856E+03 -0.15869016516E+03 -0.22469008833E+03  0.31562485196E+03  0.00000000000E+00 0. -1.
        -13    1    3    3    0    0 -0.10514127003E+03 -0.41973741411E+02 -0.21384616299E+03  0.24196417722E+03  0.00000000000E+00 0.  1.
          2    1    5    5  502    0  0.33003331384E+03 -0.43902507393E+02  0.16017181202E+03  0.36946505622E+03  0.00000000000E+00 0. -1.
          4    1    6    6  503    0 -0.30423116796E+03  0.23383546408E+03  0.13698735560E+03  0.40743240349E+03  0.00000000000E+00 0. -1.
         -2    1    5    5    0  502  0.29103826140E+03 -0.16279760061E+02  0.23823089089E+03  0.37646016730E+03  0.00000000000E+00 0.  1.
         -4    1    6    6    0  503 -0.56938538697E+02  0.27010709946E+02 -0.12469446146E+02  0.64242219202E+02  0.00000000000E+00 0.  1.
<mgrwt>
<rscale>  0 0.17731821E+04</rscale>
<asrwt>0</asrwt>
<pdfrwt beam="1">  1        1 0.14304410E+00 0.17731821E+04</pdfrwt>
<pdfrwt beam="2">  1       -1 0.13006189E+00 0.17731821E+04</pdfrwt>
<totfact> 0.82447221E+00</totfact>
</mgrwt>
</event>
<event>
12    1  0.4403484E-008  0.1790341E+04  0.7818608E-02  0.8711453E-01
         -2   -1    0    0    0  501 -0.00000000000E+00  0.00000000000E+00  0.27866509978E+03  0.27866509978E+03  0.00000000000E+00 0.  1.
          2   -1    0    0  501    0  0.00000000000E+00 -0.00000000000E+00 -0.28756038196E+04  0.28756038196E+04  0.00000000000E+00 0. -1.
         23    2    1    2    0    0 -0.54803801050E+03 -0.36120002580E+03 -0.10170417841E+04  0.12138095155E+04  0.90268652755E+02 0.  0.
        254    2    1    2    0    0  0.54803801050E+03  0.36120002580E+03 -0.15798969358E+04  0.19404594039E+04  0.91569495530E+03 0.  0.
         23    2    4    4    0    0  0.20199955743E+03  0.59730726814E+03 -0.62224963076E+03  0.89082383943E+03  0.93769484055E+02 0.  0.
         23    2    4    4    0    0  0.34603845307E+03 -0.23610724235E+03 -0.95764730499E+03  0.10496355645E+04  0.95693346880E+02 0.  0.
         11    1    3    3    0    0 -0.13272460645E+02 -0.44731892624E+01 -0.55068315762E+02  0.56821536715E+02  0.00000000000E+00 0. -1.
        -11    1    3    3    0    0 -0.53476554985E+03 -0.35672683653E+03 -0.96197346831E+03  0.11569879787E+04  0.00000000000E+00 0.  1.
          1    1    5    5  502    0  0.13708628213E+03  0.36046633379E+03 -0.31815055368E+03  0.49994839869E+03  0.00000000000E+00 0. -1.
          3    1    6    6  503    0  0.22086670761E+03 -0.11447624402E+03 -0.64920158292E+03  0.69523349189E+03  0.00000000000E+00 0. -1.
         -1    1    5    5    0  502  0.64913275299E+02  0.23684093435E+03 -0.30409907708E+03  0.39087544074E+03  0.00000000000E+00 0.  1.
         -3    1    6    6    0  503  0.12517174546E+03 -0.12163099833E+03 -0.30844572207E+03  0.35440207262E+03  0.00000000000E+00 0.  1.
<mgrwt>
<rscale>  0 0.17903412E+04</rscale>
<asrwt>0</asrwt>
<pdfrwt beam="1">  1        2 0.44240058E+00 0.17903412E+04</pdfrwt>
<pdfrwt beam="2">  1       -2 0.42871554E-01 0.17903412E+04</pdfrwt>
<totfact> 0.10166806E+01</totfact>
</mgrwt>
</event>
<event>
12    1  0.4403484E-008  0.1242159E+04  0.7818608E-02  0.9076735E-01
          2   -1    0    0  501    0  0.00000000000E+00  0.00000000000E+00  0.91792722202E+03  0.91792722202E+03  0.00000000000E+00 0. -1.
         -2   -1    0    0    0  501 -0.00000000000E+00 -0.00000000000E+00 -0.42022917139E+03  0.42022917139E+03  0.00000000000E+00 0.  1.
         23    2    1    2    0    0  0.14233937167E+03 -0.67137185385E+02 -0.18379532733E+03  0.25853110645E+03  0.91047857011E+02 0.  0.
        254    2    1    2    0    0 -0.14233937167E+03  0.67137185385E+02  0.68149337796E+03  0.10796252870E+04  0.82242910799E+03 0.  0.
         23    2    4    4    0    0 -0.17225031950E+03  0.25132996414E+02 -0.14562402837E+03  0.24576545860E+03  0.94299856434E+02 0.  0.
         23    2    4    4    0    0  0.29910947833E+02  0.42004188971E+02  0.82711740633E+03  0.83385982837E+03  0.92412081561E+02 0.  0.
         11    1    3    3    0    0  0.12048785720E+03 -0.12016351247E+02 -0.13814121500E+03  0.18369733725E+03  0.00000000000E+00 0.  1.
        -11    1    3    3    0    0  0.21851514465E+02 -0.55120834138E+02 -0.45654112332E+02  0.74833769205E+02  0.00000000000E+00 0. -1.
          2    1    6    6  502    0  0.53459141676E+02  0.10298202979E+02  0.27533419105E+03  0.28066501310E+03  0.00000000000E+00 0. -1.
          2    1    5    5  503    0 -0.54260738634E+02  0.43932111567E+02 -0.90188170705E+02  0.11405333980E+03  0.00000000000E+00 0.  1.
         -2    1    5    5    0  503 -0.11798958086E+03 -0.18799115153E+02 -0.55435857668E+02  0.13171211880E+03  0.00000000000E+00 0. -1.
         -2    1    6    6    0  502 -0.23548193843E+02  0.31705985992E+02  0.55178321528E+03  0.55319481528E+03  0.00000000000E+00 0.  1.
<mgrwt>
<rscale>  0 0.12421591E+04</rscale>
<asrwt>0</asrwt>
<pdfrwt beam="1">  1        2 0.14121957E+00 0.12421591E+04</pdfrwt>
<pdfrwt beam="2">  1       -2 0.64650642E-01 0.12421591E+04</pdfrwt>
<totfact> 0.61992308E+01</totfact>
</mgrwt>
</event>
<event>
12    1  0.4403484E-008  0.2147862E+04  0.7818608E-02  0.8540448E-01
          2   -1    0    0  501    0  0.00000000000E+00  0.00000000000E+00  0.96795000228E+03  0.96795000228E+03  0.00000000000E+00 0.  1.
         -2   -1    0    0    0  501 -0.00000000000E+00 -0.00000000000E+00 -0.11915158430E+04  0.11915158430E+04  0.00000000000E+00 0. -1.
         23    2    1    2    0    0 -0.55078210101E+03  0.45961404910E+03  0.42800814418E+03  0.84026781265E+03  0.90846180810E+02 0.  0.
        254    2    1    2    0    0  0.55078210101E+03 -0.45961404910E+03 -0.65157398485E+03  0.13191980326E+04  0.89505798388E+03 0.  0.
         23    2    4    4    0    0 -0.18431831751E+03 -0.29744403118E+03 -0.35017320901E+03  0.50339117738E+03  0.91297356466E+02 0.  0.
         23    2    4    4    0    0  0.73510041852E+03 -0.16217001792E+03 -0.30140077584E+03  0.81580685521E+03  0.89591613984E+02 0.  0.
         11    1    3    3    0    0 -0.49862897698E+03  0.42286414235E+03  0.35739655759E+03  0.74510216678E+03  0.00000000000E+00 0.  1.
        -11    1    3    3    0    0 -0.52153124031E+02  0.36749906752E+02  0.70611586592E+02  0.95165645868E+02  0.00000000000E+00 0. -1.
          2    1    5    5  502    0 -0.84367230490E+02 -0.82661277229E+02 -0.16391951978E+03  0.20204040511E+03  0.00000000000E+00 0. -1.
          1    1    6    6  503    0  0.45877444065E+02 -0.25247760722E+02 -0.32134971608E+01  0.52464424703E+02  0.00000000000E+00 0. -1.
         -2    1    5    5    0  502 -0.99951087023E+02 -0.21478275395E+03 -0.18625368923E+03  0.30135077226E+03  0.00000000000E+00 0.  1.
         -1    1    6    6    0  503  0.68922297446E+03 -0.13692225720E+03 -0.29818727868E+03  0.76334243050E+03  0.00000000000E+00 0.  1.
<mgrwt>
<rscale>  0 0.21478620E+04</rscale>
<asrwt>0</asrwt>
<pdfrwt beam="1">  1        2 0.14891538E+00 0.21478620E+04</pdfrwt>
<pdfrwt beam="2">  1       -2 0.18331013E+00 0.21478620E+04</pdfrwt>
<totfact> 0.41723805E+00</totfact>
</mgrwt>
</event>
<event>
12    1  0.4403484E-008  0.3576990E+04  0.7818608E-02  0.8095783E-01
          2   -1    0    0  501    0  0.00000000000E+00  0.00000000000E+00  0.15084246503E+04  0.15084246503E+04  0.00000000000E+00 0. -1.
         -2   -1    0    0    0  501 -0.00000000000E+00 -0.00000000000E+00 -0.21205665657E+04  0.21205665657E+04  0.00000000000E+00 0.  1.
         23    2    1    2    0    0 -0.24076339221E+02  0.96877000053E+03  0.10953532854E+04  0.14654339096E+04  0.92750954162E+02 0.  0.
        254    2    1    2    0    0  0.24076339221E+02 -0.96877000053E+03 -0.17074952007E+04  0.21635573064E+04  0.90903540829E+03 0.  0.
         23    2    4    4    0    0 -0.42226137017E+03 -0.58444418020E+03 -0.83223990966E+03  0.11045890875E+04  0.87258927428E+02 0.  0.
         23    2    4    4    0    0  0.44633770939E+03 -0.38432582033E+03 -0.87525529107E+03  0.10589682189E+04  0.91750624891E+02 0.  0.
         13    1    3    3    0    0  0.29904593634E+02  0.32988859647E+03  0.40650756940E+03  0.52437503257E+03  0.00000000000E+00 0. -1.
        -13    1    3    3    0    0 -0.53980932855E+02  0.63888140406E+03  0.68884571596E+03  0.94105887699E+03  0.00000000000E+00 0.  1.
          1    1    5    5  502    0 -0.14278867716E+03 -0.27088374486E+03 -0.34488136972E+03  0.46120469288E+03  0.00000000000E+00 0. -1.
          3    1    6    6  503    0  0.18375465838E+02 -0.48077526524E+02 -0.86719565345E+02  0.10084339004E+03  0.00000000000E+00 0. -1.
         -1    1    5    5    0  502 -0.27947269301E+03 -0.31356043534E+03 -0.48735853994E+03  0.64338439459E+03  0.00000000000E+00 0.  1.
         -3    1    6    6    0  503  0.42796224355E+03 -0.33624829381E+03 -0.78853572572E+03  0.95812482889E+03  0.00000000000E+00 0.  1.
<mgrwt>
<rscale>  0 0.35769903E+04</rscale>
<asrwt>0</asrwt>
<pdfrwt beam="1">  1        2 0.23206533E+00 0.35769903E+04</pdfrwt>
<pdfrwt beam="2">  1       -2 0.32624101E+00 0.35769903E+04</pdfrwt>
<totfact> 0.22452676E-01</totfact>
</mgrwt>
</event>
<event>
12    1  0.7328145E-008  0.1639516E+04  0.7818608E-02  0.8796633E-01
          1   -1    0    0  501    0  0.00000000000E+00  0.00000000000E+00  0.14321176472E+04  0.14321176472E+04  0.00000000000E+00 0. -1.
         -1   -1    0    0    0  501 -0.00000000000E+00 -0.00000000000E+00 -0.46923738937E+03  0.46923738937E+03  0.00000000000E+00 0.  1.
         23    2    1    2    0    0  0.71565206731E+02 -0.17346819835E+03 -0.29177938445E+03  0.35528788711E+03  0.76690800500E+02 0.  0.
        254    2    1    2    0    0 -0.71565206731E+02  0.17346819835E+03  0.12546596423E+04  0.15460671495E+04  0.88370810679E+03 0.  0.
         23    2    4    4    0    0 -0.23785264417E+03  0.41211033558E+03  0.11035116201E+04  0.12051805954E+04  0.91178740290E+02 0.  0.
         23    2    4    4    0    0  0.16628743744E+03 -0.23864213723E+03  0.15114802213E+03  0.34088655406E+03  0.93575299271E+02 0.  0.
         11    1    3    3    0    0 -0.12046433211E+02 -0.14990225238E+02 -0.10851244449E+02  0.22081053233E+02  0.00000000000E+00 0. -1.
        -11    1    3    3    0    0  0.83611639942E+02 -0.15847797311E+03 -0.28092814000E+03  0.33320683387E+03  0.00000000000E+00 0.  1.
          2    1    6    6  502    0  0.31416212764E+02 -0.80811701101E+01  0.40183995306E+02  0.51643365630E+02  0.00000000000E+00 0. -1.
          2    1    5    5  503    0 -0.14812438104E+02  0.66554370210E+01  0.13899455394E+02  0.21375173094E+02  0.00000000000E+00 0. -1.
         -2    1    5    5    0  503 -0.22304020607E+03  0.40545489856E+03  0.10896121647E+04  0.11838054223E+04  0.00000000000E+00 0.  1.
         -2    1    6    6    0  502  0.13487122468E+03 -0.23056096712E+03  0.11096402682E+03  0.28924318843E+03  0.00000000000E+00 0.  1.
<mgrwt>
<rscale>  0 0.16395160E+04</rscale>
<asrwt>0</asrwt>
<pdfrwt beam="1">  1        1 0.22032579E+00 0.16395160E+04</pdfrwt>
<pdfrwt beam="2">  1       -1 0.72190368E-01 0.16395160E+04</pdfrwt>
<totfact> 0.13506200E+01</totfact>
</mgrwt>
</event>
<event>
12    1  0.4403484E-008  0.2468523E+04  0.7818608E-02  0.8414286E-01
          2   -1    0    0  501    0  0.00000000000E+00  0.00000000000E+00  0.81786762271E+03  0.81786762271E+03  0.00000000000E+00 0. -1.
         -2   -1    0    0    0  501 -0.00000000000E+00 -0.00000000000E+00 -0.18626497934E+04  0.18626497934E+04  0.00000000000E+00 0.  1.
         23    2    1    2    0    0 -0.23006666107E+03  0.18371857013E+03  0.65927850419E+03  0.72793033164E+03  0.92472915445E+02 0.  0.
        254    2    1    2    0    0  0.23006666107E+03 -0.18371857013E+03 -0.17040606748E+04  0.19525870844E+04  0.90669198584E+03 0.  0.
         23    2    4    4    0    0  0.17764433147E+03 -0.54041712906E+03 -0.94248602074E+03  0.11050481136E+04  0.96141833442E+02 0.  0.
         23    2    4    4    0    0  0.52422329599E+02  0.35669855893E+03 -0.76157465410E+03  0.84753897085E+03  0.91347636924E+02 0.  0.
         13    1    3    3    0    0 -0.18311590824E+02  0.60642888591E+02  0.12229750500E+03  0.13773000408E+03  0.00000000000E+00 0.  1.
        -13    1    3    3    0    0 -0.21175507024E+03  0.12307568154E+03  0.53698099919E+03  0.59020032756E+03  0.00000000000E+00 0. -1.
          2    1    5    5  502    0  0.11054231183E+03 -0.44555206622E+03 -0.71665330872E+03  0.85107473897E+03  0.00000000000E+00 0. -1.
          4    1    6    6  503    0  0.33276594903E+02  0.25418035667E+03 -0.43721432596E+03  0.50682477475E+03  0.00000000000E+00 0. -1.
         -2    1    5    5    0  502  0.67102019643E+02 -0.94865062833E+02 -0.22583271202E+03  0.25397337460E+03  0.00000000000E+00 0.  1.
         -4    1    6    6    0  503  0.19145734696E+02  0.10251820226E+03 -0.32436032814E+03  0.34071419610E+03  0.00000000000E+00 0.  1.
<mgrwt>
<rscale>  0 0.24685226E+04</rscale>
<asrwt>0</asrwt>
<pdfrwt beam="1">  1        2 0.12582579E+00 0.24685226E+04</pdfrwt>
<pdfrwt beam="2">  1       -2 0.28656150E+00 0.24685226E+04</pdfrwt>
<totfact> 0.11484912E+00</totfact>
</mgrwt>
</event>
<event>
12    1  0.4403484E-008  0.1827318E+04  0.7818608E-02  0.8691906E-01
          1   -1    0    0  501    0  0.00000000000E+00  0.00000000000E+00  0.17553714080E+04  0.17553714080E+04  0.00000000000E+00 0. -1.
         -1   -1    0    0    0  501 -0.00000000000E+00 -0.00000000000E+00 -0.47555311529E+03  0.47555311529E+03  0.00000000000E+00 0.  1.
         23    2    1    2    0    0 -0.37882818612E+03  0.38503043696E+03  0.45099617650E+02  0.54973301598E+03  0.91723395977E+02 0.  0.
        254    2    1    2    0    0  0.37882818612E+03 -0.38503043696E+03  0.12347186750E+04  0.16811915073E+04  0.10050449968E+04 0.  0.
         23    2    4    4    0    0  0.23155882935E+03  0.31964137829E+03  0.55573040587E+03  0.68758700832E+03  0.90274624542E+02 0.  0.
         23    2    4    4    0    0  0.14726935677E+03 -0.70467181525E+03  0.67898826916E+03  0.99360449896E+03  0.89298376484E+02 0.  0.
         13    1    3    3    0    0 -0.30447002065E+03  0.35397190631E+03  0.45822711713E+02  0.46914584602E+03  0.00000000000E+00 0.  1.
        -13    1    3    3    0    0 -0.74358165463E+02  0.31058530650E+02 -0.72309406336E+00  0.80587169960E+02  0.00000000000E+00 0. -1.
          1    1    5    5  502    0  0.58929443377E+02  0.15694074231E+03  0.22555428287E+03  0.28102991018E+03  0.00000000000E+00 0. -1.
          1    1    6    6  503    0  0.45942348199E+02 -0.10515877249E+03  0.78431382263E+02  0.13899837594E+03  0.00000000000E+00 0. -1.
         -1    1    5    5    0  502  0.17262938597E+03  0.16270063598E+03  0.33017612300E+03  0.40655709814E+03  0.00000000000E+00 0.  1.
         -1    1    6    6    0  503  0.10132700857E+03 -0.59951304276E+03  0.60055688689E+03  0.85460612302E+03  0.00000000000E+00 0.  1.
<mgrwt>
<rscale>  0 0.18273175E+04</rscale>
<asrwt>0</asrwt>
<pdfrwt beam="1">  1        1 0.27005714E+00 0.18273175E+04</pdfrwt>
<pdfrwt beam="2">  1       -1 0.73162019E-01 0.18273175E+04</pdfrwt>
<totfact> 0.77444320E+00</totfact>
</mgrwt>
</event>
<event>
12    1  0.4403484E-008  0.4355943E+04  0.7818608E-02  0.7936354E-01
         -1   -1    0    0    0  501 -0.00000000000E+00  0.00000000000E+00  0.27299344375E+04  0.27299344375E+04  0.00000000000E+00 0.  1.
          1   -1    0    0  501    0  0.00000000000E+00 -0.00000000000E+00 -0.17376091318E+04  0.17376091318E+04  0.00000000000E+00 0. -1.
         23    2    1    2    0    0  0.11606885777E+04 -0.15220906819E+04 -0.36899531122E+03  0.19514913484E+04  0.90570000001E+02 0.  0.
        254    2    1    2    0    0 -0.11606885777E+04  0.15220906819E+04  0.13613206169E+04  0.25160522210E+04  0.90186858146E+03 0.  0.
         23    2    4    4    0    0  0.10240935095E+03  0.16710606125E+02  0.15670783989E+03  0.20930176650E+03  0.92103001368E+02 0.  0.
         23    2    4    4    0    0 -0.12630979286E+04  0.15053800758E+04  0.12046127771E+04  0.23067504545E+04  0.91761466079E+02 0.  0.
         13    1    3    3    0    0  0.29238969435E+03 -0.41261589949E+03 -0.61161758522E+02  0.50939608811E+03  0.00000000000E+00 0. -1.
        -13    1    3    3    0    0  0.86829888331E+03 -0.11094747824E+04 -0.30783355270E+03  0.14420952603E+04  0.00000000000E+00 0.  1.
          2    1    5    5  502    0  0.95372783522E+02 -0.13147173887E+02  0.75046235767E+02  0.12206864266E+03  0.00000000000E+00 0. -1.
          1    1    6    6  503    0 -0.76639845991E+03  0.95482715537E+03  0.79181671757E+03  0.14580930046E+04  0.00000000000E+00 0. -1.
         -2    1    5    5    0  502  0.70365674275E+01  0.29857780011E+02  0.81661604119E+02  0.87233123845E+02  0.00000000000E+00 0.  1.
         -1    1    6    6    0  503 -0.49669946870E+03  0.55055292044E+03  0.41279605948E+03  0.84865744982E+03  0.00000000000E+00 0.  1.
<mgrwt>
<rscale>  0 0.43559426E+04</rscale>
<asrwt>0</asrwt>
<pdfrwt beam="1">  1        1 0.26732448E+00 0.43559426E+04</pdfrwt>
<pdfrwt beam="2">  1       -1 0.41998991E+00 0.43559426E+04</pdfrwt>
<totfact> 0.17808719E-02</totfact>
</mgrwt>
</event>
<event>
12    1  0.4403484E-008  0.1383260E+04  0.7818608E-02  0.8966026E-01
          2   -1    0    0  501    0  0.00000000000E+00  0.00000000000E+00  0.25774431502E+04  0.25774431502E+04  0.00000000000E+00 0. -1.
         -2   -1    0    0    0  501 -0.00000000000E+00 -0.00000000000E+00 -0.18559157704E+03  0.18559157704E+03  0.00000000000E+00 0.  1.
         23    2    1    2    0    0 -0.12701564930E+03  0.26930750267E+02  0.14563779400E+04  0.14649664945E+04  0.90729737409E+02 0.  0.
        254    2    1    2    0    0  0.12701564930E+03 -0.26930750267E+02  0.93547363308E+03  0.12980682327E+04  0.89051219988E+03 0.  0.
         23    2    4    4    0    0 -0.70772649783E+02 -0.25935041037E+03  0.93982224022E+03  0.98166966260E+03  0.90211307209E+02 0.  0.
         23    2    4    4    0    0  0.19778829909E+03  0.23241966010E+03 -0.43486071393E+01  0.31639857012E+03  0.83366870704E+02 0.  0.
         11    1    3    3    0    0 -0.23604542618E+02 -0.13754178307E+02  0.89450240746E+02  0.93529126066E+02  0.00000000000E+00 0.  1.
        -11    1    3    3    0    0 -0.10341110668E+03  0.40684928574E+02  0.13669276993E+04  0.13714373684E+04  0.00000000000E+00 0. -1.
          1    1    5    5  502    0  0.12241633737E+02 -0.12090146013E+01  0.35687988857E+02  0.37748534561E+02  0.00000000000E+00 0. -1.
          1    1    6    6  503    0  0.10579677799E+02  0.51819244230E+02 -0.18135622384E+02  0.55911219394E+02  0.00000000000E+00 0. -1.
         -1    1    5    5    0  502 -0.83014283520E+02 -0.25814139577E+03  0.90413425136E+03  0.94392112804E+03  0.00000000000E+00 0.  1.
         -1    1    6    6    0  503  0.18720862129E+03  0.18060041587E+03  0.13787015245E+02  0.26048735072E+03  0.00000000000E+00 0.  1.
<mgrwt>
<rscale>  0 0.13832595E+04</rscale>
<asrwt>0</asrwt>
<pdfrwt beam="1">  1        2 0.39652969E+00 0.13832595E+04</pdfrwt>
<pdfrwt beam="2">  1       -2 0.28552552E-01 0.13832595E+04</pdfrwt>
<totfact> 0.34530333E+01</totfact>
</mgrwt>
</event>
<event>
12    1  0.4403484E-008  0.1996883E+04  0.7818608E-02  0.8608079E-01
          1   -1    0    0  501    0  0.00000000000E+00  0.00000000000E+00  0.16542133811E+04  0.16542133811E+04  0.00000000000E+00 0. -1.
         -1   -1    0    0    0  501 -0.00000000000E+00 -0.00000000000E+00 -0.60263402819E+03  0.60263402819E+03  0.00000000000E+00 0.  1.
         23    2    1    2    0    0 -0.64631401373E+03 -0.29431848175E+03  0.34714614450E+02  0.71682538216E+03  0.91040381184E+02 0.  0.
        254    2    1    2    0    0  0.64631401373E+03  0.29431848175E+03  0.10168647384E+04  0.15400220271E+04  0.91285747774E+03 0.  0.
         23    2    4    4    0    0  0.46991964120E+03 -0.12756218736E+03  0.94654731799E+03  0.10682656329E+04  0.90238884960E+02 0.  0.
         23    2    4    4    0    0  0.17639437253E+03  0.42188066911E+03  0.70317420423E+02  0.47175639422E+03  0.92256610837E+02 0.  0.
         13    1    3    3    0    0 -0.14770918611E+03 -0.63749895040E+02 -0.30131930763E+02  0.16367646755E+03  0.00000000000E+00 0. -1.
        -13    1    3    3    0    0 -0.49860482762E+03 -0.23056858671E+03  0.64846545213E+02  0.55314891461E+03  0.00000000000E+00 0.  1.
          1    1    5    5  502    0  0.61385533809E+02 -0.35004797793E+02  0.20156232932E+03  0.21359047785E+03  0.00000000000E+00 0.  1.
          3    1    6    6  503    0  0.18314039223E+03  0.38158505926E+03  0.77438790666E+02  0.43028400739E+03  0.00000000000E+00 0. -1.
         -1    1    5    5    0  502  0.40853410739E+03 -0.92557389567E+02  0.74498498867E+03  0.85467515502E+03  0.00000000000E+00 0. -1.
         -3    1    6    6    0  503 -0.67460197028E+01  0.40295609854E+02 -0.71213702422E+01  0.41472386831E+02  0.00000000000E+00 0.  1.
<mgrwt>
<rscale>  0 0.19968828E+04</rscale>
<asrwt>0</asrwt>
<pdfrwt beam="1">  1        1 0.25449436E+00 0.19968828E+04</pdfrwt>
<pdfrwt beam="2">  1       -1 0.92712928E-01 0.19968828E+04</pdfrwt>
<totfact> 0.53742844E+00</totfact>
</mgrwt>
</event>
<event>
12    1  0.4403484E-008  0.1570080E+04  0.7818608E-02  0.8839143E-01
          1   -1    0    0  501    0  0.00000000000E+00  0.00000000000E+00  0.24744407071E+04  0.24744407071E+04  0.00000000000E+00 0. -1.
         -1   -1    0    0    0  501 -0.00000000000E+00 -0.00000000000E+00 -0.24906144409E+03  0.24906144409E+03  0.00000000000E+00 0.  1.
         23    2    1    2    0    0 -0.29408629770E+03 -0.41753595834E+03  0.86281795697E+03  0.10087630575E+04  0.11101825207E+03 0.  0.
        254    2    1    2    0    0  0.29408629770E+03  0.41753595834E+03  0.13625613060E+04  0.17147390937E+04  0.90715699837E+03 0.  0.
         23    2    4    4    0    0 -0.26147180334E+03 -0.79152399998E+02  0.39024994004E+03  0.48564383217E+03  0.94457978247E+02 0.  0.
         23    2    4    4    0    0  0.55555810104E+03  0.49668835833E+03  0.97231136596E+03  0.12290952615E+04  0.99707775556E+02 0.  0.
         11    1    3    3    0    0 -0.27244021054E+03 -0.41060019190E+03  0.77776355753E+03  0.92072381164E+03  0.00000000000E+00 0. -1.
        -11    1    3    3    0    0 -0.21646087160E+02 -0.69357664391E+01  0.85054399448E+02  0.88039245856E+02  0.00000000000E+00 0.  1.
          2    1    5    5  502    0 -0.42804888232E+02 -0.51028621098E+02  0.67920149998E+02  0.95127942285E+02  0.00000000000E+00 0.  1.
          3    1    6    6  503    0  0.49010305459E+03  0.46372190593E+03  0.83576300286E+03  0.10741223427E+04  0.00000000000E+00 0. -1.
         -2    1    5    5    0  502 -0.21866691510E+03 -0.28123778900E+02  0.32232979004E+03  0.39051588988E+03  0.00000000000E+00 0. -1.
         -3    1    6    6    0  503  0.65455046444E+02  0.32966452401E+02  0.13654836310E+03  0.15497291878E+03  0.00000000000E+00 0.  1.
<mgrwt>
<rscale>  0 0.15700800E+04</rscale>
<asrwt>0</asrwt>
<pdfrwt beam="1">  1        1 0.38068317E+00 0.15700800E+04</pdfrwt>
<pdfrwt beam="2">  1       -1 0.38317147E-01 0.15700800E+04</pdfrwt>
<totfact> 0.89615005E+00</totfact>
</mgrwt>
</event>
<event>
12    1  0.4403484E-008  0.1748367E+04  0.7818608E-02  0.8734250E-01
         -4   -1    0    0    0  501 -0.00000000000E+00  0.00000000000E+00  0.10102214856E+04  0.10102214856E+04  0.00000000000E+00 0.  1.
          4   -1    0    0  501    0  0.00000000000E+00 -0.00000000000E+00 -0.75646450364E+03  0.75646450364E+03  0.00000000000E+00 0. -1.
         23    2    1    2    0    0 -0.47028769356E+03  0.32125874166E+03 -0.20814683742E+03  0.61340688325E+03  0.92548391063E+02 0.  0.
        254    2    1    2    0    0  0.47028769356E+03 -0.32125874166E+03  0.46190381938E+03  0.11532791060E+04  0.89012351060E+03 0.  0.
         23    2    4    4    0    0  0.68505089689E+01 -0.53080189268E+03  0.26079720298E+03  0.59847715608E+03  0.91444773092E+02 0.  0.
         23    2    4    4    0    0  0.46343718459E+03  0.20954315102E+03  0.20110661639E+03  0.55480194989E+03  0.93161023220E+02 0.  0.
         11    1    3    3    0    0 -0.32428776741E+02  0.48107126219E+02 -0.40619060462E+02  0.70822519207E+02  0.00000000000E+00 0.  1.
        -11    1    3    3    0    0 -0.43785891682E+03  0.27315161544E+03 -0.16752777696E+03  0.54258436405E+03  0.00000000000E+00 0. -1.
          2    1    5    5  502    0 -0.13466509756E+02 -0.10057244247E+02  0.13892719439E+02  0.21806024403E+02  0.00000000000E+00 0.  1.
          1    1    6    6  503    0  0.29855182101E+03  0.17792111534E+03  0.11472743964E+03  0.36599385039E+03  0.00000000000E+00 0. -1.
         -2    1    5    5    0  502  0.20317018725E+02 -0.52074464843E+03  0.24690448355E+03  0.57667113168E+03  0.00000000000E+00 0. -1.
         -1    1    6    6    0  503  0.16488536358E+03  0.31622035676E+02  0.86379176749E+02  0.18880809950E+03  0.00000000000E+00 0.  1.
<mgrwt>
<rscale>  0 0.17483669E+04</rscale>
<asrwt>0</asrwt>
<pdfrwt beam="1">  1        4 0.11637915E+00 0.17483669E+04</pdfrwt>
<pdfrwt beam="2">  1       -4 0.15541869E+00 0.17483669E+04</pdfrwt>
<totfact> 0.29340927E-01</totfact>
</mgrwt>
</event>
<event>
12    1  0.4403484E-008  0.1153559E+04  0.7818608E-02  0.9154506E-01
         -1   -1    0    0    0  501 -0.00000000000E+00  0.00000000000E+00  0.18961046723E+03  0.18961046723E+03  0.00000000000E+00 0.  1.
          1   -1    0    0  501    0  0.00000000000E+00 -0.00000000000E+00 -0.17545162422E+04  0.17545162422E+04  0.00000000000E+00 0. -1.
         23    2    1    2    0    0 -0.96794616502E+02 -0.26813123784E+02 -0.63276936575E+03  0.64670334907E+03  0.87977327028E+02 0.  0.
        254    2    1    2    0    0  0.96794616502E+02  0.26813123784E+02 -0.93213640923E+03  0.12974233604E+04  0.89685057241E+03 0.  0.
         23    2    4    4    0    0  0.46634347299E+03  0.44933819134E+02 -0.71270531162E+03  0.85769318626E+03  0.90517720074E+02 0.  0.
         23    2    4    4    0    0 -0.36954885649E+03 -0.18120695350E+02 -0.21943109761E+03  0.43973017411E+03  0.91202535574E+02 0.  0.
         13    1    3    3    0    0 -0.30196007865E+02 -0.25264641011E+02 -0.72615033080E+02  0.82601719144E+02  0.00000000000E+00 0.  1.
        -13    1    3    3    0    0 -0.66598608636E+02 -0.15484827725E+01 -0.56015433267E+03  0.56410162992E+03  0.00000000000E+00 0. -1.
          2    1    5    5  502    0  0.38229145459E+03  0.18666375287E+02 -0.51860884073E+03  0.64455435729E+03  0.00000000000E+00 0. -1.
          3    1    6    6  503    0 -0.19064689231E+03  0.35703982398E+02 -0.10330019051E+03  0.21975427474E+03  0.00000000000E+00 0. -1.
         -2    1    5    5    0  502  0.84052018397E+02  0.26267443847E+02 -0.19409647089E+03  0.21313882897E+03  0.00000000000E+00 0.  1.
         -3    1    6    6    0  503 -0.17890196418E+03 -0.53824677749E+02 -0.11613090710E+03  0.21997589938E+03  0.00000000000E+00 0.  1.
<mgrwt>
<rscale>  0 0.11535591E+04</rscale>
<asrwt>0</asrwt>
<pdfrwt beam="1">  1        1 0.26992557E+00 0.11535591E+04</pdfrwt>
<pdfrwt beam="2">  1       -1 0.29170841E-01 0.11535591E+04</pdfrwt>
<totfact> 0.46594627E+01</totfact>
</mgrwt>
</event>
<event>
12    1  0.4403484E-008  0.3247841E+04  0.7818608E-02  0.8176296E-01
          2   -1    0    0  501    0  0.00000000000E+00  0.00000000000E+00  0.11020072087E+04  0.11020072087E+04  0.00000000000E+00 0. -1.
         -2   -1    0    0    0  501 -0.00000000000E+00 -0.00000000000E+00 -0.23930125114E+04  0.23930125114E+04  0.00000000000E+00 0.  1.
         23    2    1    2    0    0 -0.36181316234E+03 -0.13995760811E+04 -0.13349389264E+03  0.14542048557E+04  0.84670961778E+02 0.  0.
        254    2    1    2    0    0  0.36181316234E+03  0.13995760811E+04 -0.11575114100E+04  0.20408148644E+04  0.85753756484E+03 0.  0.
         23    2    4    4    0    0  0.26125094207E+03  0.50592354740E+03 -0.95350023078E+03  0.11143152725E+04  0.91242237901E+02 0.  0.
         23    2    4    4    0    0  0.10056222027E+03  0.89365253367E+03 -0.20401117924E+03  0.92649959182E+03  0.89740299216E+02 0.  0.
         13    1    3    3    0    0 -0.24942903609E+03 -0.82877831533E+03 -0.55980553726E+02  0.86730742093E+03  0.00000000000E+00 0.  1.
        -13    1    3    3    0    0 -0.11238412625E+03 -0.57079776575E+03 -0.77513338917E+02  0.58689743476E+03  0.00000000000E+00 0. -1.
          4    1    5    5  502    0  0.12666162986E+03  0.18990824222E+03 -0.45336170582E+03  0.50758757397E+03  0.00000000000E+00 0. -1.
          3    1    6    6  503    0  0.75298176537E+02  0.75750074381E+03 -0.14023590308E+03  0.77404347473E+03  0.00000000000E+00 0. -1.
         -4    1    5    5    0  502  0.13458931221E+03  0.31601530518E+03 -0.50013852496E+03  0.60672769857E+03  0.00000000000E+00 0.  1.
         -3    1    6    6    0  503  0.25264043731E+02  0.13615178986E+03 -0.63775276159E+02  0.15245611709E+03  0.00000000000E+00 0.  1.
<mgrwt>
<rscale>  0 0.32478405E+04</rscale>
<asrwt>0</asrwt>
<pdfrwt beam="1">  1        2 0.16953957E+00 0.32478405E+04</pdfrwt>
<pdfrwt beam="2">  1       -2 0.36815577E+00 0.32478405E+04</pdfrwt>
<totfact> 0.21724968E-01</totfact>
</mgrwt>
</event>
<event>
12    1  0.4403484E-008  0.1807212E+04  0.7818608E-02  0.8702474E-01
         -2   -1    0    0    0  501 -0.00000000000E+00  0.00000000000E+00  0.90077105902E+03  0.90077105902E+03  0.00000000000E+00 0.  1.
          2   -1    0    0  501    0  0.00000000000E+00 -0.00000000000E+00 -0.90644985687E+03  0.90644985687E+03  0.00000000000E+00 0. -1.
         23    2    1    2    0    0  0.30430659131E+03 -0.35355144498E+02  0.60627647178E+03  0.68557825012E+03  0.92703231014E+02 0.  0.
        254    2    1    2    0    0 -0.30430659131E+03  0.35355144498E+02 -0.61195526964E+03  0.11216426658E+04  0.88867346641E+03 0.  0.
         23    2    4    4    0    0 -0.58846529853E+03 -0.31204351843E+02 -0.25032946734E+03  0.64801935385E+03  0.99995607953E+02 0.  0.
         23    2    4    4    0    0  0.28415870722E+03  0.66559496341E+02 -0.36162580230E+03  0.47362331192E+03  0.91484879976E+02 0.  0.
         11    1    3    3    0    0  0.13973066440E+03  0.27923054686E+02  0.24104143671E+03  0.28000951728E+03  0.00000000000E+00 0. -1.
        -11    1    3    3    0    0  0.16457592691E+03 -0.63278199185E+02  0.36523503508E+03  0.40556873284E+03  0.00000000000E+00 0.  1.
          4    1    5    5  502    0 -0.43092273808E+03 -0.15476048621E+02 -0.22907981553E+03  0.48827397654E+03  0.00000000000E+00 0. -1.
          3    1    6    6  503    0  0.19844987336E+03  0.34147753060E+02 -0.17955095521E+03  0.26979059804E+03  0.00000000000E+00 0. -1.
         -4    1    5    5    0  502 -0.15754256044E+03 -0.15728303222E+02 -0.21249651806E+02  0.15974537732E+03  0.00000000000E+00 0.  1.
         -3    1    6    6    0  503  0.85708833857E+02  0.32411743281E+02 -0.18207484709E+03  0.20383271387E+03  0.00000000000E+00 0.  1.
<mgrwt>
<rscale>  0 0.18072120E+04</rscale>
<asrwt>0</asrwt>
<pdfrwt beam="1">  1        2 0.13945382E+00 0.18072120E+04</pdfrwt>
<pdfrwt beam="2">  1       -2 0.13858016E+00 0.18072120E+04</pdfrwt>
<totfact> 0.10099479E+01</totfact>
</mgrwt>
</event>
<event>
12    1  0.4403484E-008  0.2709684E+04  0.7818608E-02  0.8331870E-01
         -2   -1    0    0    0  501 -0.00000000000E+00  0.00000000000E+00  0.15613158860E+04  0.15613158860E+04  0.00000000000E+00 0.  1.
          2   -1    0    0  501    0  0.00000000000E+00 -0.00000000000E+00 -0.11756731085E+04  0.11756731085E+04  0.00000000000E+00 0. -1.
         23    2    1    2    0    0 -0.17878072388E+03 -0.31088171999E+03 -0.98697327786E+03  0.10540273715E+04  0.90815513862E+02 0.  0.
        254    2    1    2    0    0  0.17878072388E+03  0.31088171999E+03  0.13726160554E+04  0.16829616230E+04  0.90535904360E+03 0.  0.
         23    2    4    4    0    0 -0.13450640754E+03 -0.26375112803E+03  0.38004067459E+03  0.49045683445E+03  0.91980220245E+02 0.  0.
         23    2    4    4    0    0  0.31328713142E+03  0.57463284802E+03  0.99257538080E+03  0.11925047885E+04  0.92249917766E+02 0.  0.
         13    1    3    3    0    0 -0.18146166036E+03 -0.26057589652E+03 -0.80976046337E+03  0.86979315936E+03  0.00000000000E+00 0. -1.
        -13    1    3    3    0    0  0.26809364854E+01 -0.50305823467E+02 -0.17721281449E+03  0.18423421211E+03  0.00000000000E+00 0.  1.
          2    1    5    5  502    0 -0.30806107397E+02 -0.11591016213E+03  0.94882155387E+02  0.15292745126E+03  0.00000000000E+00 0. -1.
          1    1    6    6  503    0  0.29328462254E+03  0.56870592318E+03  0.95558496018E+03  0.11500369181E+04  0.00000000000E+00 0. -1.
         -2    1    5    5    0  502 -0.10370030015E+03 -0.14784096590E+03  0.28515851920E+03  0.33752938320E+03  0.00000000000E+00 0.  1.
         -1    1    6    6    0  503  0.20002508883E+02  0.59269248333E+01  0.36990420617E+02  0.42467870408E+02  0.00000000000E+00 0.  1.
<mgrwt>
<rscale>  0 0.27096842E+04</rscale>
<asrwt>0</asrwt>
<pdfrwt beam="1">  1        2 0.18087279E+00 0.27096842E+04</pdfrwt>
<pdfrwt beam="2">  1       -2 0.24020244E+00 0.27096842E+04</pdfrwt>
<totfact> 0.12682948E+00</totfact>
</mgrwt>
</event>
<event>
12    1  0.4403484E-008  0.1533429E+04  0.7818608E-02  0.8862522E-01
          2   -1    0    0  501    0  0.00000000000E+00  0.00000000000E+00  0.11702484346E+04  0.11702484346E+04  0.00000000000E+00 0. -1.
         -2   -1    0    0    0  501 -0.00000000000E+00 -0.00000000000E+00 -0.50233047797E+03  0.50233047797E+03  0.00000000000E+00 0.  1.
         23    2    1    2    0    0  0.70500553581E+02 -0.44254589400E+02 -0.32072406511E+03  0.34415790291E+03  0.93015802190E+02 0.  0.
        254    2    1    2    0    0 -0.70500553581E+02  0.44254589400E+02  0.98864202172E+03  0.13284210096E+04  0.88338017582E+03 0.  0.
         23    2    4    4    0    0 -0.15662416074E+03 -0.33757658527E+03  0.17499182188E+03  0.42112932503E+03  0.90767240900E+02 0.  0.
         23    2    4    4    0    0  0.86123607159E+02  0.38183117467E+03  0.81365019984E+03  0.90729168462E+03  0.89102366034E+02 0.  0.
         11    1    3    3    0    0  0.58108111754E+02 -0.64785721082E+02 -0.30030618463E+03  0.31266203293E+03  0.00000000000E+00 0.  1.
        -11    1    3    3    0    0  0.12392441828E+02  0.20531131682E+02 -0.20417880476E+02  0.31495869979E+02  0.00000000000E+00 0. -1.
          2    1    5    5  502    0 -0.14700528538E+03 -0.22379463954E+03  0.13711052105E+03  0.30082202313E+03  0.00000000000E+00 0. -1.
          3    1    6    6  503    0  0.45156990010E+02  0.17753235605E+03  0.28207749749E+03  0.33634001513E+03  0.00000000000E+00 0. -1.
         -2    1    5    5    0  502 -0.96188753624E+01 -0.11378194573E+03  0.37881300830E+02  0.12030730189E+03  0.00000000000E+00 0.  1.
         -3    1    6    6    0  503  0.40966617149E+02  0.20429881862E+03  0.53157270235E+03  0.57095166949E+03  0.00000000000E+00 0.  1.
<mgrwt>
<rscale>  0 0.15334294E+04</rscale>
<asrwt>0</asrwt>
<pdfrwt beam="1">  1        2 0.18003822E+00 0.15334294E+04</pdfrwt>
<pdfrwt beam="2">  1       -2 0.77281612E-01 0.15334294E+04</pdfrwt>
<totfact> 0.28417853E+01</totfact>
</mgrwt>
</event>
<event>
12    1  0.4403484E-008  0.2342990E+04  0.7818608E-02  0.8461161E-01
          2   -1    0    0  501    0  0.00000000000E+00  0.00000000000E+00  0.49423716142E+03  0.49423716142E+03  0.00000000000E+00 0. -1.
         -2   -1    0    0    0  501 -0.00000000000E+00 -0.00000000000E+00 -0.27768067094E+04  0.27768067094E+04  0.00000000000E+00 0.  1.
         23    2    1    2    0    0 -0.24209876553E+03  0.81101945224E+03 -0.17035721767E+04  0.19044467454E+04  0.91623582040E+02 0.  0.
        254    2    1    2    0    0  0.24209876553E+03 -0.81101945224E+03 -0.57899737132E+03  0.13665971254E+04  0.90331909260E+03 0.  0.
         23    2    4    4    0    0  0.22855932945E+03 -0.67197490671E+03  0.48719635190E+02  0.71710582050E+03  0.89874983263E+02 0.  0.
         23    2    4    4    0    0  0.13539436082E+02 -0.13904454553E+03 -0.62771700651E+03  0.64949130493E+03  0.91069275550E+02 0.  0.
         13    1    3    3    0    0 -0.20511284722E+03  0.66140276315E+03 -0.14650916035E+04  0.16204993989E+04  0.00000000000E+00 0.  1.
        -13    1    3    3    0    0 -0.36985918308E+02  0.14961668908E+03 -0.23848057316E+03  0.28394734649E+03  0.00000000000E+00 0. -1.
          2    1    5    5  502    0  0.22721647013E+03 -0.58443908253E+03  0.31237869141E+02  0.62783132285E+03  0.00000000000E+00 0.  1.
          1    1    6    6  503    0  0.43756489669E+02 -0.11990636476E+03 -0.42919379960E+03  0.44777168771E+03  0.00000000000E+00 0. -1.
         -2    1    5    5    0  502  0.13428593182E+01 -0.87535824177E+02  0.17481766048E+02  0.89274497645E+02  0.00000000000E+00 0. -1.
         -1    1    6    6    0  503 -0.30217053587E+02 -0.19138180765E+02 -0.19852320691E+03  0.20171961722E+03  0.00000000000E+00 0.  1.
<mgrwt>
<rscale>  0 0.23429905E+04</rscale>
<asrwt>0</asrwt>
<pdfrwt beam="1">  1        2 0.76036487E-01 0.23429905E+04</pdfrwt>
<pdfrwt beam="2">  1       -2 0.42720103E+00 0.23429905E+04</pdfrwt>
<totfact> 0.27720007E-01</totfact>
</mgrwt>
</event>
<event>
12    1  0.4403484E-008  0.1112834E+04  0.7818608E-02  0.9192772E-01
         -2   -1    0    0    0  501 -0.00000000000E+00  0.00000000000E+00  0.13795792179E+03  0.13795792179E+03  0.00000000000E+00 0.  1.
          2   -1    0    0  501    0  0.00000000000E+00 -0.00000000000E+00 -0.22441621718E+04  0.22441621718E+04  0.00000000000E+00 0. -1.
         23    2    1    2    0    0  0.16541913624E+03  0.75687282507E+02 -0.41520427807E+03  0.46286975656E+03  0.93604292832E+02 0.  0.
        254    2    1    2    0    0 -0.16541913624E+03 -0.75687282507E+02 -0.16909999720E+04  0.19192503371E+04  0.88935307710E+03 0.  0.
         23    2    4    4    0    0  0.24905805966E+03 -0.27902184301E+03 -0.45159262067E+03  0.59352951306E+03  0.91968918001E+02 0.  0.
         23    2    4    4    0    0 -0.41447719590E+03  0.20333456050E+03 -0.12394073513E+04  0.13257208240E+04  0.90933114481E+02 0.  0.
         11    1    3    3    0    0  0.14957733156E+03  0.40232100189E+02 -0.38038373039E+03  0.41071131266E+03  0.00000000000E+00 0. -1.
        -11    1    3    3    0    0  0.15841804676E+02  0.35455182318E+02 -0.34820547687E+02  0.52158443897E+02  0.00000000000E+00 0.  1.
          2    1    5    5  502    0  0.25144401144E+03 -0.28378795234E+03 -0.44877007290E+03  0.58749831584E+03  0.00000000000E+00 0. -1.
          4    1    6    6  503    0 -0.15417283259E+03  0.70230710315E+02 -0.33790699775E+03  0.37799835199E+03  0.00000000000E+00 0.  1.
         -2    1    5    5    0  502 -0.23859517778E+01  0.47661093326E+01 -0.28225477638E+01  0.60311972224E+01  0.00000000000E+00 0.  1.
         -4    1    6    6    0  503 -0.26030436331E+03  0.13310385018E+03 -0.90150035356E+03  0.94772247201E+03  0.00000000000E+00 0. -1.
<mgrwt>
<rscale>  0 0.11128341E+04</rscale>
<asrwt>0</asrwt>
<pdfrwt beam="1">  1        2 0.34525571E+00 0.11128341E+04</pdfrwt>
<pdfrwt beam="2">  1       -2 0.21224296E-01 0.11128341E+04</pdfrwt>
<totfact> 0.93541960E+01</totfact>
</mgrwt>
</event>
<event>
12    1  0.4403484E-008  0.1376220E+04  0.7818608E-02  0.8971214E-01
          2   -1    0    0  501    0  0.00000000000E+00  0.00000000000E+00  0.22221199150E+04  0.22221199150E+04  0.00000000000E+00 0.  1.
         -2   -1    0    0    0  501 -0.00000000000E+00 -0.00000000000E+00 -0.21308260640E+03  0.21308260640E+03  0.00000000000E+00 0. -1.
         23    2    1    2    0    0  0.34132302195E+03  0.10403617712E+03  0.74165163765E+03  0.82807326784E+03  0.91286657453E+02 0.  0.
        254    2    1    2    0    0 -0.34132302195E+03 -0.10403617712E+03  0.12673856710E+04  0.16071292536E+04  0.92156012678E+03 0.  0.
         23    2    4    4    0    0  0.30249124561E+03 -0.47521552329E+02  0.28609784722E+03  0.42868366242E+03  0.90324153100E+02 0.  0.
         23    2    4    4    0    0 -0.64381426756E+03 -0.56514624794E+02  0.98128782375E+03  0.11784455912E+04  0.90097193985E+02 0.  0.
         13    1    3    3    0    0  0.10283271582E+03  0.43419927478E+02  0.14746303028E+03  0.18494648644E+03  0.00000000000E+00 0. -1.
        -13    1    3    3    0    0  0.23849030612E+03  0.60616249644E+02  0.59418860737E+03  0.64312678140E+03  0.00000000000E+00 0.  1.
          2    1    5    5  502    0  0.28582577993E+03 -0.46617063920E+02  0.22901777265E+03  0.36921357953E+03  0.00000000000E+00 0.  1.
          1    1    6    6  503    0 -0.14981213016E+03 -0.45030116784E+02  0.27664901555E+03  0.31781451125E+03  0.00000000000E+00 0. -1.
         -2    1    5    5    0  502  0.16665465683E+02 -0.90448840863E+00  0.57080074572E+02  0.59470082889E+02  0.00000000000E+00 0. -1.
         -1    1    6    6    0  503 -0.49400213740E+03 -0.11484508009E+02  0.70463880821E+03  0.86063107991E+03  0.00000000000E+00 0.  1.
<mgrwt>
<rscale>  0 0.13762196E+04</rscale>
<asrwt>0</asrwt>
<pdfrwt beam="1">  1        2 0.34186459E+00 0.13762196E+04</pdfrwt>
<pdfrwt beam="2">  1       -2 0.32781941E-01 0.13762196E+04</pdfrwt>
<totfact> 0.42533186E+01</totfact>
</mgrwt>
</event>
<event>
12    1  0.4403484E-008  0.1667529E+04  0.7818608E-02  0.8780104E-01
          1   -1    0    0  501    0  0.00000000000E+00  0.00000000000E+00  0.28397136592E+04  0.28397136592E+04  0.00000000000E+00 0. -1.
         -1   -1    0    0    0  501 -0.00000000000E+00 -0.00000000000E+00 -0.24480046835E+03  0.24480046835E+03  0.00000000000E+00 0.  1.
         23    2    1    2    0    0 -0.93636973875E+02 -0.31858585294E+03  0.22229158814E+02  0.34489057511E+03  0.90501628320E+02 0.  0.
        254    2    1    2    0    0  0.93636973875E+02  0.31858585294E+03  0.25726840320E+04  0.27396235525E+04  0.88123166752E+03 0.  0.
         23    2    4    4    0    0  0.29877257821E+03  0.54054052758E+03  0.17911160409E+04  0.18968295148E+04  0.91741053334E+02 0.  0.
         23    2    4    4    0    0 -0.20513560434E+03 -0.22195467464E+03  0.78156799111E+03  0.84279403760E+03  0.90048716406E+02 0.  0.
         13    1    3    3    0    0  0.16976611310E+02 -0.32778906825E+02 -0.48488847067E+01  0.37231354355E+02  0.00000000000E+00 0. -1.
        -13    1    3    3    0    0 -0.11061358518E+03 -0.28580694612E+03  0.27078043521E+02  0.30765922076E+03  0.00000000000E+00 0.  1.
          3    1    5    5  502    0  0.29567193392E+03  0.50546509531E+03  0.17283750926E+04  0.18248828225E+04  0.00000000000E+00 0. -1.
          3    1    6    6  503    0 -0.17454490564E+03 -0.13185768846E+03  0.50595588942E+03  0.55122022471E+03  0.00000000000E+00 0. -1.
         -3    1    5    5    0  502  0.31006442955E+01  0.35075432270E+02  0.62740948300E+02  0.71946692332E+02  0.00000000000E+00 0.  1.
         -3    1    6    6    0  503 -0.30590698698E+02 -0.90096986180E+02  0.27561210170E+03  0.29157381290E+03  0.00000000000E+00 0.  1.
<mgrwt>
<rscale>  0 0.16675290E+04</rscale>
<asrwt>0</asrwt>
<pdfrwt beam="1">  1        1 0.43687900E+00 0.16675290E+04</pdfrwt>
<pdfrwt beam="2">  1       -1 0.37661612E-01 0.16675290E+04</pdfrwt>
<totfact> 0.50807091E+00</totfact>
</mgrwt>
</event>
<event>
12    1  0.4403484E-008  0.1449234E+04  0.7818608E-02  0.8918932E-01
         -2   -1    0    0    0  501 -0.00000000000E+00  0.00000000000E+00  0.33845948602E+03  0.33845948602E+03  0.00000000000E+00 0.  1.
          2   -1    0    0  501    0  0.00000000000E+00 -0.00000000000E+00 -0.15513511772E+04  0.15513511772E+04  0.00000000000E+00 0. -1.
         23    2    1    2    0    0 -0.20457423859E+03  0.15700251749E+03  0.85442535982E+02  0.28579886045E+03  0.88770220736E+02 0.  0.
        254    2    1    2    0    0  0.20457423859E+03 -0.15700251749E+03 -0.12983342272E+04  0.16040118028E+04  0.90591483506E+03 0.  0.
         23    2    4    4    0    0 -0.63726439295E+02 -0.48948893158E+03 -0.76105378980E+03  0.91174446801E+03  0.91731296615E+02 0.  0.
         23    2    4    4    0    0  0.26830067788E+03  0.33248641409E+03 -0.53728043735E+03  0.69226733474E+03  0.89617660498E+02 0.  0.
         13    1    3    3    0    0 -0.20435412036E+03  0.16626779899E+03  0.82076926336E+02  0.27593877822E+03  0.00000000000E+00 0.  1.
        -13    1    3    3    0    0 -0.22011822437E+00 -0.92652815000E+01  0.33656096460E+01  0.98600822307E+01  0.00000000000E+00 0. -1.
          4    1    5    5  502    0 -0.37773662867E+02 -0.54728932986E+02 -0.10465244398E+03  0.12399290198E+03  0.00000000000E+00 0. -1.
          1    1    6    6  503    0  0.34604852537E+02  0.63025498127E+02 -0.14642491751E+03  0.16312561326E+03  0.00000000000E+00 0. -1.
         -4    1    5    5    0  502 -0.25952776428E+02 -0.43475999860E+03 -0.65640134582E+03  0.78775156603E+03  0.00000000000E+00 0.  1.
         -1    1    6    6    0  503  0.23369582534E+03  0.26946091597E+03 -0.39085551984E+03  0.52914172148E+03  0.00000000000E+00 0.  1.
<mgrwt>
<rscale>  0 0.14492336E+04</rscale>
<asrwt>0</asrwt>
<pdfrwt beam="1">  1        2 0.23866941E+00 0.14492336E+04</pdfrwt>
<pdfrwt beam="2">  1       -2 0.52070690E-01 0.14492336E+04</pdfrwt>
<totfact> 0.40094981E+01</totfact>
</mgrwt>
</event>
<event>
12    1  0.4403484E-008  0.1470121E+04  0.7818608E-02  0.8904569E-01
          2   -1    0    0  501    0  0.00000000000E+00  0.00000000000E+00  0.30505338245E+04  0.30505338245E+04  0.00000000000E+00 0. -1.
         -2   -1    0    0    0  501 -0.00000000000E+00 -0.00000000000E+00 -0.17712116382E+03  0.17712116382E+03  0.00000000000E+00 0.  1.
         23    2    1    2    0    0  0.25782330679E+03  0.11467621789E+03  0.12354498861E+03  0.32036547023E+03  0.88018054035E+02 0.  0.
        254    2    1    2    0    0 -0.25782330679E+03 -0.11467621789E+03  0.27498676720E+04  0.29072895181E+04  0.90052020278E+03 0.  0.
         23    2    4    4    0    0 -0.25807793371E+03 -0.43270908537E+03  0.96925953604E+03  0.10962700174E+04  0.92209166284E+02 0.  0.
         23    2    4    4    0    0  0.25462692525E+00  0.31803286748E+03  0.17806081360E+04  0.18110195007E+04  0.89896208226E+02 0.  0.
         11    1    3    3    0    0  0.13361094845E+03  0.63920572522E+02  0.17115812573E+02  0.14909955123E+03  0.00000000000E+00 0.  1.
        -11    1    3    3    0    0  0.12421235833E+03  0.50755645363E+02  0.10642917603E+03  0.17126591900E+03  0.00000000000E+00 0. -1.
          1    1    5    5  502    0 -0.17774976403E+03 -0.20871890884E+03  0.50884156249E+03  0.57799506680E+03  0.00000000000E+00 0. -1.
          3    1    6    6  503    0  0.24063727358E+01  0.23674517778E+03  0.15103170979E+04  0.15287615268E+04  0.00000000000E+00 0. -1.
         -1    1    5    5    0  502 -0.80328169683E+02 -0.22399017653E+03  0.46041797355E+03  0.51827495057E+03  0.00000000000E+00 0.  1.
         -3    1    6    6    0  503 -0.21517458106E+01  0.81287689706E+02  0.27029103814E+03  0.28225797386E+03  0.00000000000E+00 0.  1.
<mgrwt>
<rscale>  0 0.14701212E+04</rscale>
<asrwt>0</asrwt>
<pdfrwt beam="1">  1        2 0.46931286E+00 0.14701212E+04</pdfrwt>
<pdfrwt beam="2">  1       -2 0.27249412E-01 0.14701212E+04</pdfrwt>
<totfact> 0.19365909E+01</totfact>
</mgrwt>
</event>
<event>
12    1  0.4403484E-008  0.3304491E+04  0.7818608E-02  0.8161754E-01
          4   -1    0    0  501    0  0.00000000000E+00  0.00000000000E+00  0.20292609672E+04  0.20292609672E+04  0.00000000000E+00 0. -1.
         -4   -1    0    0    0  501 -0.00000000000E+00 -0.00000000000E+00 -0.13452753045E+04  0.13452753045E+04  0.00000000000E+00 0.  1.
         23    2    1    2    0    0 -0.42214960508E+03 -0.14069052178E+04 -0.11433105968E+03  0.14759575243E+04  0.88240815323E+02 0.  0.
        254    2    1    2    0    0  0.42214960508E+03  0.14069052178E+04  0.79831672232E+03  0.18985787474E+04  0.89983281216E+03 0.  0.
         23    2    4    4    0    0 -0.15585622003E+03  0.72731533656E+03  0.88043777935E+02  0.75462529438E+03  0.91808866439E+02 0.  0.
         23    2    4    4    0    0  0.57800582512E+03  0.67958988123E+03  0.71027294438E+03  0.11439534530E+04  0.90601912294E+02 0.  0.
         13    1    3    3    0    0 -0.15687943494E+03 -0.45631030473E+03 -0.74481888714E+02  0.48823949354E+03  0.00000000000E+00 0. -1.
        -13    1    3    3    0    0 -0.26527017014E+03 -0.95059491307E+03 -0.39849170964E+02  0.98771803079E+03  0.00000000000E+00 0.  1.
          1    1    5    5  502    0 -0.61419840536E+02  0.21076166253E+03 -0.12853120472E+02  0.21990470188E+03  0.00000000000E+00 0. -1.
          3    1    6    6  503    0  0.53658196909E+03  0.64319280440E+03  0.63738714850E+03  0.10525585828E+04  0.00000000000E+00 0. -1.
         -1    1    5    5    0  502 -0.94436379498E+02  0.51655367404E+03  0.10089689841E+03  0.53472059250E+03  0.00000000000E+00 0.  1.
         -3    1    6    6    0  503  0.41423856023E+02  0.36397076830E+02  0.72885795886E+02  0.91394870160E+02  0.00000000000E+00 0.  1.
<mgrwt>
<rscale>  0 0.33044907E+04</rscale>
<asrwt>0</asrwt>
<pdfrwt beam="1">  1        4 0.31219399E+00 0.33044907E+04</pdfrwt>
<pdfrwt beam="2">  1       -4 0.20696543E+00 0.33044907E+04</pdfrwt>
<totfact> 0.50619925E-03</totfact>
</mgrwt>
</event>
<event>
12    1  0.4403484E-008  0.1934389E+04  0.7818608E-02  0.8637926E-01
          3   -1    0    0  501    0  0.00000000000E+00  0.00000000000E+00  0.23618813553E+04  0.23618813553E+04  0.00000000000E+00 0. -1.
         -3   -1    0    0    0  501 -0.00000000000E+00 -0.00000000000E+00 -0.39606771991E+03  0.39606771991E+03  0.00000000000E+00 0.  1.
         23    2    1    2    0    0 -0.29748618361E+03  0.65732620354E+03  0.10804651381E+04  0.13023266305E+04  0.89855275496E+02 0.  0.
        254    2    1    2    0    0  0.29748618361E+03 -0.65732620354E+03  0.88534849728E+03  0.14556224447E+04  0.90245164559E+03 0.  0.
         23    2    4    4    0    0  0.26442212161E+03  0.11763310241E+03  0.49957912565E+03  0.58458565237E+03  0.91675934630E+02 0.  0.
         23    2    4    4    0    0  0.33064061996E+02 -0.77495930594E+03  0.38576937163E+03  0.87103679235E+03  0.90729970080E+02 0.  0.
         13    1    3    3    0    0 -0.22729596006E+03  0.52137544659E+03  0.91136884962E+03  0.10742853391E+04  0.00000000000E+00 0.  1.
        -13    1    3    3    0    0 -0.70190223547E+02  0.13595075695E+03  0.16909628848E+03  0.22804129138E+03  0.00000000000E+00 0. -1.
          2    1    5    5  502    0  0.92672161890E+02  0.13851198507E+02  0.97582076355E+02  0.13528579717E+03  0.00000000000E+00 0. -1.
          4    1    6    6  503    0  0.22711769268E+02 -0.25885220075E+03  0.17595152301E+03  0.31381399705E+03  0.00000000000E+00 0. -1.
         -2    1    5    5    0  502  0.17174995972E+03  0.10378190390E+03  0.40199704930E+03  0.44929985520E+03  0.00000000000E+00 0.  1.
         -4    1    6    6    0  503  0.10352292728E+02 -0.51610710520E+03  0.20981784861E+03  0.55722279529E+03  0.00000000000E+00 0.  1.
<mgrwt>
<rscale>  0 0.19343888E+04</rscale>
<asrwt>0</asrwt>
<pdfrwt beam="1">  1        3 0.36336635E+00 0.19343888E+04</pdfrwt>
<pdfrwt beam="2">  1       -3 0.60933497E-01 0.19343888E+04</pdfrwt>
<totfact> 0.11242710E-01</totfact>
</mgrwt>
</event>
<event>
12    1  0.4403484E-008  0.2061878E+04  0.7818608E-02  0.8578225E-01
         -1   -1    0    0    0  501 -0.00000000000E+00  0.00000000000E+00  0.86307822537E+03  0.86307822537E+03  0.00000000000E+00 0.  1.
          1   -1    0    0  501    0  0.00000000000E+00 -0.00000000000E+00 -0.12314477094E+04  0.12314477094E+04  0.00000000000E+00 0. -1.
         23    2    1    2    0    0 -0.36926396393E+03  0.18554456468E+03 -0.88221937833E+03  0.97874956897E+03  0.94111777805E+02 0.  0.
        254    2    1    2    0    0  0.36926396393E+03 -0.18554456468E+03  0.51384989431E+03  0.11157763658E+04  0.90007362145E+03 0.  0.
         23    2    4    4    0    0 -0.32075326357E+02 -0.21789455264E+03  0.64098333184E+03  0.68390973552E+03  0.91466015592E+02 0.  0.
         23    2    4    4    0    0  0.40133929029E+03  0.32349987957E+02 -0.12713343753E+03  0.43186663027E+03  0.90698003031E+02 0.  0.
         13    1    3    3    0    0 -0.36250268469E+03  0.16984677232E+03 -0.87017052943E+03  0.95783760250E+03  0.00000000000E+00 0. -1.
        -13    1    3    3    0    0 -0.67612792425E+01  0.15697792356E+02 -0.12048848896E+02  0.20911966468E+02  0.00000000000E+00 0.  1.
          4    1    5    5  502    0  0.27385580743E+02 -0.52454967776E+02  0.11510194575E+03  0.12942160404E+03  0.00000000000E+00 0. -1.
          1    1    6    6  503    0  0.19130596874E+03 -0.27228288743E+02 -0.75972885618E+02  0.20763244624E+03  0.00000000000E+00 0. -1.
         -4    1    5    5    0  502 -0.59460907100E+02 -0.16543958486E+03  0.52588138609E+03  0.55448813147E+03  0.00000000000E+00 0.  1.
         -1    1    6    6    0  503  0.21003332156E+03  0.59578276700E+02 -0.51160551909E+02  0.22423418404E+03  0.00000000000E+00 0.  1.
<mgrwt>
<rscale>  0 0.20618785E+04</rscale>
<asrwt>0</asrwt>
<pdfrwt beam="1">  1        1 0.18945349E+00 0.20618785E+04</pdfrwt>
<pdfrwt beam="2">  1       -1 0.13278127E+00 0.20618785E+04</pdfrwt>
<totfact> 0.44951900E+00</totfact>
</mgrwt>
</event>
<event>
12    1  0.4403484E-008  0.1719625E+04  0.7818608E-02  0.8750250E-01
          2   -1    0    0  501    0  0.00000000000E+00  0.00000000000E+00  0.43576719401E+04  0.43576719401E+04  0.00000000000E+00 0.  1.
         -2   -1    0    0    0  501 -0.00000000000E+00 -0.00000000000E+00 -0.16964974906E+03  0.16964974906E+03  0.00000000000E+00 0. -1.
         23    2    1    2    0    0  0.59288486400E+03 -0.99724355189E+02  0.11728248968E+04  0.13209868693E+04  0.89613957648E+02 0.  0.
        254    2    1    2    0    0 -0.59288486400E+03  0.99724355189E+02  0.30151972942E+04  0.32063348198E+04  0.90978615325E+03 0.  0.
         23    2    4    4    0    0  0.15390542823E+03 -0.18609550436E+03  0.46044954851E+03  0.52781971450E+03  0.90892500856E+02 0.  0.
         23    2    4    4    0    0 -0.74679029223E+03  0.28581985955E+03  0.25547477457E+04  0.26785151053E+04  0.91205221622E+02 0.  0.
         11    1    3    3    0    0  0.25529745895E+02  0.14062977601E+02  0.52525571027E+02  0.60070549158E+02  0.00000000000E+00 0.  1.
        -11    1    3    3    0    0  0.56735511810E+03 -0.11378733279E+03  0.11202993258E+04  0.12609163202E+04  0.00000000000E+00 0. -1.
          4    1    5    5  502    0  0.11461205256E+03 -0.16021470272E+03  0.28698789815E+03  0.34809011368E+03  0.00000000000E+00 0. -1.
          1    1    6    6  503    0 -0.51350346959E+03  0.22424372452E+03  0.18912090009E+04  0.19724711776E+04  0.00000000000E+00 0. -1.
         -4    1    5    5    0  502  0.39293375674E+02 -0.25880801641E+02  0.17346165036E+03  0.17972960082E+03  0.00000000000E+00 0.  1.
         -1    1    6    6    0  503 -0.23328682264E+03  0.61576135027E+02  0.66353874478E+03  0.70604392770E+03  0.00000000000E+00 0.  1.
<mgrwt>
<rscale>  0 0.17196255E+04</rscale>
<asrwt>0</asrwt>
<pdfrwt beam="1">  1        2 0.67041099E+00 0.17196255E+04</pdfrwt>
<pdfrwt beam="2">  1       -2 0.26099965E-01 0.17196255E+04</pdfrwt>
<totfact> 0.21667142E+00</totfact>
</mgrwt>
</event>
<event>
12    1  0.4403484E-008  0.2960367E+04  0.7818608E-02  0.8255140E-01
         -2   -1    0    0    0  501 -0.00000000000E+00  0.00000000000E+00  0.17963901791E+04  0.17963901791E+04  0.00000000000E+00 0.  1.
          2   -1    0    0  501    0  0.00000000000E+00 -0.00000000000E+00 -0.12196365479E+04  0.12196365479E+04  0.00000000000E+00 0. -1.
         23    2    1    2    0    0 -0.42511276268E+03  0.63508139004E+03  0.13889570771E+04  0.15877599340E+04  0.87923903819E+02 0.  0.
        254    2    1    2    0    0  0.42511276268E+03 -0.63508139004E+03 -0.81220344588E+03  0.14282667930E+04  0.89231292807E+03 0.  0.
         23    2    4    4    0    0  0.57317798299E+03 -0.54182749372E+03 -0.91032650357E+03  0.12078735949E+04  0.90300858789E+02 0.  0.
         23    2    4    4    0    0 -0.14806522032E+03 -0.93253896319E+02  0.98123057695E+02  0.22039319809E+03  0.91243786999E+02 0.  0.
         11    1    3    3    0    0 -0.10229717031E+03  0.94368677013E+02  0.27023717597E+03  0.30397086954E+03  0.00000000000E+00 0. -1.
        -11    1    3    3    0    0 -0.32281559236E+03  0.54071271303E+03  0.11187199012E+04  0.12837890644E+04  0.00000000000E+00 0.  1.
          4    1    5    5  502    0  0.37515706600E+03 -0.40721368364E+03 -0.65948833008E+03  0.86109852272E+03  0.00000000000E+00 0. -1.
          3    1    6    6  503    0 -0.75566535077E+02 -0.55929755652E+02  0.10205316798E+03  0.13875621747E+03  0.00000000000E+00 0. -1.
         -4    1    5    5    0  502  0.19802091700E+03 -0.13461381008E+03 -0.25083817349E+03  0.34677507222E+03  0.00000000000E+00 0.  1.
         -3    1    6    6    0  503 -0.72498685241E+02 -0.37324140667E+02 -0.39301102856E+01  0.81636980622E+02  0.00000000000E+00 0.  1.
<mgrwt>
<rscale>  0 0.29603669E+04</rscale>
<asrwt>0</asrwt>
<pdfrwt beam="1">  1        2 0.18763639E+00 0.29603669E+04</pdfrwt>
<pdfrwt beam="2">  1       -2 0.27636772E+00 0.29603669E+04</pdfrwt>
<totfact> 0.70166419E-01</totfact>
</mgrwt>
</event>
<event>
12    1  0.4403484E-008  0.2597751E+04  0.7818608E-02  0.8368966E-01
          2   -1    0    0  501    0  0.00000000000E+00  0.00000000000E+00  0.15997469181E+04  0.15997469181E+04  0.00000000000E+00 0. -1.
         -2   -1    0    0    0  501 -0.00000000000E+00 -0.00000000000E+00 -0.10545898922E+04  0.10545898922E+04  0.00000000000E+00 0.  1.
         23    2    1    2    0    0  0.96152973985E+03  0.60664522228E+03  0.33962763579E+03  0.11897993008E+04  0.87849750958E+02 0.  0.
        254    2    1    2    0    0 -0.96152973985E+03 -0.60664522228E+03  0.20552939009E+03  0.14645375096E+04  0.90003884381E+03 0.  0.
         23    2    4    4    0    0 -0.37147576421E+03  0.45123032178E+02  0.40458509849E+03  0.55862428703E+03  0.91332692449E+02 0.  0.
         23    2    4    4    0    0 -0.59005397564E+03 -0.65176825446E+03 -0.19905570840E+03  0.90591322253E+03  0.89944649716E+02 0.  0.
         11    1    3    3    0    0  0.16075720843E+03  0.89400349026E+02  0.87659815614E+02  0.20376345537E+03  0.00000000000E+00 0.  1.
        -11    1    3    3    0    0  0.80077253142E+03  0.51724487326E+03  0.25196782017E+03  0.98603584539E+03  0.00000000000E+00 0. -1.
          4    1    5    5  502    0 -0.45462835393E+02 -0.81926346995E+01  0.16672772061E+02  0.49111811141E+02  0.00000000000E+00 0. -1.
          3    1    6    6  503    0 -0.33526796189E+03 -0.39759672722E+03 -0.15876333978E+03  0.54377712513E+03  0.00000000000E+00 0. -1.
         -4    1    5    5    0  502 -0.32601292882E+03  0.53315666878E+02  0.38791232643E+03  0.50951247589E+03  0.00000000000E+00 0.  1.
         -3    1    6    6    0  503 -0.25478601376E+03 -0.25417152724E+03 -0.40292368615E+02  0.36213609739E+03  0.00000000000E+00 0.  1.
<mgrwt>
<rscale>  0 0.25977505E+04</rscale>
<asrwt>0</asrwt>
<pdfrwt beam="1">  1        2 0.24611491E+00 0.25977505E+04</pdfrwt>
<pdfrwt beam="2">  1       -2 0.16224460E+00 0.25977505E+04</pdfrwt>
<totfact> 0.23936075E+00</totfact>
</mgrwt>
</event>
<event>
12    1  0.4403484E-008  0.1414983E+04  0.7818608E-02  0.8943044E-01
         -2   -1    0    0    0  501 -0.00000000000E+00  0.00000000000E+00  0.21324617434E+04  0.21324617434E+04  0.00000000000E+00 0.  1.
          2   -1    0    0  501    0  0.00000000000E+00 -0.00000000000E+00 -0.23472608144E+03  0.23472608144E+03  0.00000000000E+00 0. -1.
         23    2    1    2    0    0 -0.38196980257E+03 -0.64452771410E+01  0.28328061613E+03  0.48428900171E+03  0.91353478479E+02 0.  0.
        254    2    1    2    0    0  0.38196980257E+03  0.64452771410E+01  0.16144550459E+04  0.18828988232E+04  0.89044955583E+03 0.  0.
         23    2    4    4    0    0  0.32108429653E+03  0.14774192389E+03  0.16586631806E+04  0.16983856384E+04  0.91801027001E+02 0.  0.
         23    2    4    4    0    0  0.60885506038E+02 -0.14129664675E+03 -0.44208134683E+02  0.18451318479E+03  0.91754939720E+02 0.  0.
         13    1    3    3    0    0 -0.12222629466E+03 -0.21586733753E+02  0.46656397574E+02  0.13259741179E+03  0.00000000000E+00 0. -1.
        -13    1    3    3    0    0 -0.25974350791E+03  0.15141456612E+02  0.23662421856E+03  0.35169158992E+03  0.00000000000E+00 0.  1.
          3    1    5    5  502    0  0.78274258043E+02  0.80626464920E+02  0.56776819496E+03  0.57878165963E+03  0.00000000000E+00 0. -1.
          3    1    6    6  503    0  0.82348707271E+02 -0.12534811216E+03 -0.48075277195E+02  0.15749505100E+03  0.00000000000E+00 0. -1.
         -3    1    5    5    0  502  0.24281003849E+03  0.67115458967E+02  0.10908949856E+04  0.11196039787E+04  0.00000000000E+00 0.  1.
         -3    1    6    6    0  503 -0.21463201233E+02 -0.15948534587E+02  0.38671425116E+01  0.27018133796E+02  0.00000000000E+00 0.  1.
<mgrwt>
<rscale>  0 0.14149832E+04</rscale>
<asrwt>0</asrwt>
<pdfrwt beam="1">  1        2 0.36111706E-01 0.14149832E+04</pdfrwt>
<pdfrwt beam="2">  1       -2 0.32807102E+00 0.14149832E+04</pdfrwt>
<totfact> 0.30181017E+00</totfact>
</mgrwt>
</event>
<event>
12    1  0.4403484E-008  0.1418017E+04  0.7818608E-02  0.8940880E-01
          1   -1    0    0  501    0  0.00000000000E+00  0.00000000000E+00  0.75668760941E+03  0.75668760941E+03  0.00000000000E+00 0. -1.
         -1   -1    0    0    0  501 -0.00000000000E+00 -0.00000000000E+00 -0.66433323557E+03  0.66433323557E+03  0.00000000000E+00 0.  1.
         23    2    1    2    0    0 -0.62844625776E+02  0.68661159221E+01 -0.38358685591E+03  0.39912211820E+03  0.90349314752E+02 0.  0.
        254    2    1    2    0    0  0.62844625776E+02 -0.68661159221E+01  0.47594122975E+03  0.10218987268E+04  0.90208667160E+03 0.  0.
         23    2    4    4    0    0 -0.11479078013E+03  0.23609279349E+03 -0.15448832147E+03  0.31726383832E+03  0.88729765529E+02 0.  0.
         23    2    4    4    0    0  0.17763540591E+03 -0.24295890942E+03  0.63042955121E+03  0.70463488846E+03  0.92116979410E+02 0.  0.
         11    1    3    3    0    0  0.11230494392E+02 -0.26656132069E+02 -0.10532664760E+03  0.10922626093E+03  0.00000000000E+00 0. -1.
        -11    1    3    3    0    0 -0.74075120169E+02  0.33522247991E+02 -0.27826020831E+03  0.28989585727E+03  0.00000000000E+00 0.  1.
          4    1    5    5  502    0 -0.16485341559E+02  0.23382759701E+02  0.10720457239E+02  0.30552383556E+02  0.00000000000E+00 0. -1.
          4    1    6    6  503    0  0.93698767843E+02 -0.60884590214E+02  0.18436682689E+03  0.21558645431E+03  0.00000000000E+00 0. -1.
         -4    1    5    5    0  502 -0.98305438573E+02  0.21271003379E+03 -0.16520877871E+03  0.28671145476E+03  0.00000000000E+00 0.  1.
         -4    1    6    6    0  503  0.83936638065E+02 -0.18207431920E+03  0.44606272432E+03  0.48904843415E+03  0.00000000000E+00 0.  1.
<mgrwt>
<rscale>  0 0.14180165E+04</rscale>
<asrwt>0</asrwt>
<pdfrwt beam="1">  1        1 0.11641348E+00 0.14180165E+04</pdfrwt>
<pdfrwt beam="2">  1       -1 0.10220511E+00 0.14180165E+04</pdfrwt>
<totfact> 0.21326635E+01</totfact>
</mgrwt>
</event>
<event>
12    1  0.4431551E-008  0.3796526E+04  0.7818608E-02  0.8046901E-01
         -3   -1    0    0    0  501 -0.00000000000E+00  0.00000000000E+00  0.14299273372E+04  0.14299273372E+04  0.00000000000E+00 0.  1.
          3   -1    0    0  501    0  0.00000000000E+00 -0.00000000000E+00 -0.25199903039E+04  0.25199903039E+04  0.00000000000E+00 0. -1.
         23    2    1    2    0    0  0.63681378691E+02 -0.11672399431E+04  0.89507937002E+03  0.14751774109E+04  0.92070148930E+02 0.  0.
        254    2    1    2    0    0 -0.63681378691E+02  0.11672399431E+04 -0.19851423367E+04  0.24747402302E+04  0.90390525353E+03 0.  0.
         23    2    4    4    0    0  0.21475015243E+03 -0.33353892944E+02 -0.40994309999E+03  0.47273756475E+03  0.90539216649E+02 0.  0.
         23    2    4    4    0    0 -0.27843153112E+03  0.12005938360E+04 -0.15751992367E+04  0.20020026654E+04  0.88387558937E+02 0.  0.
         13    1    3    3    0    0 -0.78736192135E+01 -0.26537711472E+03  0.16449353679E+03  0.31232215826E+03  0.00000000000E+00 0. -1.
        -13    1    3    3    0    0  0.71554997905E+02 -0.90186282833E+03  0.73058583323E+03  0.11628552526E+04  0.00000000000E+00 0.  1.
          2    1    5    5  502    0 -0.56441393594E+01 -0.12732208968E+02 -0.20549724559E+02  0.24824516788E+02  0.00000000000E+00 0.  1.
          3    1    6    6  503    0 -0.39837064665E+02  0.79727430583E+02 -0.12922680035E+03  0.15698095692E+03  0.00000000000E+00 0. -1.
         -2    1    5    5    0  502  0.22039429179E+03 -0.20621683977E+02 -0.38939337543E+03  0.44791304796E+03  0.00000000000E+00 0. -1.
         -3    1    6    6    0  503 -0.23859446646E+03  0.11208664054E+04 -0.14459724363E+04  0.18450217085E+04  0.00000000000E+00 0.  1.
<mgrwt>
<rscale>  0 0.37965263E+04</rscale>
<asrwt>0</asrwt>
<pdfrwt beam="1">  1        3 0.38769082E+00 0.37965263E+04</pdfrwt>
<pdfrwt beam="2">  1       -3 0.21998882E+00 0.37965263E+04</pdfrwt>
<totfact> 0.29468480E-03</totfact>
</mgrwt>
</event>
<event>
12    1  0.4403484E-008  0.1342932E+04  0.7818608E-02  0.8996196E-01
         -1   -1    0    0    0  501 -0.00000000000E+00  0.00000000000E+00  0.41207594511E+03  0.41207594511E+03  0.00000000000E+00 0.  1.
          1   -1    0    0  501    0  0.00000000000E+00 -0.00000000000E+00 -0.10941348198E+04  0.10941348198E+04  0.00000000000E+00 0. -1.
         23    2    1    2    0    0  0.99910804908E+02 -0.30720114051E+03 -0.10102120856E+02  0.33609936101E+03  0.92228075739E+02 0.  0.
        254    2    1    2    0    0 -0.99910804908E+02  0.30720114051E+03 -0.67195675381E+03  0.11701114039E+04  0.90182044155E+03 0.  0.
         23    2    4    4    0    0  0.17360314667E+03 -0.85313028530E+02 -0.64832822337E+03  0.68244222252E+03  0.89339445321E+02 0.  0.
         23    2    4    4    0    0 -0.27351395158E+03  0.39251416904E+03 -0.23628530443E+02  0.48766918135E+03  0.91573295133E+02 0.  0.
         11    1    3    3    0    0  0.10584582089E+03 -0.18783088335E+03 -0.17796592833E+02  0.21633422581E+03  0.00000000000E+00 0.  1.
        -11    1    3    3    0    0 -0.59350159861E+01 -0.11937025716E+03  0.76944719770E+01  0.11976513519E+03  0.00000000000E+00 0. -1.
          3    1    6    6  502    0 -0.12421199409E+02  0.41077455923E+02 -0.25377010175E+02  0.49856155340E+02  0.00000000000E+00 0.  1.
          3    1    5    5  503    0  0.16411820896E+03 -0.10039211942E+03 -0.55421886830E+03  0.58666167263E+03  0.00000000000E+00 0. -1.
         -3    1    5    5    0  503  0.94849377068E+01  0.15079090890E+02 -0.94109355076E+02  0.95780549895E+02  0.00000000000E+00 0.  1.
         -3    1    6    6    0  502 -0.26109275217E+03  0.35143671312E+03  0.17484797319E+01  0.43781302601E+03  0.00000000000E+00 0. -1.
<mgrwt>
<rscale>  0 0.13429321E+04</rscale>
<asrwt>0</asrwt>
<pdfrwt beam="1">  1        1 0.16832843E+00 0.13429321E+04</pdfrwt>
<pdfrwt beam="2">  1       -1 0.63396299E-01 0.13429321E+04</pdfrwt>
<totfact> 0.31656547E+01</totfact>
</mgrwt>
</event>
<event>
12    1  0.4403484E-008  0.2855622E+04  0.7818608E-02  0.8286205E-01
         -1   -1    0    0    0  501 -0.00000000000E+00  0.00000000000E+00  0.90703891720E+03  0.90703891720E+03  0.00000000000E+00 0.  1.
          1   -1    0    0  501    0  0.00000000000E+00 -0.00000000000E+00 -0.22475811888E+04  0.22475811888E+04  0.00000000000E+00 0. -1.
         23    2    1    2    0    0 -0.36414784902E+03  0.11501371720E+04 -0.10922512518E+04  0.16299558640E+04  0.91236786391E+02 0.  0.
        254    2    1    2    0    0  0.36414784902E+03 -0.11501371720E+04 -0.24829101974E+03  0.15246642419E+04  0.89862864951E+03 0.  0.
         23    2    4    4    0    0  0.55343773127E+03 -0.48998697156E+03 -0.35151952332E+03  0.82364761668E+03  0.91917715934E+02 0.  0.
         23    2    4    4    0    0 -0.18928988224E+03 -0.66015020046E+03  0.10322850358E+03  0.70101662524E+03  0.95599363148E+02 0.  0.
         11    1    3    3    0    0 -0.30559820398E+03  0.10524637826E+04 -0.98547641818E+03  0.14738500761E+04  0.00000000000E+00 0. -1.
        -11    1    3    3    0    0 -0.58549645046E+02  0.97673389424E+02 -0.10677483366E+03  0.15610578798E+03  0.00000000000E+00 0.  1.
          4    1    6    6  502    0 -0.18098548221E+03 -0.57496203460E+03  0.61826030439E+02  0.60593691425E+03  0.00000000000E+00 0.  1.
          4    1    5    5  503    0  0.16911018952E+03 -0.14031976870E+03 -0.59671129252E+02  0.22770273901E+03  0.00000000000E+00 0. -1.
         -4    1    5    5    0  503  0.38432754175E+03 -0.34966720286E+03 -0.29184839407E+03  0.59594487767E+03  0.00000000000E+00 0.  1.
         -4    1    6    6    0  502 -0.83044000294E+01 -0.85188165854E+02  0.41402473136E+02  0.95079710997E+02  0.00000000000E+00 0. -1.
<mgrwt>
<rscale>  0 0.28556215E+04</rscale>
<asrwt>0</asrwt>
<pdfrwt beam="1">  1        1 0.34578172E+00 0.28556215E+04</pdfrwt>
<pdfrwt beam="2">  1       -1 0.13954445E+00 0.28556215E+04</pdfrwt>
<totfact> 0.73614473E-01</totfact>
</mgrwt>
</event>
<event>
12    1  0.4403484E-008  0.2086658E+04  0.7818608E-02  0.8567144E-01
          2   -1    0    0  501    0  0.00000000000E+00  0.00000000000E+00  0.50790948112E+03  0.50790948112E+03  0.00000000000E+00 0. -1.
         -2   -1    0    0    0  501 -0.00000000000E+00 -0.00000000000E+00 -0.21431676642E+04  0.21431676642E+04  0.00000000000E+00 0.  1.
         23    2    1    2    0    0 -0.50813854524E+02 -0.51370962197E+02  0.40593336417E+03  0.42216352180E+03  0.90659359278E+02 0.  0.
        254    2    1    2    0    0  0.50813854524E+02  0.51370962197E+02 -0.20411915473E+04  0.22289136236E+04  0.89239676435E+03 0.  0.
         23    2    4    4    0    0 -0.14898852286E+03  0.33145325799E+03 -0.16818675202E+04  0.17229245337E+04  0.87930376514E+02 0.  0.
         23    2    4    4    0    0  0.19980237738E+03 -0.28008229579E+03 -0.35932402706E+03  0.50598908985E+03  0.92434410255E+02 0.  0.
         13    1    3    3    0    0  0.38566452820E+01  0.23092567597E+02  0.90747581978E+02  0.93719069703E+02  0.00000000000E+00 0. -1.
        -13    1    3    3    0    0 -0.54670499806E+02 -0.74463529794E+02  0.31518578219E+03  0.32844445209E+03  0.00000000000E+00 0.  1.
          4    1    5    5  502    0 -0.12260116480E+03  0.32306413695E+03 -0.15278287526E+04  0.15664169878E+04  0.00000000000E+00 0. -1.
          3    1    6    6  503    0  0.15332940587E+03 -0.26695088561E+03 -0.30638502881E+03  0.43433220916E+03  0.00000000000E+00 0. -1.
         -4    1    5    5    0  502 -0.26387358056E+02  0.83891210337E+01 -0.15403876760E+03  0.15650754596E+03  0.00000000000E+00 0.  1.
         -3    1    6    6    0  503  0.46472971515E+02 -0.13131410180E+02 -0.52938998245E+02  0.71656880688E+02  0.00000000000E+00 0.  1.
<mgrwt>
<rscale>  0 0.20866578E+04</rscale>
<asrwt>0</asrwt>
<pdfrwt beam="1">  1        2 0.78139921E-01 0.20866578E+04</pdfrwt>
<pdfrwt beam="2">  1       -2 0.32971810E+00 0.20866578E+04</pdfrwt>
<totfact> 0.11643588E+00</totfact>
</mgrwt>
</event>
<event>
12    1  0.4403484E-008  0.1539252E+04  0.7818608E-02  0.8858763E-01
         -2   -1    0    0    0  501 -0.00000000000E+00  0.00000000000E+00  0.46431226824E+03  0.46431226824E+03  0.00000000000E+00 0.  1.
          2   -1    0    0  501    0  0.00000000000E+00 -0.00000000000E+00 -0.12757016236E+04  0.12757016236E+04  0.00000000000E+00 0. -1.
         23    2    1    2    0    0 -0.17870913792E+03 -0.28636812851E+03 -0.70194606088E+03  0.78461537869E+03  0.94601052242E+02 0.  0.
        254    2    1    2    0    0  0.17870913792E+03  0.28636812851E+03 -0.10944329443E+03  0.95539851310E+03  0.88705401365E+03 0.  0.
         23    2    4    4    0    0  0.36508974405E+03 -0.17499351123E+03 -0.16477464551E+03  0.44613366736E+03  0.89282221999E+02 0.  0.
         23    2    4    4    0    0 -0.18638060612E+03  0.46136163974E+03  0.55331351079E+02  0.50926484574E+03  0.93256805275E+02 0.  0.
         13    1    3    3    0    0 -0.68442461649E+02 -0.14430449384E+03 -0.23406074586E+03  0.28335947179E+03  0.00000000000E+00 0.  1.
        -13    1    3    3    0    0 -0.11026667627E+03 -0.14206363468E+03 -0.46788531502E+03  0.50125590691E+03  0.00000000000E+00 0. -1.
          2    1    5    5  502    0  0.67193699578E+02 -0.85105339418E+01 -0.56221041972E+02  0.88024019514E+02  0.00000000000E+00 0.  1.
          1    1    6    6  503    0 -0.14834982940E+03  0.34056415926E+03  0.10355351789E+01  0.37147367442E+03  0.00000000000E+00 0. -1.
         -2    1    5    5    0  502  0.29789604447E+03 -0.16648297729E+03 -0.10855360354E+03  0.35810964784E+03  0.00000000000E+00 0. -1.
         -1    1    6    6    0  503 -0.38030776723E+02  0.12079748049E+03  0.54295815900E+02  0.13779117132E+03  0.00000000000E+00 0.  1.
<mgrwt>
<rscale>  0 0.15392517E+04</rscale>
<asrwt>0</asrwt>
<pdfrwt beam="1">  1        2 0.19626179E+00 0.15392517E+04</pdfrwt>
<pdfrwt beam="2">  1       -2 0.71432656E-01 0.15392517E+04</pdfrwt>
<totfact> 0.29263150E+01</totfact>
</mgrwt>
</event>
<event>
12    1  0.4403484E-008  0.1411802E+04  0.7818608E-02  0.8945320E-01
         -2   -1    0    0    0  501 -0.00000000000E+00  0.00000000000E+00  0.68435183351E+03  0.68435183351E+03  0.00000000000E+00 0. -1.
          2   -1    0    0  501    0  0.00000000000E+00 -0.00000000000E+00 -0.72812898272E+03  0.72812898272E+03  0.00000000000E+00 0.  1.
         23    2    1    2    0    0  0.29133183174E+03  0.22759393731E+03 -0.19182159604E+03  0.42570651214E+03  0.88075384125E+02 0.  0.
        254    2    1    2    0    0 -0.29133183174E+03 -0.22759393731E+03  0.14804444682E+03  0.98677430409E+03  0.90284723652E+03 0.  0.
         23    2    4    4    0    0  0.27278484291E+02 -0.50883030242E+03  0.18812338585E+03  0.55086298694E+03  0.91690946719E+02 0.  0.
         23    2    4    4    0    0 -0.31861031603E+03  0.28123636512E+03 -0.40078939025E+02  0.43591131715E+03  0.88351165920E+02 0.  0.
         11    1    3    3    0    0  0.41466291629E+02  0.42160722125E+02 -0.69793447078E+02  0.91477347396E+02  0.00000000000E+00 0. -1.
        -11    1    3    3    0    0  0.24986554011E+03  0.18543321518E+03 -0.12202814896E+03  0.33422916475E+03  0.00000000000E+00 0.  1.
          1    1    5    5  502    0 -0.12151875874E+02 -0.38856100274E+03  0.16443474713E+03  0.42209727197E+03  0.00000000000E+00 0. -1.
          1    1    6    6  503    0 -0.18298137925E+03  0.21719695971E+03 -0.30108853344E+02  0.28559280017E+03  0.00000000000E+00 0. -1.
         -1    1    5    5    0  502  0.39430360165E+02 -0.12026929968E+03  0.23688638720E+02  0.12876571497E+03  0.00000000000E+00 0.  1.
         -1    1    6    6    0  503 -0.13562893679E+03  0.64039405401E+02 -0.99700856816E+01  0.15031851698E+03  0.00000000000E+00 0.  1.
<mgrwt>
<rscale>  0 0.14118023E+04</rscale>
<asrwt>0</asrwt>
<pdfrwt beam="1">  1        2 0.11201984E+00 0.14118023E+04</pdfrwt>
<pdfrwt beam="2">  1       -2 0.10528490E+00 0.14118023E+04</pdfrwt>
<totfact> 0.27675785E+01</totfact>
</mgrwt>
</event>
<event>
12    1  0.4403484E-008  0.1134742E+04  0.7818608E-02  0.9171976E-01
         -2   -1    0    0    0  501 -0.00000000000E+00  0.00000000000E+00  0.69587007494E+03  0.69587007494E+03  0.00000000000E+00 0.  1.
          2   -1    0    0  501    0  0.00000000000E+00 -0.00000000000E+00 -0.46260058979E+03  0.46260058979E+03  0.00000000000E+00 0. -1.
         23    2    1    2    0    0  0.65038611503E+02  0.10404474099E+03 -0.92905484404E+02  0.17949451872E+03  0.92366249817E+02 0.  0.
        254    2    1    2    0    0 -0.65038611503E+02 -0.10404474099E+03  0.32617496955E+03  0.97897614601E+03  0.91484908841E+03 0.  0.
         23    2    4    4    0    0 -0.79613173346E+02 -0.10034330076E+03 -0.30374723527E+03  0.34226782061E+03  0.92075201427E+02 0.  0.
         23    2    4    4    0    0  0.14574561843E+02 -0.37014402301E+01  0.62992220482E+03  0.63670832539E+03  0.91484364721E+02 0.  0.
         11    1    3    3    0    0  0.22126532690E+02 -0.92687116165E+01 -0.41372326975E+02  0.47824281523E+02  0.00000000000E+00 0.  1.
        -11    1    3    3    0    0  0.42912078814E+02  0.11331345261E+03 -0.51533157429E+02  0.13167023720E+03  0.00000000000E+00 0. -1.
          2    1    5    5  502    0 -0.99884190744E+02 -0.74358240613E+02 -0.24802435090E+03  0.27752851772E+03  0.00000000000E+00 0. -1.
          1    1    6    6  503    0  0.27609638653E+02  0.25891087187E+02  0.53677732312E+03  0.53811015151E+03  0.00000000000E+00 0. -1.
         -2    1    5    5    0  502  0.20271017398E+02 -0.25985060146E+02 -0.55722884371E+02  0.64739302898E+02  0.00000000000E+00 0.  1.
         -1    1    6    6    0  503 -0.13035076810E+02 -0.29592527417E+02  0.93144881696E+02  0.98598173881E+02  0.00000000000E+00 0.  1.
<mgrwt>
<rscale>  0 0.11347421E+04</rscale>
<asrwt>0</asrwt>
<pdfrwt beam="1">  1        2 0.71169321E-01 0.11347421E+04</pdfrwt>
<pdfrwt beam="2">  1       -2 0.10705693E+00 0.11347421E+04</pdfrwt>
<totfact> 0.46835853E+01</totfact>
</mgrwt>
</event>
<event>
12    1  0.4403484E-008  0.1448326E+04  0.7818608E-02  0.8919562E-01
         -1   -1    0    0    0  501 -0.00000000000E+00  0.00000000000E+00  0.27726922992E+03  0.27726922992E+03  0.00000000000E+00 0.  1.
          1   -1    0    0  501    0  0.00000000000E+00 -0.00000000000E+00 -0.18913453053E+04  0.18913453053E+04  0.00000000000E+00 0. -1.
         23    2    1    2    0    0 -0.20949535911E+03  0.29881866784E+03 -0.22655421981E+03  0.43900920279E+03  0.90671736945E+02 0.  0.
        254    2    1    2    0    0  0.20949535911E+03 -0.29881866784E+03 -0.13875218556E+04  0.17296053325E+04  0.96599006444E+03 0.  0.
         23    2    4    4    0    0  0.23891184425E+03 -0.19407822448E+03  0.14741449301E+02  0.32011047583E+03  0.86649754000E+02 0.  0.
         23    2    4    4    0    0 -0.29416485145E+02 -0.10474044336E+03 -0.14022633049E+04  0.14094948566E+04  0.92181801558E+02 0.  0.
         13    1    3    3    0    0 -0.17005146543E+03  0.19193408272E+03 -0.12039880821E+03  0.28328795601E+03  0.00000000000E+00 0.  1.
        -13    1    3    3    0    0 -0.39443893677E+02  0.10688458512E+03 -0.10615541160E+03  0.15572124677E+03  0.00000000000E+00 0. -1.
          4    1    5    5  502    0  0.13970611183E+02 -0.47587898016E+02 -0.97987095812E+01  0.50554927790E+02  0.00000000000E+00 0. -1.
          3    1    6    6  503    0  0.25952248175E+02 -0.17354813326E+02 -0.16597079124E+03  0.16888165169E+03  0.00000000000E+00 0. -1.
         -4    1    5    5    0  502  0.22494123307E+03 -0.14649032647E+03  0.24540158883E+02  0.26955554804E+03  0.00000000000E+00 0.  1.
         -3    1    6    6    0  503 -0.55368733320E+02 -0.87385630032E+02 -0.12362925137E+04  0.12406132049E+04  0.00000000000E+00 0.  1.
<mgrwt>
<rscale>  0 0.14483257E+04</rscale>
<asrwt>0</asrwt>
<pdfrwt beam="1">  1        1 0.29097621E+00 0.14483257E+04</pdfrwt>
<pdfrwt beam="2">  1       -1 0.42656804E-01 0.14483257E+04</pdfrwt>
<totfact> 0.18567597E+01</totfact>
</mgrwt>
</event>
<event>
12    1  0.4403484E-008  0.1578037E+04  0.7818608E-02  0.8834155E-01
         -1   -1    0    0    0  501 -0.00000000000E+00  0.00000000000E+00  0.43122138837E+03  0.43122138837E+03  0.00000000000E+00 0.  1.
          1   -1    0    0  501    0  0.00000000000E+00 -0.00000000000E+00 -0.14436906743E+04  0.14436906743E+04  0.00000000000E+00 0. -1.
         23    2    1    2    0    0 -0.39055281437E+03 -0.16239347830E+03  0.39854753724E+02  0.43596312895E+03  0.97838161259E+02 0.  0.
        254    2    1    2    0    0  0.39055281437E+03  0.16239347830E+03 -0.10523240396E+04  0.14389489337E+04  0.88559867139E+03 0.  0.
         23    2    4    4    0    0  0.67794514244E+02  0.49426078379E+03 -0.50849344556E+03  0.71839677949E+03  0.92943692893E+02 0.  0.
         23    2    4    4    0    0  0.32275830013E+03 -0.33186730549E+03 -0.54383059406E+03  0.72055215419E+03  0.95576477807E+02 0.  0.
         13    1    3    3    0    0 -0.38110116273E+03 -0.13568007789E+03  0.45454372489E+02  0.40707896010E+03  0.00000000000E+00 0.  1.
        -13    1    3    3    0    0 -0.94516516401E+01 -0.26713400407E+02 -0.55996187652E+01  0.28884168853E+02  0.00000000000E+00 0. -1.
          2    1    5    5  502    0  0.49309513792E+01  0.14343673606E+03 -0.93176202933E+02  0.17111462920E+03  0.00000000000E+00 0. -1.
          4    1    6    6  503    0  0.21933655274E+03 -0.22674597509E+03 -0.43463971760E+03  0.53706046652E+03  0.00000000000E+00 0. -1.
         -2    1    5    5    0  502  0.62863562864E+02  0.35082404773E+03 -0.41531724263E+03  0.54728215029E+03  0.00000000000E+00 0.  1.
         -4    1    6    6    0  503  0.10342174739E+03 -0.10512133041E+03 -0.10919087646E+03  0.18349168767E+03  0.00000000000E+00 0.  1.
<mgrwt>
<rscale>  0 0.15780371E+04</rscale>
<asrwt>0</asrwt>
<pdfrwt beam="1">  1        1 0.22210626E+00 0.15780371E+04</pdfrwt>
<pdfrwt beam="2">  1       -1 0.66341751E-01 0.15780371E+04</pdfrwt>
<totfact> 0.15845410E+01</totfact>
</mgrwt>
</event>
<event>
12    1  0.4403484E-008  0.1381717E+04  0.7818608E-02  0.8967160E-01
         -2   -1    0    0    0  501 -0.00000000000E+00  0.00000000000E+00  0.29552837773E+03  0.29552837773E+03  0.00000000000E+00 0.  1.
          2   -1    0    0  501    0  0.00000000000E+00 -0.00000000000E+00 -0.16150252769E+04  0.16150252769E+04  0.00000000000E+00 0. -1.
         23    2    1    2    0    0 -0.32050547543E+02  0.35221952838E+03 -0.28254453440E+03  0.46177421918E+03  0.91204066852E+02 0.  0.
        254    2    1    2    0    0  0.32050547543E+02 -0.35221952838E+03 -0.10369523648E+04  0.14487794354E+04  0.94794821165E+03 0.  0.
         23    2    4    4    0    0 -0.26108663588E+03 -0.42045414475E+03 -0.17706123008E+03  0.53333230529E+03  0.90248265307E+02 0.  0.
         23    2    4    4    0    0  0.29313718343E+03  0.68234616372E+02 -0.85989113468E+03  0.91544713014E+03  0.89695671013E+02 0.  0.
         13    1    3    3    0    0  0.15174202829E+01  0.18190211694E+03 -0.91443805704E+02  0.20359924438E+03  0.00000000000E+00 0. -1.
        -13    1    3    3    0    0 -0.33567967826E+02  0.17031741144E+03 -0.19110072870E+03  0.25817497480E+03  0.00000000000E+00 0.  1.
          1    1    5    5  502    0 -0.22731189920E+03 -0.30442045464E+03 -0.15579047017E+03  0.41062535640E+03  0.00000000000E+00 0. -1.
          1    1    6    6  503    0  0.27008535372E+03  0.38315153248E+02 -0.79328413763E+03  0.83887655366E+03  0.00000000000E+00 0. -1.
         -1    1    5    5    0  502 -0.33774736683E+02 -0.11603369011E+03 -0.21270759912E+02  0.12270694889E+03  0.00000000000E+00 0.  1.
         -1    1    6    6    0  503  0.23051829709E+02  0.29919463123E+02 -0.66606997048E+02  0.76570576479E+02  0.00000000000E+00 0.  1.
<mgrwt>
<rscale>  0 0.13817175E+04</rscale>
<asrwt>0</asrwt>
<pdfrwt beam="1">  1        2 0.24846543E+00 0.13817175E+04</pdfrwt>
<pdfrwt beam="2">  1       -2 0.45465904E-01 0.13817175E+04</pdfrwt>
<totfact> 0.48892035E+01</totfact>
</mgrwt>
</event>
<event>
12    1  0.4403484E-008  0.1791635E+04  0.7818608E-02  0.8710760E-01
         -2   -1    0    0    0  501 -0.00000000000E+00  0.00000000000E+00  0.71172694382E+03  0.71172694382E+03  0.00000000000E+00 0.  1.
          2   -1    0    0  501    0  0.00000000000E+00 -0.00000000000E+00 -0.11275241787E+04  0.11275241787E+04  0.00000000000E+00 0. -1.
         23    2    1    2    0    0  0.13723119816E+03 -0.37629522741E+03 -0.70361492589E+03  0.81472053819E+03  0.90912548528E+02 0.  0.
        254    2    1    2    0    0 -0.13723119816E+03  0.37629522741E+03  0.28781769105E+03  0.10245305843E+04  0.89799409517E+03 0.  0.
         23    2    4    4    0    0  0.35179145406E+03  0.12387912622E+02  0.71297959800E+02  0.37174653800E+03  0.95923938171E+02 0.  0.
         23    2    4    4    0    0 -0.48902265222E+03  0.36390731479E+03  0.21651973125E+03  0.65278404630E+03  0.87604388774E+02 0.  0.
         11    1    3    3    0    0  0.98107702095E+02 -0.23446804598E+03 -0.52520080167E+03  0.58346916617E+03  0.00000000000E+00 0. -1.
        -11    1    3    3    0    0  0.39123496068E+02 -0.14182718143E+03 -0.17841412423E+03  0.23125137202E+03  0.00000000000E+00 0.  1.
          2    1    5    5  502    0  0.37369520388E+02  0.99532178469E+01 -0.21055691844E+02  0.44032825921E+02  0.00000000000E+00 0. -1.
          3    1    6    6  503    0 -0.87496040739E+02  0.70666590073E+02  0.77241964234E+02  0.13643916277E+03  0.00000000000E+00 0. -1.
         -2    1    5    5    0  502  0.31442193367E+03  0.24346947749E+01  0.92353651644E+02  0.32771371208E+03  0.00000000000E+00 0.  1.
         -3    1    6    6    0  503 -0.40152661148E+03  0.29324072472E+03  0.13927776702E+03  0.51634488353E+03  0.00000000000E+00 0.  1.
<mgrwt>
<rscale>  0 0.17916354E+04</rscale>
<asrwt>0</asrwt>
<pdfrwt beam="1">  1        2 0.17346526E+00 0.17916354E+04</pdfrwt>
<pdfrwt beam="2">  1       -2 0.10949645E+00 0.17916354E+04</pdfrwt>
<totfact> 0.13152961E+01</totfact>
</mgrwt>
</event>
<event>
12    1  0.4403484E-008  0.1847698E+04  0.7818608E-02  0.8681338E-01
          2   -1    0    0  501    0  0.00000000000E+00  0.00000000000E+00  0.16169607246E+04  0.16169607246E+04  0.00000000000E+00 0. -1.
         -2   -1    0    0    0  501 -0.00000000000E+00 -0.00000000000E+00 -0.52784004273E+03  0.52784004273E+03  0.00000000000E+00 0.  1.
         23    2    1    2    0    0 -0.61990790758E+03 -0.29154024190E+03  0.39896167588E+03  0.79836267316E+03  0.94504034538E+02 0.  0.
        254    2    1    2    0    0  0.61990790758E+03  0.29154024190E+03  0.69015900604E+03  0.13464380942E+04  0.93128650877E+03 0.  0.
         23    2    4    4    0    0  0.85431757042E+03  0.23407165794E+03  0.46923092235E+03  0.10068609872E+04  0.94569217479E+02 0.  0.
         23    2    4    4    0    0 -0.23440966284E+03  0.57468583954E+02  0.22092808369E+03  0.33957710701E+03  0.90845281995E+02 0.  0.
         13    1    3    3    0    0 -0.10863580447E+03 -0.84175685011E+02  0.53920542697E+02  0.14763031154E+03  0.00000000000E+00 0. -1.
        -13    1    3    3    0    0 -0.51127210311E+03 -0.20736455689E+03  0.34504113318E+03  0.65073236162E+03  0.00000000000E+00 0.  1.
          4    1    5    5  502    0  0.25777390001E+03  0.88066220442E+02  0.19058152474E+03  0.33245204208E+03  0.00000000000E+00 0. -1.
          3    1    6    6  503    0 -0.17029304130E+03  0.73603251003E+02  0.19329822856E+03  0.26792044274E+03  0.00000000000E+00 0.  1.
         -4    1    5    5    0  502  0.59654367041E+03  0.14600543750E+03  0.27864939761E+03  0.67440894514E+03  0.00000000000E+00 0.  1.
         -3    1    6    6    0  503 -0.64116621540E+02 -0.16134667049E+02  0.27629855134E+02  0.71656664262E+02  0.00000000000E+00 0. -1.
<mgrwt>
<rscale>  0 0.18476976E+04</rscale>
<asrwt>0</asrwt>
<pdfrwt beam="1">  1        2 0.24876319E+00 0.18476976E+04</pdfrwt>
<pdfrwt beam="2">  1       -2 0.81206161E-01 0.18476976E+04</pdfrwt>
<totfact> 0.13713089E+01</totfact>
</mgrwt>
</event>
<event>
12    1  0.4403484E-008  0.3135175E+04  0.7818608E-02  0.8206150E-01
          2   -1    0    0  501    0  0.00000000000E+00  0.00000000000E+00  0.24683144656E+04  0.24683144656E+04  0.00000000000E+00 0. -1.
         -2   -1    0    0    0  501 -0.00000000000E+00 -0.00000000000E+00 -0.99555035222E+03  0.99555035222E+03  0.00000000000E+00 0.  1.
         23    2    1    2    0    0 -0.73926832453E+02 -0.82055649772E+02  0.22595007968E+04  0.22639471048E+04  0.88962554734E+02 0.  0.
        254    2    1    2    0    0  0.73926832453E+02  0.82055649772E+02 -0.78673668340E+03  0.11999177131E+04  0.89924946648E+03 0.  0.
         23    2    4    4    0    0 -0.25353482749E+03  0.33860143684E+02  0.67415056283E+02  0.27943197054E+03  0.90061191774E+02 0.  0.
         23    2    4    4    0    0  0.32746165995E+03  0.48195506088E+02 -0.85415173969E+03  0.92048574255E+03  0.90359627555E+02 0.  0.
         11    1    3    3    0    0 -0.42700938878E+02 -0.97585070756E+02  0.17744346107E+04  0.17776288712E+04  0.00000000000E+00 0. -1.
        -11    1    3    3    0    0 -0.31225893574E+02  0.15529420985E+02  0.48506618611E+03  0.48631823352E+03  0.00000000000E+00 0.  1.
          1    1    5    5  502    0 -0.16791506561E+03  0.59177271014E+02  0.66766699705E+02  0.19014523621E+03  0.00000000000E+00 0. -1.
          3    1    6    6  503    0  0.43700169458E+02  0.92809049160E+01 -0.22235354756E+03  0.22679713428E+03  0.00000000000E+00 0. -1.
         -1    1    5    5    0  502 -0.85619761881E+02 -0.25317127330E+02  0.64835657778E+00  0.89286734329E+02  0.00000000000E+00 0.  1.
         -3    1    6    6    0  503  0.28376149049E+03  0.38914601172E+02 -0.63179819213E+03  0.69368860827E+03  0.00000000000E+00 0.  1.
<mgrwt>
<rscale>  0 0.31351755E+04</rscale>
<asrwt>0</asrwt>
<pdfrwt beam="1">  1        2 0.37974068E+00 0.31351755E+04</pdfrwt>
<pdfrwt beam="2">  1       -2 0.15316159E+00 0.31351755E+04</pdfrwt>
<totfact> 0.87116328E-01</totfact>
</mgrwt>
</event>
<event>
12    1  0.4403484E-008  0.2394654E+04  0.7818608E-02  0.8441508E-01
          2   -1    0    0  501    0  0.00000000000E+00  0.00000000000E+00  0.35718877727E+04  0.35718877727E+04  0.00000000000E+00 0. -1.
         -2   -1    0    0    0  501 -0.00000000000E+00 -0.00000000000E+00 -0.40135425188E+03  0.40135425188E+03  0.00000000000E+00 0.  1.
         23    2    1    2    0    0  0.43700262253E+03 -0.11516006967E+03  0.28994129837E+04  0.29358358269E+04  0.91121997656E+02 0.  0.
        254    2    1    2    0    0 -0.43700262253E+03  0.11516006967E+03  0.27112053709E+03  0.10374061977E+04  0.89357268292E+03 0.  0.
         23    2    4    4    0    0 -0.29875926573E+03 -0.26352583225E+03 -0.16150372403E+03  0.43913616077E+03  0.89744925763E+02 0.  0.
         23    2    4    4    0    0 -0.13824335680E+03  0.37868590192E+03  0.43262426112E+03  0.59827003693E+03  0.90824268658E+02 0.  0.
         13    1    3    3    0    0  0.40751515333E+03 -0.92686034555E+02  0.27649049060E+04  0.27963115779E+04  0.00000000000E+00 0. -1.
        -13    1    3    3    0    0  0.29487469196E+02 -0.22474035115E+02  0.13450807771E+03  0.13952424901E+03  0.00000000000E+00 0.  1.
          1    1    5    5  502    0 -0.19084824117E+03 -0.17828077027E+03 -0.59341559545E+02  0.26782177823E+03  0.00000000000E+00 0. -1.
          3    1    6    6  503    0 -0.75492648565E+02  0.31464570874E+03  0.33908705173E+03  0.46870149420E+03  0.00000000000E+00 0. -1.
         -1    1    5    5    0  502 -0.10791102456E+03 -0.85245061975E+02 -0.10216216448E+03  0.17131438254E+03  0.00000000000E+00 0.  1.
         -3    1    6    6    0  503 -0.62750708235E+02  0.64040193176E+02  0.93537209384E+02  0.12956854273E+03  0.00000000000E+00 0.  1.
<mgrwt>
<rscale>  0 0.23946543E+04</rscale>
<asrwt>0</asrwt>
<pdfrwt beam="1">  1        2 0.54952117E+00 0.23946543E+04</pdfrwt>
<pdfrwt beam="2">  1       -2 0.61746810E-01 0.23946543E+04</pdfrwt>
<totfact> 0.15890250E+00</totfact>
</mgrwt>
</event>
<event>
12    1  0.4403484E-008  0.1420846E+04  0.7818608E-02  0.8938866E-01
          2   -1    0    0  501    0  0.00000000000E+00  0.00000000000E+00  0.22848302866E+04  0.22848302866E+04  0.00000000000E+00 0.  1.
         -2   -1    0    0    0  501 -0.00000000000E+00 -0.00000000000E+00 -0.22089201142E+03  0.22089201142E+03  0.00000000000E+00 0. -1.
         23    2    1    2    0    0 -0.80612387702E+02  0.19032354549E+03 -0.18406527182E+02  0.22712353436E+03  0.92330334115E+02 0.  0.
        254    2    1    2    0    0  0.80612387702E+02 -0.19032354549E+03  0.20823448023E+04  0.22785987636E+04  0.90173778936E+03 0.  0.
         23    2    4    4    0    0  0.34093203876E+02 -0.31678978167E+03  0.20895078137E+04  0.21156803263E+04  0.92424169738E+02 0.  0.
         23    2    4    4    0    0  0.46519183827E+02  0.12646623618E+03 -0.71630113342E+01  0.16291843738E+03  0.91287267182E+02 0.  0.
         11    1    3    3    0    0 -0.39082268424E+01  0.64884107508E+02 -0.43154655463E+02  0.78022727025E+02  0.00000000000E+00 0. -1.
        -11    1    3    3    0    0 -0.76704160860E+02  0.12543943798E+03  0.24748128281E+02  0.14910080734E+03  0.00000000000E+00 0.  1.
          4    1    5    5  502    0  0.21122068237E+02 -0.22122057147E+03  0.16974074370E+04  0.17118927216E+04  0.00000000000E+00 0. -1.
          1    1    6    6  503    0  0.39685000848E+02  0.56435148633E+02 -0.45640133824E+02  0.82721503305E+02  0.00000000000E+00 0. -1.
         -4    1    5    5    0  502  0.12971135639E+02 -0.95569210203E+02  0.39210037667E+03  0.40378760467E+03  0.00000000000E+00 0.  1.
         -1    1    6    6    0  503  0.68341829788E+01  0.70031087546E+02  0.38477122490E+02  0.80196934074E+02  0.00000000000E+00 0.  1.
<mgrwt>
<rscale>  0 0.14208459E+04</rscale>
<asrwt>0</asrwt>
<pdfrwt beam="1">  1        2 0.35151234E+00 0.14208459E+04</pdfrwt>
<pdfrwt beam="2">  1       -2 0.33983388E-01 0.14208459E+04</pdfrwt>
<totfact> 0.36494100E+01</totfact>
</mgrwt>
</event>
<event>
12    1  0.4403484E-008  0.1897717E+04  0.7818608E-02  0.8655994E-01
         -2   -1    0    0    0  501 -0.00000000000E+00  0.00000000000E+00  0.38788790581E+03  0.38788790581E+03  0.00000000000E+00 0.  1.
          2   -1    0    0  501    0  0.00000000000E+00 -0.00000000000E+00 -0.23211149497E+04  0.23211149497E+04  0.00000000000E+00 0. -1.
         23    2    1    2    0    0 -0.33440383959E+03 -0.40971934624E+03 -0.33307199415E+02  0.53790271814E+03  0.92380160399E+02 0.  0.
        254    2    1    2    0    0  0.33440383959E+03  0.40971934624E+03 -0.18999198444E+04  0.21711001373E+04  0.90790116228E+03 0.  0.
         23    2    4    4    0    0 -0.13336349428E+02  0.50457865836E+03 -0.47825594729E+03  0.70163965526E+03  0.93765526891E+02 0.  0.
         23    2    4    4    0    0  0.34774018902E+03 -0.94859312122E+02 -0.14216638971E+04  0.14694604821E+04  0.90908436285E+02 0.  0.
         13    1    3    3    0    0 -0.83000686971E+02 -0.46762044782E+02 -0.23295684947E+01  0.95295486563E+02  0.00000000000E+00 0. -1.
        -13    1    3    3    0    0 -0.25140315262E+03 -0.36295730145E+03 -0.30977630920E+02  0.44260723157E+03  0.00000000000E+00 0.  1.
          2    1    5    5  502    0  0.18918133172E+02  0.17323520300E+03 -0.21788920645E+03  0.27900544369E+03  0.00000000000E+00 0.  1.
          3    1    6    6  503    0  0.32825204061E+03 -0.10587316884E+03 -0.13765088807E+04  0.14190613901E+04  0.00000000000E+00 0. -1.
         -2    1    5    5    0  502 -0.32254482600E+02  0.33134345536E+03 -0.26036674084E+03  0.42263421158E+03  0.00000000000E+00 0. -1.
         -3    1    6    6    0  503  0.19488148406E+02  0.11013856721E+02 -0.45155016413E+02  0.50399092010E+02  0.00000000000E+00 0.  1.
<mgrwt>
<rscale>  0 0.18977170E+04</rscale>
<asrwt>0</asrwt>
<pdfrwt beam="1">  1        2 0.35709461E+00 0.18977170E+04</pdfrwt>
<pdfrwt beam="2">  1       -2 0.59675063E-01 0.18977170E+04</pdfrwt>
<totfact> 0.10826749E+01</totfact>
</mgrwt>
</event>
<event>
12    1  0.4403484E-008  0.2772565E+04  0.7818608E-02  0.8311837E-01
         -1   -1    0    0    0  501 -0.00000000000E+00  0.00000000000E+00  0.33026971511E+04  0.33026971511E+04  0.00000000000E+00 0.  1.
          1   -1    0    0  501    0  0.00000000000E+00 -0.00000000000E+00 -0.58188177123E+03  0.58188177123E+03  0.00000000000E+00 0. -1.
         23    2    1    2    0    0  0.54423957367E+03 -0.10391520583E+04  0.66693530383E+03  0.13522607286E+04  0.88162716839E+02 0.  0.
        254    2    1    2    0    0 -0.54423957367E+03  0.10391520583E+04  0.20538800760E+04  0.25323181937E+04  0.90453211870E+03 0.  0.
         23    2    4    4    0    0 -0.60305335589E+02  0.97807899871E+03  0.14043208861E+04  0.17150101968E+04  0.94167736485E+02 0.  0.
         23    2    4    4    0    0 -0.48393423808E+03  0.61073059630E+02  0.64955918988E+03  0.81730799696E+03  0.90238325203E+02 0.  0.
         13    1    3    3    0    0  0.51830341326E+01 -0.28822646520E+00  0.19546580551E-01  0.51910788266E+01  0.00000000000E+00 0. -1.
        -13    1    3    3    0    0  0.53905653954E+03 -0.10388638319E+04  0.66691575725E+03  0.13470696497E+04  0.00000000000E+00 0.  1.
          2    1    5    5  502    0  0.10754344974E+01  0.81886273651E+02  0.16694155567E+03  0.18594623250E+03  0.00000000000E+00 0. -1.
          1    1    6    6  503    0 -0.45538526507E+02  0.29148788095E+02  0.48224626350E+02  0.72450147208E+02  0.00000000000E+00 0. -1.
         -2    1    5    5    0  502 -0.61380770086E+02  0.89619272506E+03  0.12373793305E+04  0.15290639643E+04  0.00000000000E+00 0.  1.
         -1    1    6    6    0  503 -0.43839571157E+03  0.31924271535E+02  0.60133456353E+03  0.74485784975E+03  0.00000000000E+00 0.  1.
<mgrwt>
<rscale>  0 0.27725651E+04</rscale>
<asrwt>0</asrwt>
<pdfrwt beam="1">  1        1 0.89520274E-01 0.27725651E+04</pdfrwt>
<pdfrwt beam="2">  1       -1 0.50810724E+00 0.27725651E+04</pdfrwt>
<totfact> 0.40910148E-02</totfact>
</mgrwt>
</event>
<event>
12    1  0.4403484E-008  0.2534232E+04  0.7818608E-02  0.8390891E-01
         -2   -1    0    0    0  501 -0.00000000000E+00  0.00000000000E+00  0.12440658494E+04  0.12440658494E+04  0.00000000000E+00 0.  1.
          2   -1    0    0  501    0  0.00000000000E+00 -0.00000000000E+00 -0.12905930457E+04  0.12905930457E+04  0.00000000000E+00 0. -1.
         23    2    1    2    0    0  0.66448105819E+03 -0.77399015964E+03 -0.44301038570E+03  0.11159355888E+04  0.91968432977E+02 0.  0.
        254    2    1    2    0    0 -0.66448105819E+03  0.77399015964E+03  0.39648318941E+03  0.14187233063E+04  0.90276301238E+03 0.  0.
         23    2    4    4    0    0 -0.18092231537E+03  0.79616680259E+03  0.42594853234E+03  0.92521670210E+03  0.89327106214E+02 0.  0.
         23    2    4    4    0    0 -0.48355874282E+03 -0.22176642950E+02 -0.29465342932E+02  0.49350660422E+03  0.91431399045E+02 0.  0.
         11    1    3    3    0    0  0.34777825355E+03 -0.34122566109E+03 -0.23211250111E+03  0.53968590736E+03  0.00000000000E+00 0.  1.
        -11    1    3    3    0    0  0.31670280464E+03 -0.43276449855E+03 -0.21089788460E+03  0.57624968147E+03  0.00000000000E+00 0. -1.
          4    1    5    5  502    0 -0.11381083223E+03  0.39536462632E+03  0.17140178212E+03  0.44569570807E+03  0.00000000000E+00 0. -1.
          4    1    6    6  503    0 -0.45761906844E+03 -0.42134185229E+02 -0.32083862485E+02  0.46067328509E+03  0.00000000000E+00 0. -1.
         -4    1    5    5    0  502 -0.67111483139E+02  0.40080217627E+03  0.25454675022E+03  0.47952099403E+03  0.00000000000E+00 0.  1.
         -4    1    6    6    0  503 -0.25939674376E+02  0.19957542279E+02  0.26185195530E+01  0.32833319132E+02  0.00000000000E+00 0.  1.
<mgrwt>
<rscale>  0 0.25342318E+04</rscale>
<asrwt>0</asrwt>
<pdfrwt beam="1">  1        2 0.19855278E+00 0.25342318E+04</pdfrwt>
<pdfrwt beam="2">  1       -2 0.19139475E+00 0.25342318E+04</pdfrwt>
<totfact> 0.22588794E+00</totfact>
</mgrwt>
</event>
<event>
12    1  0.4403484E-008  0.1871921E+04  0.7818608E-02  0.8668961E-01
         -1   -1    0    0    0  501 -0.00000000000E+00  0.00000000000E+00  0.11718470430E+04  0.11718470430E+04  0.00000000000E+00 0.  1.
          1   -1    0    0  501    0  0.00000000000E+00 -0.00000000000E+00 -0.74755641534E+03  0.74755641534E+03  0.00000000000E+00 0. -1.
         23    2    1    2    0    0 -0.85820264613E+02 -0.64347600378E+03 -0.14319617180E+03  0.67133176094E+03  0.93566577201E+02 0.  0.
        254    2    1    2    0    0  0.85820264613E+02  0.64347600378E+03  0.56748679949E+03  0.12480716974E+04  0.90233874407E+03 0.  0.
         23    2    4    4    0    0  0.56599809805E+02  0.81776074520E+03  0.22964501593E+03  0.85600561367E+03  0.89847662315E+02 0.  0.
         23    2    4    4    0    0  0.29220454808E+02 -0.17428474142E+03  0.33784178356E+03  0.39206608376E+03  0.91376896668E+02 0.  0.
         11    1    3    3    0    0 -0.17756494133E+02 -0.27187773188E+03 -0.16826382599E+02  0.27297604534E+03  0.00000000000E+00 0.  1.
        -11    1    3    3    0    0 -0.68063770480E+02 -0.37159827190E+03 -0.12636978920E+03  0.39835571561E+03  0.00000000000E+00 0. -1.
          2    1    5    5  502    0 -0.23811566681E+02  0.18918881520E+03  0.44256482467E+02  0.19574992910E+03  0.00000000000E+00 0. -1.
          3    1    6    6  503    0 -0.58609578789E+01 -0.33082726445E+01  0.82485539439E+02  0.82759650263E+02  0.00000000000E+00 0. -1.
         -2    1    5    5    0  502  0.80411376486E+02  0.62857193000E+03  0.18538853347E+03  0.66025568456E+03  0.00000000000E+00 0.  1.
         -3    1    6    6    0  503  0.35081412687E+02 -0.17097646877E+03  0.25535624412E+03  0.30930643350E+03  0.00000000000E+00 0.  1.
<mgrwt>
<rscale>  0 0.18719207E+04</rscale>
<asrwt>0</asrwt>
<pdfrwt beam="1">  1        1 0.11500868E+00 0.18719207E+04</pdfrwt>
<pdfrwt beam="2">  1       -1 0.18028416E+00 0.18719207E+04</pdfrwt>
<totfact> 0.47818931E+00</totfact>
</mgrwt>
</event>
<event>
12    1  0.4403484E-008  0.1205625E+04  0.7818608E-02  0.9107947E-01
          1   -1    0    0  501    0  0.00000000000E+00  0.00000000000E+00  0.54567501368E+03  0.54567501368E+03  0.00000000000E+00 0. -1.
         -1   -1    0    0    0  501 -0.00000000000E+00 -0.00000000000E+00 -0.66593293419E+03  0.66593293419E+03  0.00000000000E+00 0.  1.
         23    2    1    2    0    0 -0.71762897279E+02 -0.16414670792E+03  0.12881593774E+03  0.23773783281E+03  0.88496758034E+02 0.  0.
        254    2    1    2    0    0  0.71762897279E+02  0.16414670792E+03 -0.24907385825E+03  0.97387011506E+03  0.92427872365E+03 0.  0.
         23    2    4    4    0    0  0.23507634867E+03 -0.13133362884E+03  0.24070771964E+03  0.37211826095E+03  0.89567751297E+02 0.  0.
         23    2    4    4    0    0 -0.16331345139E+03  0.29548033677E+03 -0.48978157789E+03  0.60175185411E+03  0.90771069484E+02 0.  0.
         11    1    3    3    0    0 -0.88832658543E+02 -0.15802847809E+03  0.12121321163E+03  0.21807540848E+03  0.00000000000E+00 0. -1.
        -11    1    3    3    0    0  0.17069761264E+02 -0.61182298315E+01  0.76027261152E+01  0.19662424323E+02  0.00000000000E+00 0.  1.
          4    1    5    5  502    0  0.61031435673E+02 -0.17461017691E+02  0.15068063445E+02  0.65243925504E+02  0.00000000000E+00 0. -1.
          1    1    6    6  503    0 -0.21215211047E+02  0.33338973055E+02 -0.17500351881E+02  0.43218452310E+02  0.00000000000E+00 0. -1.
         -4    1    5    5    0  502  0.17404491300E+03 -0.11387261115E+03  0.22563965620E+03  0.30687433545E+03  0.00000000000E+00 0.  1.
         -1    1    6    6    0  503 -0.14209824034E+03  0.26214136371E+03 -0.47228122601E+03  0.55853340180E+03  0.00000000000E+00 0.  1.
<mgrwt>
<rscale>  0 0.12056251E+04</rscale>
<asrwt>0</asrwt>
<pdfrwt beam="1">  1        1 0.83950002E-01 0.12056251E+04</pdfrwt>
<pdfrwt beam="2">  1       -1 0.10245122E+00 0.12056251E+04</pdfrwt>
<totfact> 0.34999620E+01</totfact>
</mgrwt>
</event>
<event>
12    1  0.4403484E-008  0.1731396E+04  0.7818608E-02  0.8743658E-01
          1   -1    0    0  501    0  0.00000000000E+00  0.00000000000E+00  0.13682873590E+04  0.13682873590E+04  0.00000000000E+00 0. -1.
         -1   -1    0    0    0  501 -0.00000000000E+00 -0.00000000000E+00 -0.54771599648E+03  0.54771599648E+03  0.00000000000E+00 0.  1.
         23    2    1    2    0    0 -0.60522888905E+03 -0.12980731592E+03  0.19713123897E+03  0.65582829652E+03  0.89989342320E+02 0.  0.
        254    2    1    2    0    0  0.60522888905E+03  0.12980731592E+03  0.62344012353E+03  0.12601750589E+04  0.90344432264E+03 0.  0.
         23    2    4    4    0    0 -0.20563901353E+02 -0.28989363042E+03  0.46791226197E+02  0.30700900304E+03  0.87200447833E+02 0.  0.
         23    2    4    4    0    0  0.62579279040E+03  0.41970094634E+03  0.57664889733E+03  0.95316605589E+03  0.90752842493E+02 0.  0.
         11    1    3    3    0    0 -0.42459550227E+03 -0.75656812366E+02  0.17696374133E+03  0.46617749790E+03  0.00000000000E+00 0. -1.
        -11    1    3    3    0    0 -0.18063338678E+03 -0.54150503550E+02  0.20167497636E+02  0.18965079862E+03  0.00000000000E+00 0.  1.
          2    1    6    6  502    0  0.22097249598E+02 -0.31457318626E-01  0.74427988897E+01  0.23317047083E+02  0.00000000000E+00 0.  1.
          2    1    5    5  503    0 -0.67157979578E+01 -0.20470479395E+03 -0.76646271809E+01  0.20495829117E+03  0.00000000000E+00 0. -1.
         -2    1    5    5    0  503 -0.13848103395E+02 -0.85188836468E+02  0.54455853378E+02  0.10205071187E+03  0.00000000000E+00 0.  1.
         -2    1    6    6    0  502  0.60369554081E+03  0.41973240366E+03  0.56920609844E+03  0.92984900880E+03  0.00000000000E+00 0. -1.
<mgrwt>
<rscale>  0 0.17313958E+04</rscale>
<asrwt>0</asrwt>
<pdfrwt beam="1">  1        1 0.21050575E+00 0.17313958E+04</pdfrwt>
<pdfrwt beam="2">  1       -1 0.84264000E-01 0.17313958E+04</pdfrwt>
<totfact> 0.10710833E+01</totfact>
</mgrwt>
</event>
<event>
12    1  0.6622716E-008  0.1607279E+04  0.7818608E-02  0.8816089E-01
         -1   -1    0    0    0  501 -0.00000000000E+00  0.00000000000E+00  0.64032909755E+03  0.64032909755E+03  0.00000000000E+00 0.  1.
          1   -1    0    0  501    0  0.00000000000E+00 -0.00000000000E+00 -0.10086006352E+04  0.10086006352E+04  0.00000000000E+00 0. -1.
         23    2    1    2    0    0 -0.30153838854E+02  0.14308910061E+03 -0.67056072451E+03  0.69230925668E+03  0.90866258479E+02 0.  0.
        254    2    1    2    0    0  0.30153838854E+02 -0.14308910061E+03  0.30228918684E+03  0.95662047608E+03  0.89574563246E+03 0.  0.
         23    2    4    4    0    0 -0.25155607032E+03 -0.14015523043E+03 -0.20719474913E+03  0.36684443996E+03  0.93387547004E+02 0.  0.
         23    2    4    4    0    0  0.28170990917E+03 -0.29338701839E+01  0.50948393597E+03  0.58977603612E+03  0.94301703345E+02 0.  0.
         11    1    3    3    0    0  0.21915714677E+02  0.77775213089E+02 -0.43341058029E+03  0.44087868335E+03  0.00000000000E+00 0. -1.
        -11    1    3    3    0    0 -0.52069553531E+02  0.65313887523E+02 -0.23715014421E+03  0.25143057334E+03  0.00000000000E+00 0.  1.
          1    1    5    5  502    0 -0.20344570518E+03 -0.65155193198E+02 -0.14657222765E+03  0.25907290880E+03  0.00000000000E+00 0. -1.
          1    1    6    6  503    0  0.28578897056E+03 -0.10977462643E+02  0.50315563141E+03  0.57875852460E+03  0.00000000000E+00 0. -1.
         -1    1    5    5    0  502 -0.48110365134E+02 -0.75000037230E+02 -0.60622521475E+02  0.10777153116E+03  0.00000000000E+00 0.  1.
         -1    1    6    6    0  503 -0.40790613924E+01  0.80435924590E+01  0.63283045630E+01  0.11017511522E+02  0.00000000000E+00 0.  1.
<mgrwt>
<rscale>  0 0.16072789E+04</rscale>
<asrwt>0</asrwt>
<pdfrwt beam="1">  1        1 0.15516933E+00 0.16072789E+04</pdfrwt>
<pdfrwt beam="2">  1       -1 0.98512169E-01 0.16072789E+04</pdfrwt>
<totfact> 0.14094808E+01</totfact>
</mgrwt>
</event>
<event>
12    1  0.4403484E-008  0.4412032E+04  0.7818608E-02  0.7926221E-01
         -1   -1    0    0    0  501 -0.00000000000E+00  0.00000000000E+00  0.24561087528E+04  0.24561087528E+04  0.00000000000E+00 0.  1.
          1   -1    0    0  501    0  0.00000000000E+00 -0.00000000000E+00 -0.19813885467E+04  0.19813885467E+04  0.00000000000E+00 0. -1.
         23    2    1    2    0    0 -0.59418149954E+02  0.13481897267E+04  0.18572849478E+04  0.22975455100E+04  0.89788293780E+02 0.  0.
        254    2    1    2    0    0  0.59418149954E+02 -0.13481897267E+04 -0.13825647417E+04  0.21399517895E+04  0.92019690316E+03 0.  0.
         23    2    4    4    0    0  0.21248664125E+03  0.17819888770E+02 -0.34322997693E+03  0.41424577130E+03  0.91239360135E+02 0.  0.
         23    2    4    4    0    0 -0.15306849129E+03 -0.13660096155E+04 -0.10393347648E+04  0.17257060182E+04  0.91827421494E+02 0.  0.
         11    1    3    3    0    0  0.18003216495E+01  0.22431264814E+01  0.14285920156E+02  0.14572586907E+02  0.00000000000E+00 0. -1.
        -11    1    3    3    0    0 -0.61218471603E+02  0.13459466002E+04  0.18429990276E+04  0.22829729231E+04  0.00000000000E+00 0.  1.
          2    1    5    5  502    0  0.21618249710E+03  0.25813957385E+02 -0.34190486251E+03  0.40533957056E+03  0.00000000000E+00 0. -1.
          1    1    6    6  503    0 -0.54489104342E+02 -0.81145465913E+03 -0.58013185862E+03  0.99898983964E+03  0.00000000000E+00 0. -1.
         -2    1    5    5    0  502 -0.36958558539E+01 -0.79940686148E+01 -0.13251144105E+01  0.89062007451E+01  0.00000000000E+00 0.  1.
         -1    1    6    6    0  503 -0.98579386949E+02 -0.55455495632E+03 -0.45920290620E+03  0.72671617855E+03  0.00000000000E+00 0.  1.
<mgrwt>
<rscale>  0 0.44120316E+04</rscale>
<asrwt>0</asrwt>
<pdfrwt beam="1">  1        1 0.30482901E+00 0.44120316E+04</pdfrwt>
<pdfrwt beam="2">  1       -1 0.37786288E+00 0.44120316E+04</pdfrwt>
<totfact> 0.23479523E-02</totfact>
</mgrwt>
</event>
<event>
12    1  0.4403484E-008  0.2019631E+04  0.7818608E-02  0.8597497E-01
          1   -1    0    0  501    0  0.00000000000E+00  0.00000000000E+00  0.79625020831E+03  0.79625020831E+03  0.00000000000E+00 0. -1.
         -1   -1    0    0    0  501 -0.00000000000E+00 -0.00000000000E+00 -0.12806618799E+04  0.12806618799E+04  0.00000000000E+00 0.  1.
         23    2    1    2    0    0  0.54720790599E+03  0.59018052998E+03 -0.12448548224E+03  0.81918037330E+03  0.88375892411E+02 0.  0.
        254    2    1    2    0    0 -0.54720790599E+03 -0.59018052998E+03 -0.35992618930E+03  0.12577317149E+04  0.89699088875E+03 0.  0.
         23    2    4    4    0    0 -0.63944279243E+03 -0.57945703405E+03  0.78137219581E+01  0.86785637798E+03  0.91957052254E+02 0.  0.
         23    2    4    4    0    0  0.92234886438E+02 -0.10723495936E+02 -0.36773991126E+03  0.38987533689E+03  0.90265543489E+02 0.  0.
         13    1    3    3    0    0  0.40069533174E+03  0.37246522044E+03 -0.92023903648E+02  0.55475714341E+03  0.00000000000E+00 0. -1.
        -13    1    3    3    0    0  0.14651257425E+03  0.21771530954E+03 -0.32461578596E+02  0.26442322989E+03  0.00000000000E+00 0.  1.
          2    1    5    5  502    0 -0.75749154155E+02 -0.33452812626E+02 -0.52458357002E+01  0.82973151199E+02  0.00000000000E+00 0.  1.
          1    1    6    6  503    0  0.11032740994E+03 -0.58390242789E+01 -0.32285189647E+03  0.34123244079E+03  0.00000000000E+00 0. -1.
         -2    1    5    5    0  502 -0.56369363828E+03 -0.54600422142E+03  0.13059557658E+02  0.78488322679E+03  0.00000000000E+00 0. -1.
         -1    1    6    6    0  503 -0.18092523502E+02 -0.48844716575E+01 -0.44888014787E+02  0.48642896106E+02  0.00000000000E+00 0.  1.
<mgrwt>
<rscale>  0 0.20196309E+04</rscale>
<asrwt>0</asrwt>
<pdfrwt beam="1">  1        1 0.12250003E+00 0.20196309E+04</pdfrwt>
<pdfrwt beam="2">  1       -1 0.19702490E+00 0.20196309E+04</pdfrwt>
<totfact> 0.32554523E+00</totfact>
</mgrwt>
</event>
<event>
12    1  0.4403484E-008  0.1312949E+04  0.7818608E-02  0.9019359E-01
          2   -1    0    0  501    0  0.00000000000E+00  0.00000000000E+00  0.17297937295E+04  0.17297937295E+04  0.00000000000E+00 0. -1.
         -2   -1    0    0    0  501 -0.00000000000E+00 -0.00000000000E+00 -0.24913899139E+03  0.24913899139E+03  0.00000000000E+00 0.  1.
         23    2    1    2    0    0  0.65790511201E+02 -0.27748495967E+03  0.56070561647E+03  0.63568750133E+03  0.91550624254E+02 0.  0.
        254    2    1    2    0    0 -0.65790511201E+02  0.27748495967E+03  0.91994912162E+03  0.13432452195E+04  0.93630926473E+03 0.  0.
         23    2    4    4    0    0 -0.16141262203E+03  0.17146128450E+03  0.10794553447E+04  0.11086445210E+04  0.91737811554E+02 0.  0.
         23    2    4    4    0    0  0.95622110829E+02  0.10602367517E+03 -0.15950622311E+03  0.23460069852E+03  0.95972104063E+02 0.  0.
         13    1    3    3    0    0  0.81108392023E+02 -0.14533388154E+03  0.30631826742E+03  0.34861352432E+03  0.00000000000E+00 0. -1.
        -13    1    3    3    0    0 -0.15317880821E+02 -0.13215107813E+03  0.25438734904E+03  0.28707397701E+03  0.00000000000E+00 0.  1.
          2    1    5    5  502    0 -0.66068481810E+02  0.84839783941E+02  0.69280595386E+03  0.70110122160E+03  0.00000000000E+00 0. -1.
          1    1    6    6  503    0  0.67776452749E+02  0.10450050561E+03 -0.16443266432E+03  0.20628161410E+03  0.00000000000E+00 0. -1.
         -2    1    5    5    0  502 -0.95344140221E+02  0.86621500555E+02  0.38664939087E+03  0.40754329941E+03  0.00000000000E+00 0.  1.
         -1    1    6    6    0  503  0.27845658080E+02  0.15231695636E+01  0.49264412094E+01  0.28319084421E+02  0.00000000000E+00 0.  1.
<mgrwt>
<rscale>  0 0.13129495E+04</rscale>
<asrwt>0</asrwt>
<pdfrwt beam="1">  1        2 0.26612210E+00 0.13129495E+04</pdfrwt>
<pdfrwt beam="2">  1       -2 0.38329077E-01 0.13129495E+04</pdfrwt>
<totfact> 0.59419054E+01</totfact>
</mgrwt>
</event>
<event>
12    1  0.4403484E-008  0.2078223E+04  0.7818608E-02  0.8570898E-01
          1   -1    0    0  501    0  0.00000000000E+00  0.00000000000E+00  0.33086560688E+04  0.33086560688E+04  0.00000000000E+00 0. -1.
         -1   -1    0    0    0  501 -0.00000000000E+00 -0.00000000000E+00 -0.32634167947E+03  0.32634167947E+03  0.00000000000E+00 0.  1.
         23    2    1    2    0    0 -0.49081603486E+03 -0.63246257082E+03  0.75029458206E+03  0.11008807337E+04  0.89928562419E+02 0.  0.
        254    2    1    2    0    0  0.49081603486E+03  0.63246257082E+03  0.22320198072E+04  0.25341170146E+04  0.89382735472E+03 0.  0.
         23    2    4    4    0    0  0.40169615749E+03  0.10796834733E+03  0.17795080412E+04  0.18297709604E+04  0.91629317400E+02 0.  0.
         23    2    4    4    0    0  0.89119877368E+02  0.52449422350E+03  0.45251176601E+03  0.70434605415E+03  0.91103911011E+02 0.  0.
         13    1    3    3    0    0 -0.27940351045E+03 -0.34748926499E+03  0.35715324110E+03  0.57129112417E+03  0.00000000000E+00 0.  1.
        -13    1    3    3    0    0 -0.21141252440E+03 -0.28497330584E+03  0.39314134097E+03  0.52958960950E+03  0.00000000000E+00 0. -1.
          4    1    5    5  502    0  0.15181348382E+03  0.70367618932E+02  0.86258241903E+03  0.87866225894E+03  0.00000000000E+00 0. -1.
          1    1    6    6  503    0  0.10006824001E+03  0.45432363838E+03  0.41785724153E+03  0.62532255304E+03  0.00000000000E+00 0. -1.
         -4    1    5    5    0  502  0.24988267367E+03  0.37600728394E+02  0.91692562219E+03  0.95110870147E+03  0.00000000000E+00 0.  1.
         -1    1    6    6    0  503 -0.10948362647E+02  0.70170585120E+02  0.34654524482E+02  0.79023501110E+02  0.00000000000E+00 0.  1.
<mgrwt>
<rscale>  0 0.20782227E+04</rscale>
<asrwt>0</asrwt>
<pdfrwt beam="1">  1        1 0.50902399E+00 0.20782227E+04</pdfrwt>
<pdfrwt beam="2">  1       -1 0.50206415E-01 0.20782227E+04</pdfrwt>
<totfact> 0.12942291E+00</totfact>
</mgrwt>
</event>
<event>
12    1  0.4403484E-008  0.1310055E+04  0.7818608E-02  0.9021630E-01
         -4   -1    0    0    0  501 -0.00000000000E+00  0.00000000000E+00  0.11925166672E+04  0.11925166672E+04  0.00000000000E+00 0. -1.
          4   -1    0    0  501    0  0.00000000000E+00 -0.00000000000E+00 -0.35979439405E+03  0.35979439405E+03  0.00000000000E+00 0.  1.
         23    2    1    2    0    0  0.13131257133E+02 -0.34789680191E+02 -0.16529205036E+03  0.19277666444E+03  0.91970803400E+02 0.  0.
        254    2    1    2    0    0 -0.13131257133E+02  0.34789680191E+02  0.99801432353E+03  0.13595343968E+04  0.92245240226E+03 0.  0.
         23    2    4    4    0    0  0.94228417278E+02  0.45524126955E+03  0.60194289849E+03  0.76596311580E+03  0.90777935699E+02 0.  0.
         23    2    4    4    0    0 -0.10735967441E+03 -0.42045158936E+03  0.39607142504E+03  0.59357128102E+03  0.84549708672E+02 0.  0.
         13    1    3    3    0    0 -0.24675994000E+02 -0.35711214528E+01 -0.53666724641E+01  0.25504093037E+02  0.00000000000E+00 0. -1.
        -13    1    3    3    0    0  0.37807251133E+02 -0.31218558738E+02 -0.15992537790E+03  0.16727257140E+03  0.00000000000E+00 0.  1.
          4    1    5    5  502    0 -0.15521659118E+02  0.80602049163E+02  0.12629303333E+03  0.15062384439E+03  0.00000000000E+00 0. -1.
          1    1    6    6  503    0 -0.75599963384E+02 -0.14097374559E+03  0.16159391180E+03  0.22737973468E+03  0.00000000000E+00 0. -1.
         -4    1    5    5    0  502  0.10975007640E+03  0.37463922039E+03  0.47564986515E+03  0.61533927141E+03  0.00000000000E+00 0.  1.
         -1    1    6    6    0  503 -0.31759711028E+02 -0.27947784377E+03  0.23447751324E+03  0.36619154635E+03  0.00000000000E+00 0.  1.
<mgrwt>
<rscale>  0 0.13100547E+04</rscale>
<asrwt>0</asrwt>
<pdfrwt beam="1">  1        4 0.55352984E-01 0.13100547E+04</pdfrwt>
<pdfrwt beam="2">  1       -4 0.18346410E+00 0.13100547E+04</pdfrwt>
<totfact> 0.10369330E+00</totfact>
</mgrwt>
</event>
<event>
12    1  0.4403484E-008  0.1587331E+04  0.7818608E-02  0.8828369E-01
          2   -1    0    0  501    0  0.00000000000E+00  0.00000000000E+00  0.10618825650E+04  0.10618825650E+04  0.00000000000E+00 0.  1.
         -2   -1    0    0    0  501 -0.00000000000E+00 -0.00000000000E+00 -0.59319626868E+03  0.59319626868E+03  0.00000000000E+00 0. -1.
         23    2    1    2    0    0 -0.49781079244E+03 -0.16016811817E+03  0.28159122074E+03  0.60108929795E+03  0.92440885760E+02 0.  0.
        254    2    1    2    0    0  0.49781079244E+03  0.16016811817E+03  0.18709507560E+03  0.10539895358E+04  0.89577896996E+03 0.  0.
         23    2    4    4    0    0  0.72060066907E+03  0.81299815200E+02 -0.13090203274E+02  0.73097567753E+03  0.90989579086E+02 0.  0.
         23    2    4    4    0    0 -0.22278987663E+03  0.78868302972E+02  0.20018527888E+03  0.32301385823E+03  0.91696610556E+02 0.  0.
         11    1    3    3    0    0 -0.38889882459E+03 -0.14570206159E+03  0.25737748906E+03  0.48858423879E+03  0.00000000000E+00 0.  1.
        -11    1    3    3    0    0 -0.10891196785E+03 -0.14466056579E+02  0.24213731682E+02  0.11250505916E+03  0.00000000000E+00 0. -1.
          4    1    5    5  502    0  0.21904809987E+03  0.49242814268E+02  0.30208198053E+02  0.22653798808E+03  0.00000000000E+00 0. -1.
          1    1    6    6  503    0 -0.87714073325E+01 -0.69484822992E+01 -0.68527155863E+01  0.13121688297E+02  0.00000000000E+00 0. -1.
         -4    1    5    5    0  502  0.50155256919E+03  0.32057000933E+02 -0.43298401327E+02  0.50443768944E+03  0.00000000000E+00 0.  1.
         -1    1    6    6    0  503 -0.21401846929E+03  0.85816785271E+02  0.20703799446E+03  0.30989216993E+03  0.00000000000E+00 0.  1.
<mgrwt>
<rscale>  0 0.15873308E+04</rscale>
<asrwt>0</asrwt>
<pdfrwt beam="1">  1        2 0.16336655E+00 0.15873308E+04</pdfrwt>
<pdfrwt beam="2">  1       -2 0.91260964E-01 0.15873308E+04</pdfrwt>
<totfact> 0.22605797E+01</totfact>
</mgrwt>
</event>
<event>
12    1  0.4403484E-008  0.3409639E+04  0.7818608E-02  0.8135545E-01
         -1   -1    0    0    0  501 -0.00000000000E+00  0.00000000000E+00  0.16895128419E+04  0.16895128419E+04  0.00000000000E+00 0.  1.
          1   -1    0    0  501    0  0.00000000000E+00 -0.00000000000E+00 -0.17202652259E+04  0.17202652259E+04  0.00000000000E+00 0. -1.
         23    2    1    2    0    0 -0.10042522813E+04 -0.11830027040E+03 -0.12301521588E+04  0.15949720095E+04  0.90242886934E+02 0.  0.
        254    2    1    2    0    0  0.10042522813E+04  0.11830027040E+03  0.11993997749E+04  0.18148060583E+04  0.91238347791E+03 0.  0.
         23    2    4    4    0    0  0.51952801961E+03 -0.38664374799E+03  0.62735449101E+03  0.90626217661E+03  0.91294711490E+02 0.  0.
         23    2    4    4    0    0  0.48472426170E+03  0.50494401839E+03  0.57204528387E+03  0.90854388169E+03  0.91050022309E+02 0.  0.
         11    1    3    3    0    0 -0.70118437634E+03 -0.78206415988E+02 -0.92116207231E+03  0.11603082938E+04  0.00000000000E+00 0. -1.
        -11    1    3    3    0    0 -0.30306790497E+03 -0.40093854410E+02 -0.30899008652E+03  0.43466371571E+03  0.00000000000E+00 0.  1.
          2    1    5    5  502    0  0.78673194611E+02 -0.22144250767E+02  0.87087315887E+02  0.11943215639E+03  0.00000000000E+00 0. -1.
          1    1    6    6  503    0  0.60553840620E+02  0.25527670974E+02  0.52360998892E+02  0.84024423855E+02  0.00000000000E+00 0. -1.
         -2    1    5    5    0  502  0.44085482500E+03 -0.36449949722E+03  0.54026717512E+03  0.78683002022E+03  0.00000000000E+00 0.  1.
         -1    1    6    6    0  503  0.42417042108E+03  0.47941634742E+03  0.51968428498E+03  0.82451945783E+03  0.00000000000E+00 0.  1.
<mgrwt>
<rscale>  0 0.34096394E+04</rscale>
<asrwt>0</asrwt>
<pdfrwt beam="1">  1        1 0.26465619E+00 0.34096394E+04</pdfrwt>
<pdfrwt beam="2">  1       -1 0.25992505E+00 0.34096394E+04</pdfrwt>
<totfact> 0.22796563E-01</totfact>
</mgrwt>
</event>
<event>
12    1  0.4403484E-008  0.2287221E+04  0.7818608E-02  0.8482977E-01
         -1   -1    0    0    0  501 -0.00000000000E+00  0.00000000000E+00  0.78889166433E+03  0.78889166433E+03  0.00000000000E+00 0.  1.
          1   -1    0    0  501    0  0.00000000000E+00 -0.00000000000E+00 -0.16578261021E+04  0.16578261021E+04  0.00000000000E+00 0. -1.
         23    2    1    2    0    0 -0.47573778938E+03 -0.55790429802E+02 -0.12634974144E+04  0.13542590196E+04  0.90292633661E+02 0.  0.
        254    2    1    2    0    0  0.47573778938E+03  0.55790429802E+02  0.39456297662E+03  0.10924587468E+04  0.89908128370E+03 0.  0.
         23    2    4    4    0    0  0.70981553739E+03 -0.86743926903E+02  0.34888171883E+03  0.80105985665E+03  0.92821518135E+02 0.  0.
         23    2    4    4    0    0 -0.23407774801E+03  0.14253435670E+03  0.45681257797E+02  0.29139889017E+03  0.87852722920E+02 0.  0.
         13    1    3    3    0    0 -0.21843676734E+03 -0.54416731883E+02 -0.49377183813E+03  0.54266603926E+03  0.00000000000E+00 0. -1.
        -13    1    3    3    0    0 -0.25730102204E+03 -0.13736979184E+01 -0.76972557623E+03  0.81159298031E+03  0.00000000000E+00 0.  1.
          4    1    5    5  502    0  0.35138818733E+03 -0.49880510479E+02  0.22412849587E+03  0.41975624615E+03  0.00000000000E+00 0. -1.
          3    1    6    6  503    0 -0.10583812590E+03  0.73426556808E+02 -0.22150872936E+02  0.13070512351E+03  0.00000000000E+00 0. -1.
         -4    1    5    5    0  502  0.35842735006E+03 -0.36863416423E+02  0.12475322295E+03  0.38130361050E+03  0.00000000000E+00 0.  1.
         -3    1    6    6    0  503 -0.12823962211E+03  0.69107799896E+02  0.67832130733E+02  0.16069376667E+03  0.00000000000E+00 0.  1.
<mgrwt>
<rscale>  0 0.22872212E+04</rscale>
<asrwt>0</asrwt>
<pdfrwt beam="1">  1        1 0.25505017E+00 0.22872212E+04</pdfrwt>
<pdfrwt beam="2">  1       -1 0.12136795E+00 0.22872212E+04</pdfrwt>
<totfact> 0.27745586E+00</totfact>
</mgrwt>
</event>
<event>
12    1  0.4403484E-008  0.1658543E+04  0.7818608E-02  0.8785368E-01
          2   -1    0    0  501    0  0.00000000000E+00  0.00000000000E+00  0.15211674510E+04  0.15211674510E+04  0.00000000000E+00 0.  1.
         -2   -1    0    0    0  501 -0.00000000000E+00 -0.00000000000E+00 -0.45208126007E+03  0.45208126007E+03  0.00000000000E+00 0. -1.
         23    2    1    2    0    0 -0.42508158976E+03  0.34615435750E+03  0.61360668671E+03  0.82781333739E+03  0.90799550773E+02 0.  0.
        254    2    1    2    0    0  0.42508158976E+03 -0.34615435750E+03  0.45547950418E+03  0.11454353736E+04  0.89668468219E+03 0.  0.
         23    2    4    4    0    0 -0.24380278770E+03 -0.14650710032E+03  0.30318048446E+03  0.42556774337E+03  0.91023998480E+02 0.  0.
         23    2    4    4    0    0  0.66888437746E+03 -0.19964725719E+03  0.15229901972E+03  0.71986763027E+03  0.88028836101E+02 0.  0.
         13    1    3    3    0    0 -0.17335374891E+03  0.87059529432E+02  0.23010189162E+03  0.30096140028E+03  0.00000000000E+00 0. -1.
        -13    1    3    3    0    0 -0.25172784085E+03  0.25909482807E+03  0.38350479509E+03  0.52685193712E+03  0.00000000000E+00 0.  1.
          2    1    5    5  502    0 -0.24446495412E+03 -0.12043978833E+03  0.27452710013E+03  0.38682552282E+03  0.00000000000E+00 0. -1.
          1    1    6    6  503    0  0.22644462711E+03 -0.30536782521E+02  0.28237660010E+02  0.23023255564E+03  0.00000000000E+00 0. -1.
         -2    1    5    5    0  502  0.66216641319E+00 -0.26067311988E+02  0.28653384337E+02  0.38742220543E+02  0.00000000000E+00 0.  1.
         -1    1    6    6    0  503  0.44243975035E+03 -0.16911047467E+03  0.12406135971E+03  0.48963507463E+03  0.00000000000E+00 0.  1.
<mgrwt>
<rscale>  0 0.16585431E+04</rscale>
<asrwt>0</asrwt>
<pdfrwt beam="1">  1        2 0.23402576E+00 0.16585431E+04</pdfrwt>
<pdfrwt beam="2">  1       -2 0.69550964E-01 0.16585431E+04</pdfrwt>
<totfact> 0.22223327E+01</totfact>
</mgrwt>
</event>
<event>
12    1  0.4403484E-008  0.2291181E+04  0.7818608E-02  0.8481407E-01
         -2   -1    0    0    0  501 -0.00000000000E+00  0.00000000000E+00  0.98659856298E+03  0.98659856298E+03  0.00000000000E+00 0. -1.
          2   -1    0    0  501    0  0.00000000000E+00 -0.00000000000E+00 -0.13302037782E+04  0.13302037782E+04  0.00000000000E+00 0.  1.
         23    2    1    2    0    0 -0.33862888164E+03 -0.89413108689E+03 -0.19985526115E+01  0.96117615663E+03  0.98568198922E+02 0.  0.
        254    2    1    2    0    0  0.33862888164E+03  0.89413108689E+03 -0.34160666265E+03  0.13556261846E+04  0.89826906901E+03 0.  0.
         23    2    4    4    0    0  0.33242232821E+03  0.84674828917E+03  0.83632108233E+02  0.91808214237E+03  0.91614524490E+02 0.  0.
         23    2    4    4    0    0  0.62065534340E+01  0.47382797718E+02 -0.42523877088E+03  0.43754404222E+03  0.91285956183E+02 0.  0.
         11    1    3    3    0    0 -0.96604370171E+02 -0.22192320113E+03  0.40766813799E+02  0.24544703022E+03  0.00000000000E+00 0.  1.
        -11    1    3    3    0    0 -0.24202451147E+03 -0.67220788576E+03 -0.42765366411E+02  0.71572912642E+03  0.00000000000E+00 0. -1.
          1    1    6    6  502    0  0.36273456831E+02 -0.27062960160E+01 -0.25452229657E+03  0.25710831795E+03  0.00000000000E+00 0. -1.
          1    1    5    5  503    0  0.25978304357E+03  0.73533873716E+03  0.89227711283E+02  0.78496616013E+03  0.00000000000E+00 0. -1.
         -1    1    5    5    0  503  0.72639284638E+02  0.11140955201E+03 -0.55956030497E+01  0.13311598223E+03  0.00000000000E+00 0.  1.
         -1    1    6    6    0  502 -0.30066903397E+02  0.50089093734E+02 -0.17071647431E+03  0.18043572427E+03  0.00000000000E+00 0.  1.
<mgrwt>
<rscale>  0 0.22911806E+04</rscale>
<asrwt>0</asrwt>
<pdfrwt beam="1">  1        2 0.20464674E+00 0.22911806E+04</pdfrwt>
<pdfrwt beam="2">  1       -2 0.15178439E+00 0.22911806E+04</pdfrwt>
<totfact> 0.41825135E+00</totfact>
</mgrwt>
</event>
<event>
12    1  0.4403484E-008  0.1704737E+04  0.7818608E-02  0.8758667E-01
         -1   -1    0    0    0  501 -0.00000000000E+00  0.00000000000E+00  0.51350735883E+03  0.51350735883E+03  0.00000000000E+00 0.  1.
          1   -1    0    0  501    0  0.00000000000E+00 -0.00000000000E+00 -0.14148432295E+04  0.14148432295E+04  0.00000000000E+00 0. -1.
         23    2    1    2    0    0 -0.14285672112E+02 -0.61281285180E+03 -0.27166678393E+03  0.67683980128E+03  0.92550544852E+02 0.  0.
        254    2    1    2    0    0  0.14285672112E+02  0.61281285180E+03 -0.62966908675E+03  0.12515107871E+04  0.89109618984E+03 0.  0.
         23    2    4    4    0    0  0.14655088607E+03  0.80880119013E+03 -0.50592215036E+03  0.96954942278E+03  0.91827738876E+02 0.  0.
         23    2    4    4    0    0 -0.13226521396E+03 -0.19598833832E+03 -0.12374693639E+03  0.28196136428E+03  0.91013136957E+02 0.  0.
         11    1    3    3    0    0 -0.24898653863E+02 -0.48010829078E+03 -0.17222378559E+03  0.51067107434E+03  0.00000000000E+00 0. -1.
        -11    1    3    3    0    0  0.10612981751E+02 -0.13270456102E+03 -0.99442998335E+02  0.16616872695E+03  0.00000000000E+00 0.  1.
          4    1    5    5  502    0  0.65498901195E+01  0.20249444869E+03 -0.94342783339E+02  0.22348929187E+03  0.00000000000E+00 0.  1.
          3    1    6    6  503    0 -0.13084059903E+03 -0.14232623490E+03 -0.68961684688E+02  0.20526016041E+03  0.00000000000E+00 0. -1.
         -4    1    5    5    0  502  0.14000099595E+03  0.60630674143E+03 -0.41157936702E+03  0.74606013091E+03  0.00000000000E+00 0. -1.
         -3    1    6    6    0  503 -0.14246149269E+01 -0.53662103420E+02 -0.54785251700E+02  0.76701203869E+02  0.00000000000E+00 0.  1.
<mgrwt>
<rscale>  0 0.17047374E+04</rscale>
<asrwt>0</asrwt>
<pdfrwt beam="1">  1        1 0.21766819E+00 0.17047374E+04</pdfrwt>
<pdfrwt beam="2">  1       -1 0.79001132E-01 0.17047374E+04</pdfrwt>
<totfact> 0.11431241E+01</totfact>
</mgrwt>
</event>
<event>
12    1  0.4403484E-008  0.1348920E+04  0.7818608E-02  0.8991646E-01
          1   -1    0    0  501    0  0.00000000000E+00  0.00000000000E+00  0.42772076273E+03  0.42772076273E+03  0.00000000000E+00 0. -1.
         -1   -1    0    0    0  501 -0.00000000000E+00 -0.00000000000E+00 -0.10635358397E+04  0.10635358397E+04  0.00000000000E+00 0.  1.
         23    2    1    2    0    0  0.24991133058E+01  0.12749955269E+03  0.20108587124E+03  0.25647881440E+03  0.95307256395E+02 0.  0.
        254    2    1    2    0    0 -0.24991133058E+01 -0.12749955269E+03 -0.83690094819E+03  0.12347777880E+04  0.89889410230E+03 0.  0.
         23    2    4    4    0    0 -0.13968422989E+03  0.11636654184E+03 -0.90939036448E+03  0.93180533238E+03  0.90650351904E+02 0.  0.
         23    2    4    4    0    0  0.13718511659E+03 -0.24386609453E+03  0.72489416283E+02  0.30297245563E+03  0.90813903799E+02 0.  0.
         13    1    3    3    0    0 -0.29497136295E+02  0.12243094066E+03  0.14843060817E+03  0.19465626556E+03  0.00000000000E+00 0. -1.
        -13    1    3    3    0    0  0.31996249600E+02  0.50686120311E+01  0.52655263070E+02  0.61822548843E+02  0.00000000000E+00 0.  1.
          2    1    5    5  502    0 -0.20291663552E+02  0.39019990857E+02 -0.41593247287E+03  0.41825128007E+03  0.00000000000E+00 0. -1.
          3    1    6    6  503    0  0.24866688181E+02 -0.95458216793E+02  0.62100321284E+02  0.11656360169E+03  0.00000000000E+00 0. -1.
         -2    1    5    5    0  502 -0.11939256634E+03  0.77346550984E+02 -0.49345789161E+03  0.51355405231E+03  0.00000000000E+00 0.  1.
         -3    1    6    6    0  503  0.11231842841E+03 -0.14840787774E+03  0.10389094999E+02  0.18640885394E+03  0.00000000000E+00 0.  1.
<mgrwt>
<rscale>  0 0.13489201E+04</rscale>
<asrwt>0</asrwt>
<pdfrwt beam="1">  1        1 0.65803196E-01 0.13489201E+04</pdfrwt>
<pdfrwt beam="2">  1       -1 0.16362090E+00 0.13489201E+04</pdfrwt>
<totfact> 0.14732330E+01</totfact>
</mgrwt>
</event>
<event>
12    1  0.5371581E-008  0.1781391E+04  0.7818608E-02  0.8716259E-01
          2   -1    0    0  501    0  0.00000000000E+00  0.00000000000E+00  0.10955382216E+04  0.10955382216E+04  0.00000000000E+00 0. -1.
         -2   -1    0    0    0  501 -0.00000000000E+00 -0.00000000000E+00 -0.72415376248E+03  0.72415376248E+03  0.00000000000E+00 0.  1.
         23    2    1    2    0    0 -0.16655598443E+02 -0.13316393829E+03  0.79795174948E+03  0.81333263095E+03  0.82297816854E+02 0.  0.
        254    2    1    2    0    0  0.16655598443E+02  0.13316393829E+03 -0.42656729031E+03  0.10063593532E+04  0.90154836316E+03 0.  0.
         23    2    4    4    0    0  0.23635681163E+03  0.35932486037E+02  0.20330070801E+03  0.32633508211E+03  0.89485875911E+02 0.  0.
         23    2    4    4    0    0 -0.21970121318E+03  0.97231452257E+02 -0.62986799832E+03  0.68002427105E+03  0.89312572080E+02 0.  0.
         13    1    3    3    0    0 -0.31335615417E+02 -0.10260059397E+03  0.72490739950E+03  0.73280252492E+03  0.00000000000E+00 0. -1.
        -13    1    3    3    0    0  0.14680016974E+02 -0.30563344320E+02  0.73044349973E+02  0.80530106031E+02  0.00000000000E+00 0.  1.
          2    1    5    5  502    0  0.21351228540E+03  0.49754852676E+02  0.20422559499E+03  0.29961831558E+03  0.00000000000E+00 0. -1.
          3    1    6    6  503    0 -0.16552067028E+03  0.84543841440E+02 -0.56379291962E+03  0.59363895562E+03  0.00000000000E+00 0. -1.
         -2    1    5    5    0  502  0.22844526226E+02 -0.13822366639E+02 -0.92488698694E+00  0.26716766532E+02  0.00000000000E+00 0.  1.
         -3    1    6    6    0  503 -0.54180542899E+02  0.12687610818E+02 -0.66075078698E+02  0.86385315431E+02  0.00000000000E+00 0.  1.
<mgrwt>
<rscale>  0 0.17813906E+04</rscale>
<asrwt>0</asrwt>
<pdfrwt beam="1">  1        2 0.16854434E+00 0.17813906E+04</pdfrwt>
<pdfrwt beam="2">  1       -2 0.11140827E+00 0.17813906E+04</pdfrwt>
<totfact> 0.13207603E+01</totfact>
</mgrwt>
</event>
<event>
12    1  0.4403484E-008  0.2396018E+04  0.7818608E-02  0.8440996E-01
          2   -1    0    0  501    0  0.00000000000E+00  0.00000000000E+00  0.34232546991E+04  0.34232546991E+04  0.00000000000E+00 0. -1.
         -2   -1    0    0    0  501 -0.00000000000E+00 -0.00000000000E+00 -0.41925753953E+03  0.41925753953E+03  0.00000000000E+00 0.  1.
         23    2    1    2    0    0 -0.26086774311E+03 -0.74349154795E+03  0.23512218841E+04  0.24812614576E+04  0.87077043248E+02 0.  0.
        254    2    1    2    0    0  0.26086774311E+03  0.74349154795E+03  0.65277527550E+03  0.13612507811E+04  0.89780647544E+03 0.  0.
         23    2    4    4    0    0 -0.84666639775E+02 -0.12544803538E+03  0.31829004647E+03  0.36395084090E+03  0.90807551646E+02 0.  0.
         23    2    4    4    0    0  0.34553438289E+03  0.86893958333E+03  0.33448522903E+03  0.99729994016E+03  0.90976881439E+02 0.  0.
         11    1    3    3    0    0 -0.34808534566E+02 -0.82947025708E+02  0.19316456814E+03  0.21308306722E+03  0.00000000000E+00 0.  1.
        -11    1    3    3    0    0 -0.22605920855E+03 -0.66054452224E+03  0.21580573159E+04  0.22681783903E+04  0.00000000000E+00 0. -1.
          4    1    5    5  502    0 -0.58431102186E+02 -0.18617313634E+02  0.74518906870E+02  0.96508370366E+02  0.00000000000E+00 0. -1.
          3    1    6    6  503    0  0.87999447297E+02  0.30301913546E+03  0.80378049107E+02  0.32561500266E+03  0.00000000000E+00 0. -1.
         -4    1    5    5    0  502 -0.26235537589E+02 -0.10683072175E+03  0.24377113960E+03  0.26744247053E+03  0.00000000000E+00 0.  1.
         -3    1    6    6    0  503  0.25753493559E+03  0.56592044787E+03  0.25410717992E+03  0.67168493750E+03  0.00000000000E+00 0.  1.
<mgrwt>
<rscale>  0 0.23960178E+04</rscale>
<asrwt>0</asrwt>
<pdfrwt beam="1">  1        2 0.52665455E+00 0.23960178E+04</pdfrwt>
<pdfrwt beam="2">  1       -2 0.64501162E-01 0.23960178E+04</pdfrwt>
<totfact> 0.18380704E+00</totfact>
</mgrwt>
</event>
<event>
12    1  0.4403484E-008  0.2718506E+04  0.7818608E-02  0.8329025E-01
          1   -1    0    0  501    0  0.00000000000E+00  0.00000000000E+00  0.17460502198E+04  0.17460502198E+04  0.00000000000E+00 0. -1.
         -1   -1    0    0    0  501 -0.00000000000E+00 -0.00000000000E+00 -0.10581421638E+04  0.10581421638E+04  0.00000000000E+00 0.  1.
         23    2    1    2    0    0  0.44521272477E+03 -0.11036817428E+04  0.50520594637E+03  0.12960913938E+04  0.91060930727E+02 0.  0.
        254    2    1    2    0    0 -0.44521272477E+03  0.11036817428E+04  0.18270210963E+03  0.15081009898E+04  0.90810834973E+03 0.  0.
         23    2    4    4    0    0  0.14666136613E+03 -0.64882145971E+02  0.14652841404E+02  0.18458873993E+03  0.90216672344E+02 0.  0.
         23    2    4    4    0    0 -0.59187409090E+03  0.11685638888E+04  0.16804926823E+03  0.13235122498E+04  0.87106930524E+02 0.  0.
         11    1    3    3    0    0  0.10889767548E+02 -0.47182458532E+01  0.59612501132E+01  0.13281015929E+02  0.00000000000E+00 0. -1.
        -11    1    3    3    0    0  0.43432295722E+03 -0.10989634969E+04  0.49924469625E+03  0.12828103778E+04  0.00000000000E+00 0.  1.
          4    1    5    5  502    0  0.97773628936E+02 -0.59348858507E+02  0.49160383892E+02  0.12449382662E+03  0.00000000000E+00 0. -1.
          1    1    6    6  503    0 -0.41657329078E+03  0.80172405678E+03  0.76235016754E+02  0.90670091408E+03  0.00000000000E+00 0. -1.
         -4    1    5    5    0  502  0.48887737193E+02 -0.55332874637E+01 -0.34507542489E+02  0.60094913317E+02  0.00000000000E+00 0.  1.
         -1    1    6    6    0  503 -0.17530080012E+03  0.36683983198E+03  0.91814251474E+02  0.41681133577E+03  0.00000000000E+00 0.  1.
<mgrwt>
<rscale>  0 0.27185065E+04</rscale>
<asrwt>0</asrwt>
<pdfrwt beam="1">  1        1 0.26862311E+00 0.27185065E+04</pdfrwt>
<pdfrwt beam="2">  1       -1 0.16279110E+00 0.27185065E+04</pdfrwt>
<totfact> 0.10760096E+00</totfact>
</mgrwt>
</event>
<event>
12    1  0.4403484E-008  0.1104625E+04  0.7818608E-02  0.9200696E-01
         -1   -1    0    0    0  501 -0.00000000000E+00  0.00000000000E+00  0.32358140080E+03  0.32358140080E+03  0.00000000000E+00 0.  1.
          1   -1    0    0  501    0  0.00000000000E+00 -0.00000000000E+00 -0.94272764762E+03  0.94272764762E+03  0.00000000000E+00 0. -1.
         23    2    1    2    0    0  0.19347956952E+02  0.72745254441E+01 -0.30715621085E+03  0.32714307052E+03  0.11068147344E+03 0.  0.
        254    2    1    2    0    0 -0.19347956952E+02 -0.72745254441E+01 -0.31199003597E+03  0.93916597790E+03  0.88558889410E+03 0.  0.
         23    2    4    4    0    0  0.26259657255E+03  0.30215167345E+03 -0.27673234759E+01  0.41075005361E+03  0.91953003085E+02 0.  0.
         23    2    4    4    0    0 -0.28194452951E+03 -0.30942619890E+03 -0.30922271250E+03  0.52841592429E+03  0.91473563607E+02 0.  0.
         11    1    3    3    0    0  0.38326608292E+02  0.29901329674E+02 -0.55577137999E+02  0.73836553872E+02  0.00000000000E+00 0.  1.
        -11    1    3    3    0    0 -0.18978651340E+02 -0.22626804229E+02 -0.25157907286E+03  0.25330651665E+03  0.00000000000E+00 0. -1.
          1    1    5    5  502    0  0.23797155799E+03  0.22962981163E+03  0.18653252946E+02  0.33122236737E+03  0.00000000000E+00 0. -1.
          3    1    6    6  503    0 -0.14218237640E+03 -0.90183237766E+02 -0.12762059308E+03  0.21127200550E+03  0.00000000000E+00 0. -1.
         -1    1    5    5    0  502  0.24625014563E+02  0.72521861826E+02 -0.21420576422E+02  0.79527686243E+02  0.00000000000E+00 0.  1.
         -3    1    6    6    0  503 -0.13976215311E+03 -0.21924296113E+03 -0.18160211941E+03  0.31714391879E+03  0.00000000000E+00 0.  1.
<mgrwt>
<rscale>  0 0.11046251E+04</rscale>
<asrwt>0</asrwt>
<pdfrwt beam="1">  1        1 0.14503502E+00 0.11046251E+04</pdfrwt>
<pdfrwt beam="2">  1       -1 0.49781755E-01 0.11046251E+04</pdfrwt>
<totfact> 0.67709948E+01</totfact>
</mgrwt>
</event>
<event>
12    1  0.4630378E-008  0.3245713E+04  0.7818608E-02  0.8176848E-01
         -2   -1    0    0    0  501 -0.00000000000E+00  0.00000000000E+00  0.10763628750E+04  0.10763628750E+04  0.00000000000E+00 0.  1.
          2   -1    0    0  501    0  0.00000000000E+00 -0.00000000000E+00 -0.24468179385E+04  0.24468179385E+04  0.00000000000E+00 0. -1.
         23    2    1    2    0    0 -0.53950559119E+03  0.61933582593E+03 -0.19827701079E+04  0.21481301596E+04  0.91884347664E+02 0.  0.
        254    2    1    2    0    0  0.53950559119E+03 -0.61933582593E+03  0.61231504443E+03  0.13750506539E+04  0.91716489196E+03 0.  0.
         23    2    4    4    0    0  0.27802048120E+03 -0.18881760811E+03  0.76353515949E+03  0.83925290237E+03  0.91717050005E+02 0.  0.
         23    2    4    4    0    0  0.26148510999E+03 -0.43051821782E+03 -0.15122011506E+03  0.53579775157E+03  0.10242708999E+03 0.  0.
         13    1    3    3    0    0 -0.49806372911E+03  0.58766459655E+03 -0.17964750589E+04  0.19546712751E+04  0.00000000000E+00 0. -1.
        -13    1    3    3    0    0 -0.41441862081E+02  0.31671229380E+02 -0.18629504901E+03  0.19345888449E+03  0.00000000000E+00 0.  1.
          2    1    6    6  502    0  0.22008766393E+03 -0.36636309629E+03 -0.16514774234E+03  0.45818585196E+03  0.00000000000E+00 0. -1.
          2    1    5    5  503    0  0.22570775715E+03 -0.16912978783E+03  0.69969244820E+03  0.75439936296E+03  0.00000000000E+00 0. -1.
         -2    1    5    5    0  503  0.52312724056E+02 -0.19687820276E+02  0.63842711283E+02  0.84853539404E+02  0.00000000000E+00 0.  1.
         -2    1    6    6    0  502  0.41397446055E+02 -0.64155121529E+02  0.13927627279E+02  0.77611899603E+02  0.00000000000E+00 0.  1.
<mgrwt>
<rscale>  0 0.32457135E+04</rscale>
<asrwt>0</asrwt>
<pdfrwt beam="1">  1        2 0.37643353E+00 0.32457135E+04</pdfrwt>
<pdfrwt beam="2">  1       -2 0.16559429E+00 0.32457135E+04</pdfrwt>
<totfact> 0.71845715E-01</totfact>
</mgrwt>
</event>
<event>
12    1  0.4403484E-008  0.1809700E+04  0.7818608E-02  0.8701158E-01
         -2   -1    0    0    0  501 -0.00000000000E+00  0.00000000000E+00  0.16754880616E+04  0.16754880616E+04  0.00000000000E+00 0.  1.
          2   -1    0    0  501    0  0.00000000000E+00 -0.00000000000E+00 -0.48866552239E+03  0.48866552239E+03  0.00000000000E+00 0. -1.
         23    2    1    2    0    0  0.16644576626E+03  0.45076505907E+03 -0.13495424959E+03  0.50754642361E+03  0.92181294486E+02 0.  0.
        254    2    1    2    0    0 -0.16644576626E+03 -0.45076505907E+03  0.13217767888E+04  0.16566071604E+04  0.87541994084E+03 0.  0.
         23    2    4    4    0    0  0.21950162033E+01  0.25363343296E+03  0.36526375348E+03  0.45377653080E+03  0.90337112420E+02 0.  0.
         23    2    4    4    0    0 -0.16864078247E+03 -0.70439849203E+03  0.95651303536E+03  0.12028306296E+04  0.85248974371E+02 0.  0.
         13    1    3    3    0    0  0.95518063596E+02  0.14917823798E+03 -0.73039217454E+02  0.19160525683E+03  0.00000000000E+00 0.  1.
        -13    1    3    3    0    0  0.70927702668E+02  0.30158682109E+03 -0.61915032138E+02  0.31594116678E+03  0.00000000000E+00 0. -1.
          4    1    6    6  502    0 -0.15225672511E+03 -0.69235655504E+03  0.92700372036E+03  0.11669942619E+04  0.00000000000E+00 0. -1.
          4    1    5    5  503    0 -0.17144868887E+02  0.73185416897E+02  0.17691928288E+03  0.19222508793E+03  0.00000000000E+00 0.  1.
         -4    1    5    5    0  503  0.19339885090E+02  0.18044801607E+03  0.18834447060E+03  0.26155144286E+03  0.00000000000E+00 0. -1.
         -4    1    6    6    0  502 -0.16384057360E+02 -0.12041936994E+02  0.29509314999E+02  0.35836367755E+02  0.00000000000E+00 0.  1.
<mgrwt>
<rscale>  0 0.18096997E+04</rscale>
<asrwt>0</asrwt>
<pdfrwt beam="1">  1        2 0.75179312E-01 0.18096997E+04</pdfrwt>
<pdfrwt beam="2">  1       -2 0.25776739E+00 0.18096997E+04</pdfrwt>
<totfact> 0.34355487E+00</totfact>
</mgrwt>
</event>
<event>
12    1  0.4403484E-008  0.1851457E+04  0.7818608E-02  0.8679404E-01
         -1   -1    0    0    0  501 -0.00000000000E+00  0.00000000000E+00  0.12023228726E+04  0.12023228726E+04  0.00000000000E+00 0.  1.
          1   -1    0    0  501    0  0.00000000000E+00 -0.00000000000E+00 -0.71276461862E+03  0.71276461862E+03  0.00000000000E+00 0. -1.
         23    2    1    2    0    0 -0.22306435820E+03 -0.63350910426E+03  0.36626886758E+03  0.77055047743E+03  0.92215301455E+02 0.  0.
        254    2    1    2    0    0  0.22306435820E+03  0.63350910426E+03  0.12328938641E+03  0.11445370138E+04  0.91851685344E+03 0.  0.
         23    2    4    4    0    0  0.52608635168E+02  0.73793184994E+03  0.35289805572E+03  0.82480027882E+03  0.91909621671E+02 0.  0.
         23    2    4    4    0    0  0.17045572304E+03 -0.10442274567E+03 -0.22960866932E+03  0.31973673498E+03  0.97735230789E+02 0.  0.
         11    1    3    3    0    0 -0.68876634298E+02 -0.20897898148E+03  0.72146154311E+02  0.23156267626E+03  0.00000000000E+00 0. -1.
        -11    1    3    3    0    0 -0.15418772391E+03 -0.42453012278E+03  0.29412271326E+03  0.53898780117E+03  0.00000000000E+00 0.  1.
          4    1    5    5  502    0  0.75051553609E+02  0.41406365717E+03  0.19514800084E+03  0.46385794174E+03  0.00000000000E+00 0. -1.
          3    1    6    6  503    0  0.70300036579E+02 -0.85584374643E+02 -0.16615370870E+03  0.19968433900E+03  0.00000000000E+00 0. -1.
         -4    1    5    5    0  502 -0.22442918442E+02  0.32386819277E+03  0.15775005489E+03  0.36094233707E+03  0.00000000000E+00 0.  1.
         -3    1    6    6    0  503  0.10015568646E+03 -0.18838371031E+02 -0.63454960613E+02  0.12005239597E+03  0.00000000000E+00 0.  1.
<mgrwt>
<rscale>  0 0.18514569E+04</rscale>
<asrwt>0</asrwt>
<pdfrwt beam="1">  1        1 0.10965610E+00 0.18514569E+04</pdfrwt>
<pdfrwt beam="2">  1       -1 0.18497275E+00 0.18514569E+04</pdfrwt>
<totfact> 0.47738445E+00</totfact>
</mgrwt>
</event>
<event>
12    1  0.4403484E-008  0.2016374E+04  0.7818608E-02  0.8599003E-01
         -2   -1    0    0    0  501 -0.00000000000E+00  0.00000000000E+00  0.17272556351E+04  0.17272556351E+04  0.00000000000E+00 0.  1.
          2   -1    0    0  501    0  0.00000000000E+00 -0.00000000000E+00 -0.58847191828E+03  0.58847191828E+03  0.00000000000E+00 0. -1.
         23    2    1    2    0    0  0.39532987776E+03 -0.34542969707E+02 -0.35463336171E+03  0.53752030509E+03  0.75394483498E+02 0.  0.
        254    2    1    2    0    0 -0.39532987776E+03  0.34542969707E+02  0.14934170786E+04  0.17782072483E+04  0.87991335850E+03 0.  0.
         23    2    4    4    0    0 -0.38652507056E+03  0.10637181056E+03  0.16327150346E+03  0.44278282447E+03  0.93179684222E+02 0.  0.
         23    2    4    4    0    0 -0.88048072077E+01 -0.71828840853E+02  0.13301455751E+04  0.13354244239E+04  0.93990605232E+02 0.  0.
         11    1    3    3    0    0  0.95046458195E+02  0.20877414342E+02 -0.68041978497E+02  0.11874092169E+03  0.00000000000E+00 0.  1.
        -11    1    3    3    0    0  0.30028341957E+03 -0.55420384049E+02 -0.28659138321E+03  0.41877938341E+03  0.00000000000E+00 0. -1.
          2    1    5    5  502    0 -0.27157447372E+01 -0.93791622517E+01  0.88730738549E+01  0.13193763438E+02  0.00000000000E+00 0. -1.
          4    1    6    6  503    0  0.39717659938E+02 -0.12025059162E+02  0.49372558061E+03  0.49546649080E+03  0.00000000000E+00 0.  1.
         -2    1    5    5    0  502 -0.38380932582E+03  0.11575097281E+03  0.15439842961E+03  0.42958906103E+03  0.00000000000E+00 0.  1.
         -4    1    6    6    0  503 -0.48522467146E+02 -0.59803781692E+02  0.83641999450E+03  0.83995793306E+03  0.00000000000E+00 0. -1.
<mgrwt>
<rscale>  0 0.20163744E+04</rscale>
<asrwt>0</asrwt>
<pdfrwt beam="1">  1        2 0.90534142E-01 0.20163744E+04</pdfrwt>
<pdfrwt beam="2">  1       -2 0.26573163E+00 0.20163744E+04</pdfrwt>
<totfact> 0.24248739E+00</totfact>
</mgrwt>
</event>
<event>
12    1  0.4403484E-008  0.2146970E+04  0.7818608E-02  0.8540831E-01
          1   -1    0    0  501    0  0.00000000000E+00  0.00000000000E+00  0.25946907413E+04  0.25946907413E+04  0.00000000000E+00 0. -1.
         -1   -1    0    0    0  501 -0.00000000000E+00 -0.00000000000E+00 -0.44412596677E+03  0.44412596677E+03  0.00000000000E+00 0.  1.
         23    2    1    2    0    0  0.10586738662E+03  0.55562682667E+03 -0.70671459322E+02  0.57799097291E+03  0.95655818137E+02 0.  0.
        254    2    1    2    0    0 -0.10586738662E+03 -0.55562682667E+03  0.22212362339E+04  0.24608257352E+04  0.89545732348E+03 0.  0.
         23    2    4    4    0    0 -0.45438747702E+03 -0.50420230313E+03  0.16061687895E+04  0.17461369319E+04  0.92347511367E+02 0.  0.
         23    2    4    4    0    0  0.34852009040E+03 -0.51424523531E+02  0.61506744441E+03  0.71468880330E+03  0.91440632939E+02 0.  0.
         13    1    3    3    0    0  0.19825581842E+02  0.26950104225E+03  0.30542328565E+01  0.27024654264E+03  0.00000000000E+00 0. -1.
        -13    1    3    3    0    0  0.86041804781E+02  0.28612578442E+03 -0.73725692178E+02  0.30774443028E+03  0.00000000000E+00 0.  1.
          2    1    5    5  502    0 -0.15335746284E+03 -0.19796352633E+03  0.49157697837E+03  0.55168468787E+03  0.00000000000E+00 0. -1.
          3    1    6    6  503    0  0.17138638542E+03  0.91858160927E+01  0.35421496152E+03  0.39360628970E+03  0.00000000000E+00 0. -1.
         -2    1    5    5    0  502 -0.30103001418E+03 -0.30623877680E+03  0.11145918111E+04  0.11944522440E+04  0.00000000000E+00 0.  1.
         -3    1    6    6    0  503  0.17713370498E+03 -0.60610339624E+02  0.26085248289E+03  0.32108251360E+03  0.00000000000E+00 0.  1.
<mgrwt>
<rscale>  0 0.21469695E+04</rscale>
<asrwt>0</asrwt>
<pdfrwt beam="1">  1        1 0.39918318E+00 0.21469695E+04</pdfrwt>
<pdfrwt beam="2">  1       -1 0.68327074E-01 0.21469695E+04</pdfrwt>
<totfact> 0.23117563E+00</totfact>
</mgrwt>
</event>
<event>
12    1  0.4403484E-008  0.2850066E+04  0.7818608E-02  0.8287891E-01
         -2   -1    0    0    0  501 -0.00000000000E+00  0.00000000000E+00  0.19995242014E+04  0.19995242014E+04  0.00000000000E+00 0.  1.
          2   -1    0    0  501    0  0.00000000000E+00 -0.00000000000E+00 -0.10156008155E+04  0.10156008155E+04  0.00000000000E+00 0. -1.
         23    2    1    2    0    0 -0.25485922875E+03 -0.12478956128E+04  0.34336082852E+03  0.13222556668E+04  0.90921409988E+02 0.  0.
        254    2    1    2    0    0  0.25485922875E+03  0.12478956128E+04  0.64056255745E+03  0.16928693501E+04  0.91284695308E+03 0.  0.
         23    2    4    4    0    0 -0.10096015909E+03  0.51118177082E+03 -0.15172181417E+03  0.55023897092E+03  0.90794601592E+02 0.  0.
         23    2    4    4    0    0  0.35581938784E+03  0.73671384197E+03  0.79228437162E+03  0.11426303792E+04  0.92384718992E+02 0.  0.
         13    1    3    3    0    0 -0.17488954989E+03 -0.75109009080E+03  0.16710794557E+03  0.78908031571E+03  0.00000000000E+00 0.  1.
        -13    1    3    3    0    0 -0.79969678863E+02 -0.49680552199E+03  0.17625288295E+03  0.53317535105E+03  0.00000000000E+00 0. -1.
          1    1    5    5  502    0 -0.22796319994E+02  0.26628747629E+03 -0.41187795894E+02  0.27041658005E+03  0.00000000000E+00 0. -1.
          1    1    6    6  503    0  0.26408034788E+03  0.61761815119E+03  0.62175367559E+03  0.91529680646E+03  0.00000000000E+00 0. -1.
         -1    1    5    5    0  502 -0.78163839095E+02  0.24489429453E+03 -0.11053401828E+03  0.27982239087E+03  0.00000000000E+00 0.  1.
         -1    1    6    6    0  503  0.91739039966E+02  0.11909569078E+03  0.17053069603E+03  0.22733357276E+03  0.00000000000E+00 0.  1.
<mgrwt>
<rscale>  0 0.28500655E+04</rscale>
<asrwt>0</asrwt>
<pdfrwt beam="1">  1        2 0.15624628E+00 0.28500655E+04</pdfrwt>
<pdfrwt beam="2">  1       -2 0.30761911E+00 0.28500655E+04</pdfrwt>
<totfact> 0.60879105E-01</totfact>
</mgrwt>
</event>
<event>
12    1  0.4403484E-008  0.1560383E+04  0.7818608E-02  0.8845263E-01
         -2   -1    0    0    0  501 -0.00000000000E+00  0.00000000000E+00  0.14876833732E+04  0.14876833732E+04  0.00000000000E+00 0. -1.
          2   -1    0    0  501    0  0.00000000000E+00 -0.00000000000E+00 -0.40915876074E+03  0.40915876074E+03  0.00000000000E+00 0.  1.
         23    2    1    2    0    0  0.24600465354E+03  0.29406157846E+03 -0.53585919770E+02  0.39820758538E+03  0.93313068564E+02 0.  0.
        254    2    1    2    0    0 -0.24600465354E+03 -0.29406157846E+03  0.11321105323E+04  0.14986345486E+04  0.90401368987E+03 0.  0.
         23    2    4    4    0    0 -0.22313427396E+03 -0.59891352918E+02 -0.79707907973E+02  0.26080180144E+03  0.91040379332E+02 0.  0.
         23    2    4    4    0    0 -0.22870379573E+02 -0.23417022555E+03  0.12118184402E+04  0.12378327471E+04  0.91472558848E+02 0.  0.
         11    1    3    3    0    0  0.21890082273E+03  0.19956121064E+03 -0.43283458482E+02  0.29935882276E+03  0.00000000000E+00 0.  1.
        -11    1    3    3    0    0  0.27103830803E+02  0.94500367819E+02 -0.10302461288E+02  0.98848762616E+02  0.00000000000E+00 0. -1.
          2    1    5    5  502    0 -0.18464305106E+03 -0.82993869725E+02 -0.74042874085E+02  0.21555367294E+03  0.00000000000E+00 0. -1.
          1    1    6    6  503    0  0.15290022984E+02 -0.20053729418E+03  0.99572335910E+03  0.10158316785E+04  0.00000000000E+00 0. -1.
         -2    1    5    5    0  502 -0.38491222904E+02  0.23102516807E+02 -0.56650338881E+01  0.45248128496E+02  0.00000000000E+00 0.  1.
         -1    1    6    6    0  503 -0.38160402557E+02 -0.33632931367E+02  0.21609508113E+03  0.22200106866E+03  0.00000000000E+00 0.  1.
<mgrwt>
<rscale>  0 0.15603829E+04</rscale>
<asrwt>0</asrwt>
<pdfrwt beam="1">  1        2 0.62947502E-01 0.15603829E+04</pdfrwt>
<pdfrwt beam="2">  1       -2 0.22887436E+00 0.15603829E+04</pdfrwt>
<totfact> 0.64756004E+00</totfact>
</mgrwt>
</event>
<event>
12    1  0.4403484E-008  0.2009023E+04  0.7818608E-02  0.8602414E-01
         -2   -1    0    0    0  501 -0.00000000000E+00  0.00000000000E+00  0.41635865938E+03  0.41635865938E+03  0.00000000000E+00 0. -1.
          2   -1    0    0  501    0  0.00000000000E+00 -0.00000000000E+00 -0.24234956916E+04  0.24234956916E+04  0.00000000000E+00 0.  1.
         23    2    1    2    0    0  0.78469022503E+03 -0.19141908913E+03 -0.73698676639E+03  0.10973520020E+04  0.93015620187E+02 0.  0.
        254    2    1    2    0    0 -0.78469022503E+03  0.19141908913E+03 -0.12701502658E+04  0.17425023489E+04  0.87786828245E+03 0.  0.
         23    2    4    4    0    0 -0.90855496979E+03  0.28597049418E+02 -0.77174991875E+03  0.11957520415E+04  0.89079083907E+02 0.  0.
         23    2    4    4    0    0  0.12386474476E+03  0.16282203971E+03 -0.49840034705E+03  0.54675030746E+03  0.93163840409E+02 0.  0.
         13    1    3    3    0    0  0.37461870855E+03 -0.69301922765E+02 -0.29177450218E+03  0.47986903778E+03  0.00000000000E+00 0.  1.
        -13    1    3    3    0    0  0.41007151649E+03 -0.12211716637E+03 -0.44521226421E+03  0.61748296426E+03  0.00000000000E+00 0. -1.
          1    1    5    5  502    0 -0.64075276866E+03 -0.16154762916E+02 -0.56589811288E+03  0.85502383655E+03  0.00000000000E+00 0. -1.
          3    1    6    6  503    0  0.13853238791E+03  0.13581594832E+03 -0.43449496488E+03  0.47583933090E+03  0.00000000000E+00 0. -1.
         -1    1    5    5    0  502 -0.26780220113E+03  0.44751812334E+02 -0.20585180587E+03  0.34072820490E+03  0.00000000000E+00 0.  1.
         -3    1    6    6    0  503 -0.14667643150E+02  0.27006091388E+02 -0.63905382167E+02  0.70910976566E+02  0.00000000000E+00 0.  1.
<mgrwt>
<rscale>  0 0.20090231E+04</rscale>
<asrwt>0</asrwt>
<pdfrwt beam="1">  1        2 0.37284550E+00 0.20090231E+04</pdfrwt>
<pdfrwt beam="2">  1       -2 0.64055177E-01 0.20090231E+04</pdfrwt>
<totfact> 0.80636596E+00</totfact>
</mgrwt>
</event>
<event>
12    1  0.4403484E-008  0.1033809E+04  0.7818608E-02  0.9272222E-01
          1   -1    0    0  501    0  0.00000000000E+00  0.00000000000E+00  0.17570397906E+04  0.17570397906E+04  0.00000000000E+00 0. -1.
         -1   -1    0    0    0  501 -0.00000000000E+00 -0.00000000000E+00 -0.15206835250E+03  0.15206835250E+03  0.00000000000E+00 0.  1.
         23    2    1    2    0    0 -0.84701583661E+02  0.37317850556E+02  0.21554850277E+03  0.25164690614E+03  0.91093512820E+02 0.  0.
        254    2    1    2    0    0  0.84701583661E+02 -0.37317850556E+02  0.13894229353E+04  0.16574612370E+04  0.89895198904E+03 0.  0.
         23    2    4    4    0    0 -0.27584379998E+03 -0.18157086644E+03  0.18761712011E+03  0.39111889172E+03  0.93359638885E+02 0.  0.
         23    2    4    4    0    0  0.36054538364E+03  0.14425301589E+03  0.12018058152E+04  0.12663423453E+04  0.92107608934E+02 0.  0.
         11    1    3    3    0    0 -0.92865019524E+02  0.15052059603E+01  0.16140929619E+03  0.18622335620E+03  0.00000000000E+00 0.  1.
        -11    1    3    3    0    0  0.81634358629E+01  0.35812644596E+02  0.54139206579E+02  0.65423549942E+02  0.00000000000E+00 0. -1.
          3    1    5    5  502    0 -0.26708906037E+03 -0.16158774209E+03  0.19502509978E+03  0.36807873358E+03  0.00000000000E+00 0. -1.
          3    1    6    6  503    0  0.33447824247E+03  0.14091246473E+03  0.10200744193E+04  0.10827205726E+04  0.00000000000E+00 0. -1.
         -3    1    5    5    0  502 -0.87547396062E+01 -0.19983124347E+02 -0.74079796749E+01  0.23040158140E+02  0.00000000000E+00 0.  1.
         -3    1    6    6    0  503  0.26067141172E+02  0.33405511515E+01  0.18173139597E+03  0.18362177271E+03  0.00000000000E+00 0.  1.
<mgrwt>
<rscale>  0 0.10338088E+04</rscale>
<asrwt>0</asrwt>
<pdfrwt beam="1">  1        1 0.27031380E+00 0.10338088E+04</pdfrwt>
<pdfrwt beam="2">  1       -1 0.23395132E-01 0.10338088E+04</pdfrwt>
<totfact> 0.68530384E+01</totfact>
</mgrwt>
</event>
<event>
12    1  0.4403484E-008  0.1515952E+04  0.7818608E-02  0.8873914E-01
          1   -1    0    0  501    0  0.00000000000E+00  0.00000000000E+00  0.36273887452E+03  0.36273887452E+03  0.00000000000E+00 0. -1.
         -1   -1    0    0    0  501 -0.00000000000E+00 -0.00000000000E+00 -0.15838603760E+04  0.15838603760E+04  0.00000000000E+00 0.  1.
         23    2    1    2    0    0 -0.31772650961E+03 -0.10807362818E+03  0.50775237500E+02  0.35161239339E+03  0.91777483224E+02 0.  0.
        254    2    1    2    0    0  0.31772650961E+03  0.10807362818E+03 -0.12718967390E+04  0.15949868571E+04  0.90201536338E+03 0.  0.
         23    2    4    4    0    0 -0.75674366514E+02 -0.32649680921E+03 -0.64019513154E+03  0.72820255268E+03  0.90013194098E+02 0.  0.
         23    2    4    4    0    0  0.39340087613E+03  0.43457043738E+03 -0.63170160743E+03  0.86678430444E+03  0.93018252060E+02 0.  0.
         11    1    3    3    0    0 -0.60552214978E+02  0.14607257665E+02  0.17742635023E+02  0.64766841924E+02  0.00000000000E+00 0.  1.
        -11    1    3    3    0    0 -0.25717429463E+03 -0.12268088584E+03  0.33032602478E+02  0.28684555147E+03  0.00000000000E+00 0. -1.
          4    1    5    5  502    0 -0.32565076527E+02 -0.23721442865E+02 -0.58831467130E+02  0.71304506068E+02  0.00000000000E+00 0. -1.
          3    1    6    6  503    0  0.75586519296E+02  0.52987875807E+02 -0.62892839116E+02  0.11169846057E+03  0.00000000000E+00 0. -1.
         -4    1    5    5    0  502 -0.43109289986E+02 -0.30277536634E+03 -0.58136366441E+03  0.65689804661E+03  0.00000000000E+00 0.  1.
         -3    1    6    6    0  503  0.31781435683E+03  0.38158256158E+03 -0.56880876831E+03  0.75508584387E+03  0.00000000000E+00 0.  1.
<mgrwt>
<rscale>  0 0.15159521E+04</rscale>
<asrwt>0</asrwt>
<pdfrwt beam="1">  1        1 0.55805979E-01 0.15159521E+04</pdfrwt>
<pdfrwt beam="2">  1       -1 0.24367083E+00 0.15159521E+04</pdfrwt>
<totfact> 0.50642776E+00</totfact>
</mgrwt>
</event>
<event>
12    1  0.4403484E-008  0.2681680E+04  0.7818608E-02  0.8340974E-01
         -2   -1    0    0    0  501 -0.00000000000E+00  0.00000000000E+00  0.11225505859E+04  0.11225505859E+04  0.00000000000E+00 0.  1.
          2   -1    0    0  501    0  0.00000000000E+00 -0.00000000000E+00 -0.16015776543E+04  0.16015776543E+04  0.00000000000E+00 0. -1.
         23    2    1    2    0    0  0.92047746027E+02  0.65214592091E+03 -0.12121461404E+04  0.13824704769E+04  0.90328644857E+02 0.  0.
        254    2    1    2    0    0 -0.92047746027E+02 -0.65214592091E+03  0.73311907196E+03  0.13416577633E+04  0.91039271223E+03 0.  0.
         23    2    4    4    0    0 -0.12148020407E+02  0.22206797616E+03  0.16455730946E+03  0.29189865044E+03  0.93080360943E+02 0.  0.
         23    2    4    4    0    0 -0.79899725620E+02 -0.87421389708E+03  0.56856176250E+03  0.10497591129E+04  0.89987850795E+02 0.  0.
         11    1    3    3    0    0  0.40301505499E+02  0.81025443927E+02 -0.18989227656E+03  0.21035306179E+03  0.00000000000E+00 0.  1.
        -11    1    3    3    0    0  0.51746240528E+02  0.57112047698E+03 -0.10222538638E+04  0.11721174151E+04  0.00000000000E+00 0. -1.
          2    1    5    5  502    0 -0.97677236365E+00  0.11890082207E+03  0.14288695588E+03  0.18588986452E+03  0.00000000000E+00 0. -1.
          1    1    6    6  503    0  0.51561582029E+01 -0.17967482761E+03  0.82508162163E+02  0.19778075353E+03  0.00000000000E+00 0. -1.
         -2    1    5    5    0  502 -0.11171248044E+02  0.10316715409E+03  0.21670353587E+02  0.10600878592E+03  0.00000000000E+00 0.  1.
         -1    1    6    6    0  503 -0.85055883823E+02 -0.69453906947E+03  0.48605360033E+03  0.85197835934E+03  0.00000000000E+00 0.  1.
<mgrwt>
<rscale>  0 0.26816800E+04</rscale>
<asrwt>0</asrwt>
<pdfrwt beam="1">  1        2 0.24639656E+00 0.26816800E+04</pdfrwt>
<pdfrwt beam="2">  1       -2 0.17270009E+00 0.26816800E+04</pdfrwt>
<totfact> 0.19945711E+00</totfact>
</mgrwt>
</event>
<event>
12    1  0.4403484E-008  0.1749334E+04  0.7818608E-02  0.8733717E-01
         -1   -1    0    0    0  501 -0.00000000000E+00  0.00000000000E+00  0.77364678210E+03  0.77364678210E+03  0.00000000000E+00 0.  1.
          1   -1    0    0  501    0  0.00000000000E+00 -0.00000000000E+00 -0.98887761002E+03  0.98887761002E+03  0.00000000000E+00 0. -1.
         23    2    1    2    0    0  0.55551562593E+03  0.31123012831E+03 -0.16198892246E+03  0.66302813599E+03  0.88904975628E+02 0.  0.
        254    2    1    2    0    0 -0.55551562593E+03 -0.31123012831E+03 -0.53241905453E+02  0.10994962561E+04  0.89476003115E+03 0.  0.
         23    2    4    4    0    0 -0.17993606114E+03  0.25531350970E+03  0.18438725719E+03  0.37380775507E+03  0.90396918107E+02 0.  0.
         23    2    4    4    0    0 -0.37557956479E+03 -0.56654363801E+03 -0.23762916264E+03  0.72568850107E+03  0.90135888471E+02 0.  0.
         11    1    3    3    0    0  0.53960132941E+03  0.31160526347E+03 -0.14502595708E+03  0.63976555326E+03  0.00000000000E+00 0.  1.
        -11    1    3    3    0    0  0.15914296524E+02 -0.37513516010E+00 -0.16962965387E+02  0.23262582724E+02  0.00000000000E+00 0. -1.
          2    1    5    5  502    0 -0.97918421908E+01  0.30510503512E+02  0.54888602113E+02  0.63557294153E+02  0.00000000000E+00 0. -1.
          4    1    6    6  503    0 -0.28567466060E+02 -0.11180549541E+02 -0.76545267535E+01  0.31617978824E+02  0.00000000000E+00 0. -1.
         -2    1    5    5    0  502 -0.17014421895E+03  0.22480300619E+03  0.12949865507E+03  0.31025046092E+03  0.00000000000E+00 0.  1.
         -4    1    6    6    0  503 -0.34701209873E+03 -0.55536308847E+03 -0.22997463589E+03  0.69407052224E+03  0.00000000000E+00 0.  1.
<mgrwt>
<rscale>  0 0.17493336E+04</rscale>
<asrwt>0</asrwt>
<pdfrwt beam="1">  1        1 0.15213502E+00 0.17493336E+04</pdfrwt>
<pdfrwt beam="2">  1       -1 0.11902258E+00 0.17493336E+04</pdfrwt>
<totfact> 0.92424443E+00</totfact>
</mgrwt>
</event>
<event>
12    1  0.4403484E-008  0.1350004E+04  0.7818608E-02  0.8990825E-01
          2   -1    0    0  501    0  0.00000000000E+00  0.00000000000E+00  0.87520975822E+03  0.87520975822E+03  0.00000000000E+00 0. -1.
         -2   -1    0    0    0  501 -0.00000000000E+00 -0.00000000000E+00 -0.52059273681E+03  0.52059273681E+03  0.00000000000E+00 0.  1.
         23    2    1    2    0    0  0.32099602028E+03 -0.15103127751E+03  0.11832638285E+03  0.38507832941E+03  0.91843862507E+02 0.  0.
        254    2    1    2    0    0 -0.32099602028E+03  0.15103127751E+03  0.23629063856E+03  0.10107241656E+04  0.91645031577E+03 0.  0.
         23    2    4    4    0    0  0.28894477049E+03 -0.22055078856E+02 -0.50945151020E+02  0.30846276833E+03  0.92619458746E+02 0.  0.
         23    2    4    4    0    0 -0.60994079076E+03  0.17308635636E+03  0.28723578958E+03  0.70226139729E+03  0.93166605124E+02 0.  0.
         13    1    3    3    0    0  0.23163158941E+02 -0.41167676146E+02  0.30104042214E+01  0.47332568333E+02  0.00000000000E+00 0.  1.
        -13    1    3    3    0    0  0.29783286134E+03 -0.10986360136E+03  0.11531597863E+03  0.33774576107E+03  0.00000000000E+00 0. -1.
          4    1    5    5  502    0  0.16342050438E+03 -0.23796131014E+02  0.16481994217E+02  0.16596437339E+03  0.00000000000E+00 0. -1.
          1    1    6    6  503    0 -0.41037086363E+03  0.12361128271E+03  0.14581249302E+03  0.45270882259E+03  0.00000000000E+00 0. -1.
         -4    1    5    5    0  502  0.12552426611E+03  0.17410521588E+01 -0.67427145237E+02  0.14249839494E+03  0.00000000000E+00 0.  1.
         -1    1    6    6    0  503 -0.19956992713E+03  0.49475073656E+02  0.14142329656E+03  0.24955257470E+03  0.00000000000E+00 0.  1.
<mgrwt>
<rscale>  0 0.13500042E+04</rscale>
<asrwt>0</asrwt>
<pdfrwt beam="1">  1        2 0.13464766E+00 0.13500042E+04</pdfrwt>
<pdfrwt beam="2">  1       -2 0.80091190E-01 0.13500042E+04</pdfrwt>
<totfact> 0.41072190E+01</totfact>
</mgrwt>
</event>
<event>
12    1  0.4403484E-008  0.1806789E+04  0.7818608E-02  0.8702698E-01
          3   -1    0    0  501    0  0.00000000000E+00  0.00000000000E+00  0.43579504927E+03  0.43579504927E+03  0.00000000000E+00 0. -1.
         -3   -1    0    0    0  501 -0.00000000000E+00 -0.00000000000E+00 -0.18727183906E+04  0.18727183906E+04  0.00000000000E+00 0.  1.
         23    2    1    2    0    0  0.13221298659E+03  0.15893605068E+03 -0.13592924514E+04  0.13779152910E+04  0.90739399166E+02 0.  0.
        254    2    1    2    0    0 -0.13221298659E+03 -0.15893605068E+03 -0.77630889894E+02  0.93059814890E+03  0.90401627067E+03 0.  0.
         23    2    4    4    0    0 -0.19689084124E+03  0.16425754063E+03  0.31064874153E+03  0.41322826687E+03  0.92241080380E+02 0.  0.
         23    2    4    4    0    0  0.64677854655E+02 -0.32319359131E+03 -0.38827963142E+03  0.51736988203E+03  0.90957134453E+02 0.  0.
         11    1    3    3    0    0  0.87660552756E+02  0.36353178779E+02 -0.53007339631E+03  0.53850137567E+03  0.00000000000E+00 0. -1.
        -11    1    3    3    0    0  0.44552433831E+02  0.12258287190E+03 -0.82921905513E+03  0.83941391532E+03  0.00000000000E+00 0.  1.
          2    1    5    5  502    0 -0.20158923085E+03  0.13518544826E+03  0.28304843292E+03  0.37286691835E+03  0.00000000000E+00 0. -1.
          3    1    6    6  503    0  0.40321874638E+02 -0.19209240838E+03 -0.16100672543E+03  0.25386711596E+03  0.00000000000E+00 0. -1.
         -2    1    5    5    0  502  0.46983896087E+01  0.29072092371E+02  0.27600308603E+02  0.40361348525E+02  0.00000000000E+00 0.  1.
         -3    1    6    6    0  503  0.24355980017E+02 -0.13110118292E+03 -0.22727290599E+03  0.26350276607E+03  0.00000000000E+00 0.  1.
<mgrwt>
<rscale>  0 0.18067888E+04</rscale>
<asrwt>0</asrwt>
<pdfrwt beam="1">  1        3 0.67045393E-01 0.18067888E+04</pdfrwt>
<pdfrwt beam="2">  1       -3 0.28811052E+00 0.18067888E+04</pdfrwt>
<totfact> 0.23478369E-01</totfact>
</mgrwt>
</event>
<event>
12    1  0.4403484E-008  0.2320008E+04  0.7818608E-02  0.8470074E-01
          1   -1    0    0  501    0  0.00000000000E+00  0.00000000000E+00  0.14382060241E+04  0.14382060241E+04  0.00000000000E+00 0. -1.
         -1   -1    0    0    0  501 -0.00000000000E+00 -0.00000000000E+00 -0.93561636630E+03  0.93561636630E+03  0.00000000000E+00 0.  1.
         23    2    1    2    0    0  0.49561619035E+03 -0.66475697274E+03 -0.31982659598E+03  0.89392430747E+03  0.96303556785E+02 0.  0.
        254    2    1    2    0    0 -0.49561619035E+03  0.66475697274E+03  0.82241625381E+03  0.14798980829E+04  0.90895137407E+03 0.  0.
         23    2    4    4    0    0 -0.26817221603E+03 -0.18751525391E+03  0.28329100745E+03  0.44215440822E+03  0.90379300250E+02 0.  0.
         23    2    4    4    0    0 -0.22744397433E+03  0.85227222664E+03  0.53912524636E+03  0.10377436747E+04  0.90317182169E+02 0.  0.
         11    1    3    3    0    0  0.49638880263E+03 -0.64375662153E+03 -0.31775701877E+03  0.87280808550E+03  0.00000000000E+00 0.  1.
        -11    1    3    3    0    0 -0.77261227610E+00 -0.21000351202E+02 -0.20695772138E+01  0.21116221967E+02  0.00000000000E+00 0. -1.
          1    1    5    5  502    0 -0.15232839909E+03 -0.71502517188E+02  0.18887749244E+03  0.25296493489E+03  0.00000000000E+00 0. -1.
          3    1    6    6  503    0 -0.66132075244E+02  0.22678836199E+03  0.99205723886E+02  0.25621902381E+03  0.00000000000E+00 0. -1.
         -1    1    5    5    0  502 -0.11584381693E+03 -0.11601273672E+03  0.94413515002E+02  0.18918947333E+03  0.00000000000E+00 0.  1.
         -3    1    6    6    0  503 -0.16131189908E+03  0.62548386465E+03  0.43991952248E+03  0.78152465091E+03  0.00000000000E+00 0.  1.
<mgrwt>
<rscale>  0 0.23200078E+04</rscale>
<asrwt>0</asrwt>
<pdfrwt beam="1">  1        1 0.22126247E+00 0.23200078E+04</pdfrwt>
<pdfrwt beam="2">  1       -1 0.14394098E+00 0.23200078E+04</pdfrwt>
<totfact> 0.25393643E+00</totfact>
</mgrwt>
</event>
<event>
12    1  0.4403484E-008  0.2282524E+04  0.7818608E-02  0.8484843E-01
          4   -1    0    0  501    0  0.00000000000E+00  0.00000000000E+00  0.10014951403E+04  0.10014951403E+04  0.00000000000E+00 0.  1.
         -4   -1    0    0    0  501 -0.00000000000E+00 -0.00000000000E+00 -0.13005349935E+04  0.13005349935E+04  0.00000000000E+00 0. -1.
         23    2    1    2    0    0 -0.94572582350E+03 -0.10788417103E+03 -0.28803309302E+03  0.10001114085E+04  0.10594073365E+03 0.  0.
        254    2    1    2    0    0  0.94572582350E+03  0.10788417103E+03 -0.11006760164E+02  0.13019187253E+04  0.88816377481E+03 0.  0.
         23    2    4    4    0    0  0.28218030706E+03  0.42515733596E+03 -0.16909866788E+03  0.54539952839E+03  0.92096688701E+02 0.  0.
         23    2    4    4    0    0  0.66354551645E+03 -0.31727316493E+03  0.15809190771E+03  0.75651919690E+03  0.79833141069E+02 0.  0.
         13    1    3    3    0    0 -0.76068678482E+03 -0.54805413682E+02 -0.25897529885E+03  0.80542921687E+03  0.00000000000E+00 0. -1.
        -13    1    3    3    0    0 -0.18503903868E+03 -0.53078757353E+02 -0.29057794161E+02  0.19468219158E+03  0.00000000000E+00 0.  1.
          1    1    5    5  502    0  0.14506681574E+03  0.14774541489E+03 -0.44357074107E+02  0.21175608297E+03  0.00000000000E+00 0. -1.
          1    1    6    6  503    0  0.94017814534E+00 -0.14685535057E+01 -0.44003429089E+01  0.47332443482E+01  0.00000000000E+00 0. -1.
         -1    1    5    5    0  502  0.13711349132E+03  0.27741192107E+03 -0.12474159377E+03  0.33364344542E+03  0.00000000000E+00 0.  1.
         -1    1    6    6    0  503  0.66260533830E+03 -0.31580461142E+03  0.16249225062E+03  0.75178595255E+03  0.00000000000E+00 0.  1.
<mgrwt>
<rscale>  0 0.22825245E+04</rscale>
<asrwt>0</asrwt>
<pdfrwt beam="1">  1        4 0.15407618E+00 0.22825245E+04</pdfrwt>
<pdfrwt beam="2">  1       -4 0.20008231E+00 0.22825245E+04</pdfrwt>
<totfact> 0.66077933E-02</totfact>
</mgrwt>
</event>
<event>
12    1  0.4403484E-008  0.1131821E+04  0.7818608E-02  0.9174720E-01
         -1   -1    0    0    0  501 -0.00000000000E+00  0.00000000000E+00  0.28984934103E+03  0.28984934103E+03  0.00000000000E+00 0.  1.
          1   -1    0    0  501    0  0.00000000000E+00 -0.00000000000E+00 -0.11049005040E+04  0.11049005040E+04  0.00000000000E+00 0. -1.
         23    2    1    2    0    0 -0.34435040020E+02 -0.19412715916E+03 -0.17036256911E+03  0.27256861174E+03  0.79994482614E+02 0.  0.
        254    2    1    2    0    0  0.34435040020E+02  0.19412715916E+03 -0.64468859382E+03  0.11221812332E+04  0.89710434808E+03 0.  0.
         23    2    4    4    0    0  0.43558648048E+03 -0.28671208047E+02 -0.26086309390E+03  0.51686843131E+03  0.92443503713E+02 0.  0.
         23    2    4    4    0    0 -0.40115144046E+03  0.22279836721E+03 -0.38382549992E+03  0.60531280194E+03  0.92303755037E+02 0.  0.
         13    1    3    3    0    0  0.11507171955E+02 -0.16617341087E+02 -0.48131383350E+02  0.52203267085E+02  0.00000000000E+00 0. -1.
        -13    1    3    3    0    0 -0.45942211975E+02 -0.17750981807E+03 -0.12223118576E+03  0.22036534466E+03  0.00000000000E+00 0.  1.
          1    1    5    5  502    0  0.28179750345E+03  0.20976339763E+02 -0.18932595179E+03  0.34013843623E+03  0.00000000000E+00 0. -1.
          3    1    6    6  503    0 -0.23479096349E+03  0.89611995127E+02 -0.16988760212E+03  0.30334617776E+03  0.00000000000E+00 0. -1.
         -1    1    5    5    0  502  0.15378897703E+03 -0.49647547810E+02 -0.71537142107E+02  0.17672999508E+03  0.00000000000E+00 0.  1.
         -3    1    6    6    0  503 -0.16636047696E+03  0.13318637208E+03 -0.21393789779E+03  0.30196662417E+03  0.00000000000E+00 0.  1.
<mgrwt>
<rscale>  0 0.11318210E+04</rscale>
<asrwt>0</asrwt>
<pdfrwt beam="1">  1        1 0.16998469E+00 0.11318210E+04</pdfrwt>
<pdfrwt beam="2">  1       -1 0.44592207E-01 0.11318210E+04</pdfrwt>
<totfact> 0.62239567E+01</totfact>
</mgrwt>
</event>
<event>
12    1  0.4403484E-008  0.5231033E+04  0.7818608E-02  0.7793824E-01
          1   -1    0    0  501    0  0.00000000000E+00  0.00000000000E+00  0.29374502159E+04  0.29374502159E+04  0.00000000000E+00 0. -1.
         -1   -1    0    0    0  501 -0.00000000000E+00 -0.00000000000E+00 -0.23288657254E+04  0.23288657254E+04  0.00000000000E+00 0.  1.
         23    2    1    2    0    0 -0.19739718896E+04  0.94496581081E+03  0.15900139895E+04  0.27067685367E+04  0.94477618239E+02 0.  0.
        254    2    1    2    0    0  0.19739718896E+04 -0.94496581081E+03 -0.98142949895E+03  0.25595474046E+04  0.89361829127E+03 0.  0.
         23    2    4    4    0    0  0.19159469769E+04 -0.10612502932E+04 -0.84095466407E+03  0.23475881689E+04  0.82827899484E+02 0.  0.
         23    2    4    4    0    0  0.58024912700E+02  0.11628448240E+03 -0.14047483489E+03  0.21195923564E+03  0.91129396998E+02 0.  0.
         13    1    3    3    0    0 -0.16180627608E+04  0.80059210777E+03  0.13441725545E+04  0.22507498034E+04  0.00000000000E+00 0. -1.
        -13    1    3    3    0    0 -0.35590912876E+03  0.14437370303E+03  0.24584143496E+03  0.45601873339E+03  0.00000000000E+00 0.  1.
          2    1    5    5  502    0  0.14429458002E+04 -0.77737013794E+03 -0.66157362943E+03  0.17675057513E+04  0.00000000000E+00 0. -1.
          4    1    6    6  503    0  0.14803063667E+02  0.83067751909E+02 -0.31414886367E+02  0.90034866505E+02  0.00000000000E+00 0. -1.
         -2    1    5    5    0  502  0.47300117666E+03 -0.28388015526E+03 -0.17938103464E+03  0.58008241764E+03  0.00000000000E+00 0.  1.
         -4    1    6    6    0  503  0.43221849034E+02  0.33216730490E+02 -0.10905994852E+03  0.12192436914E+03  0.00000000000E+00 0.  1.
<mgrwt>
<rscale>  0 0.52310332E+04</rscale>
<asrwt>0</asrwt>
<pdfrwt beam="1">  1        1 0.45191542E+00 0.52310332E+04</pdfrwt>
<pdfrwt beam="2">  1       -1 0.35828704E+00 0.52310332E+04</pdfrwt>
<totfact> 0.64409996E-03</totfact>
</mgrwt>
</event>
<event>
12    1  0.4403484E-008  0.2731447E+04  0.7818608E-02  0.8324873E-01
          1   -1    0    0  501    0  0.00000000000E+00  0.00000000000E+00  0.23873961804E+04  0.23873961804E+04  0.00000000000E+00 0. -1.
         -1   -1    0    0    0  501 -0.00000000000E+00 -0.00000000000E+00 -0.78126988408E+03  0.78126988408E+03  0.00000000000E+00 0.  1.
         23    2    1    2    0    0  0.29896226283E+03  0.10409852890E+04  0.13613121324E+04  0.17420597722E+04  0.92588993076E+02 0.  0.
        254    2    1    2    0    0 -0.29896226283E+03 -0.10409852890E+04  0.24481416394E+03  0.14266062923E+04  0.89568003865E+03 0.  0.
         23    2    4    4    0    0 -0.25742249289E+02 -0.94507569567E+02 -0.27736610780E+03  0.30797651065E+03  0.91231733785E+02 0.  0.
         23    2    4    4    0    0 -0.27322001354E+03 -0.94647771947E+03  0.52218027175E+03  0.11186297816E+04  0.90504711663E+02 0.  0.
         11    1    3    3    0    0  0.26595999261E+03  0.81243054115E+03  0.10369196154E+04  0.13438676983E+04  0.00000000000E+00 0.  1.
        -11    1    3    3    0    0  0.33002270220E+02  0.22855474789E+03  0.32439251702E+03  0.39819207391E+03  0.00000000000E+00 0. -1.
          2    1    5    5  502    0 -0.32125029389E+02 -0.55016107805E+02 -0.25352472882E+03  0.26140691986E+03  0.00000000000E+00 0. -1.
          3    1    6    6  503    0 -0.15364963557E+03 -0.43781745227E+03  0.28730051957E+03  0.54574162437E+03  0.00000000000E+00 0. -1.
         -2    1    5    5    0  502  0.63827801001E+01 -0.39491461761E+02 -0.23841378987E+02  0.46569590785E+02  0.00000000000E+00 0.  1.
         -3    1    6    6    0  503 -0.11957037797E+03 -0.50866026720E+03  0.23487975218E+03  0.57288815724E+03  0.00000000000E+00 0.  1.
<mgrwt>
<rscale>  0 0.27314470E+04</rscale>
<asrwt>0</asrwt>
<pdfrwt beam="1">  1        1 0.36729172E+00 0.27314470E+04</pdfrwt>
<pdfrwt beam="2">  1       -1 0.12019537E+00 0.27314470E+04</pdfrwt>
<totfact> 0.86997202E-01</totfact>
</mgrwt>
</event>
<event>
12    1  0.4403484E-008  0.1482317E+04  0.7818608E-02  0.8896298E-01
          2   -1    0    0  501    0  0.00000000000E+00  0.00000000000E+00  0.25730531536E+04  0.25730531536E+04  0.00000000000E+00 0. -1.
         -2   -1    0    0    0  501 -0.00000000000E+00 -0.00000000000E+00 -0.21348791587E+03  0.21348791587E+03  0.00000000000E+00 0.  1.
         23    2    1    2    0    0 -0.82963394256E+02  0.43703349081E+02  0.16629008237E+04  0.16682470162E+04  0.94952882528E+02 0.  0.
        254    2    1    2    0    0  0.82963394256E+02 -0.43703349081E+02  0.69666441404E+03  0.11182940533E+04  0.86973983261E+03 0.  0.
         23    2    4    4    0    0  0.21239913501E+02 -0.36935982484E+01  0.88569356583E+03  0.89152933956E+03  0.99532377429E+02 0.  0.
         23    2    4    4    0    0  0.61723480754E+02 -0.40009750833E+02 -0.18902915179E+03  0.22676471378E+03  0.10138859379E+03 0.  0.
         11    1    3    3    0    0 -0.43245558276E+02  0.64661016227E+02  0.13377254792E+04  0.13399853294E+04  0.00000000000E+00 0. -1.
        -11    1    3    3    0    0 -0.39717835979E+02 -0.20957667146E+02  0.32517534456E+03  0.32826168679E+03  0.00000000000E+00 0.  1.
          1    1    5    5  502    0 -0.17901040418E+01 -0.25874936091E+02  0.79394760062E+03  0.79437114079E+03  0.00000000000E+00 0. -1.
          3    1    6    6  503    0  0.85753939009E+02 -0.47752620408E+02 -0.13287754344E+03  0.16519834249E+03  0.00000000000E+00 0. -1.
         -1    1    5    5    0  502  0.23030017543E+02  0.22181337843E+02  0.91745965205E+02  0.97158198768E+02  0.00000000000E+00 0.  1.
         -3    1    6    6    0  503 -0.24030458255E+02  0.77428695751E+01 -0.56151608348E+02  0.61566371285E+02  0.00000000000E+00 0.  1.
<mgrwt>
<rscale>  0 0.14823168E+04</rscale>
<asrwt>0</asrwt>
<pdfrwt beam="1">  1        2 0.39585431E+00 0.14823168E+04</pdfrwt>
<pdfrwt beam="2">  1       -2 0.32844297E-01 0.14823168E+04</pdfrwt>
<totfact> 0.26495905E+01</totfact>
</mgrwt>
</event>
<event>
12    1  0.4403484E-008  0.1695300E+04  0.7818608E-02  0.8764049E-01
         -2   -1    0    0    0  501 -0.00000000000E+00  0.00000000000E+00  0.50648427770E+03  0.50648427770E+03  0.00000000000E+00 0.  1.
          2   -1    0    0  501    0  0.00000000000E+00 -0.00000000000E+00 -0.14186236848E+04  0.14186236848E+04  0.00000000000E+00 0. -1.
         23    2    1    2    0    0  0.42873695371E+03  0.16975760179E+03 -0.73641130191E+03  0.87363078174E+03  0.91083030087E+02 0.  0.
        254    2    1    2    0    0 -0.42873695371E+03 -0.16975760179E+03 -0.17572810520E+03  0.10514771808E+04  0.92848848992E+03 0.  0.
         23    2    4    4    0    0  0.25580217754E+03  0.10709994674E+03 -0.83019461838E+02  0.30185790641E+03  0.85561743753E+02 0.  0.
         23    2    4    4    0    0 -0.68453913124E+03 -0.27685754852E+03 -0.92708643367E+02  0.74961927438E+03  0.89945759112E+02 0.  0.
         11    1    3    3    0    0  0.42327965891E+03  0.17743644356E+03 -0.72979284707E+03  0.86211771864E+03  0.00000000000E+00 0. -1.
        -11    1    3    3    0    0  0.54572947956E+01 -0.76788417696E+01 -0.66184548423E+01  0.11513063098E+02  0.00000000000E+00 0.  1.
          4    1    5    5  502    0  0.20394785054E+03  0.10412894800E+03 -0.36015497107E+02  0.23180741917E+03  0.00000000000E+00 0. -1.
          1    1    6    6  503    0 -0.11926146975E+03 -0.36753716880E+02  0.16322653235E+02  0.12585929795E+03  0.00000000000E+00 0.  1.
         -4    1    5    5    0  502  0.51854326996E+02  0.29709987397E+01 -0.47003964731E+02  0.70050487237E+02  0.00000000000E+00 0.  1.
         -1    1    6    6    0  503 -0.56527766149E+03 -0.24010383164E+03 -0.10903129660E+03  0.62375997642E+03  0.00000000000E+00 0. -1.
<mgrwt>
<rscale>  0 0.16953001E+04</rscale>
<asrwt>0</asrwt>
<pdfrwt beam="1">  1        2 0.21824979E+00 0.16953001E+04</pdfrwt>
<pdfrwt beam="2">  1       -2 0.77920659E-01 0.16953001E+04</pdfrwt>
<totfact> 0.19710627E+01</totfact>
</mgrwt>
</event>
<event>
12    1  0.4403484E-008  0.2436231E+04  0.7818608E-02  0.8426062E-01
          1   -1    0    0  501    0  0.00000000000E+00  0.00000000000E+00  0.19262647615E+04  0.19262647615E+04  0.00000000000E+00 0. -1.
         -1   -1    0    0    0  501 -0.00000000000E+00 -0.00000000000E+00 -0.77030210115E+03  0.77030210115E+03  0.00000000000E+00 0.  1.
         23    2    1    2    0    0 -0.55002423307E+03 -0.56794561180E+03 -0.26754196030E+03  0.83871954833E+03  0.82358395428E+02 0.  0.
        254    2    1    2    0    0  0.55002423307E+03  0.56794561180E+03  0.14235046207E+04  0.18578473143E+04  0.89450677100E+03 0.  0.
         23    2    4    4    0    0 -0.95326134717E+02  0.51343028420E+03  0.75006133939E+03  0.91909953670E+03  0.97232797031E+02 0.  0.
         23    2    4    4    0    0  0.64535036779E+03  0.54515327604E+02  0.67344328128E+03  0.93874777763E+03  0.90953387836E+02 0.  0.
         11    1    3    3    0    0 -0.28937714410E+03 -0.24027997289E+03 -0.13267666395E+03  0.39884419772E+03  0.00000000000E+00 0. -1.
        -11    1    3    3    0    0 -0.26064708898E+03 -0.32766563891E+03 -0.13486529635E+03  0.43987535061E+03  0.00000000000E+00 0.  1.
          4    1    5    5  502    0 -0.70139133939E+02  0.13715027348E+03  0.22048234027E+03  0.26896497540E+03  0.00000000000E+00 0. -1.
          1    1    6    6  503    0  0.34128056017E+03  0.69233586756E+02  0.38926196458E+03  0.52229358349E+03  0.00000000000E+00 0. -1.
         -4    1    5    5    0  502 -0.25187000778E+02  0.37628001072E+03  0.52957899912E+03  0.65013456129E+03  0.00000000000E+00 0.  1.
         -1    1    6    6    0  503  0.30406980762E+03 -0.14718259152E+02  0.28418131670E+03  0.41645419415E+03  0.00000000000E+00 0.  1.
<mgrwt>
<rscale>  0 0.24362313E+04</rscale>
<asrwt>0</asrwt>
<pdfrwt beam="1">  1        1 0.29634842E+00 0.24362313E+04</pdfrwt>
<pdfrwt beam="2">  1       -1 0.11850802E+00 0.24362313E+04</pdfrwt>
<totfact> 0.19065953E+00</totfact>
</mgrwt>
</event>
<event>
12    1  0.4403484E-008  0.1328878E+04  0.7818608E-02  0.9006973E-01
          1   -1    0    0  501    0  0.00000000000E+00  0.00000000000E+00  0.14037743824E+04  0.14037743824E+04  0.00000000000E+00 0.  1.
         -1   -1    0    0    0  501 -0.00000000000E+00 -0.00000000000E+00 -0.31449446264E+03  0.31449446264E+03  0.00000000000E+00 0. -1.
         23    2    1    2    0    0 -0.23970863305E+03 -0.19643199200E+03  0.49601701672E+03  0.59199704860E+03  0.91552544627E+02 0.  0.
        254    2    1    2    0    0  0.23970863305E+03  0.19643199200E+03  0.59326290300E+03  0.11262717964E+04  0.90580435585E+03 0.  0.
         23    2    4    4    0    0  0.35834070149E+03 -0.10540674894E+03  0.67751452148E+03  0.77894434360E+03  0.90607519241E+02 0.  0.
         23    2    4    4    0    0 -0.11863206844E+03  0.30183874094E+03 -0.84251618482E+02  0.34732745281E+03  0.91421174034E+02 0.  0.
         11    1    3    3    0    0 -0.71593425362E+02 -0.83723383707E+02  0.25157357639E+03  0.27463519052E+03  0.00000000000E+00 0. -1.
        -11    1    3    3    0    0 -0.16811520769E+03 -0.11270860829E+03  0.24444344034E+03  0.31736185808E+03  0.00000000000E+00 0.  1.
          4    1    5    5  502    0  0.30145274284E+03 -0.58880157288E+02  0.49981969015E+03  0.58665181475E+03  0.00000000000E+00 0. -1.
          1    1    6    6  503    0 -0.13874094712E+02  0.72063343897E+01  0.12481578348E+02  0.20005288237E+02  0.00000000000E+00 0. -1.
         -4    1    5    5    0  502  0.56887958656E+02 -0.46526591656E+02  0.17769483133E+03  0.19229252885E+03  0.00000000000E+00 0.  1.
         -1    1    6    6    0  503 -0.10475797373E+03  0.29463240655E+03 -0.96733196830E+02  0.32732216457E+03  0.00000000000E+00 0.  1.
<mgrwt>
<rscale>  0 0.13288781E+04</rscale>
<asrwt>0</asrwt>
<pdfrwt beam="1">  1        1 0.21596529E+00 0.13288781E+04</pdfrwt>
<pdfrwt beam="2">  1       -1 0.48383764E-01 0.13288781E+04</pdfrwt>
<totfact> 0.31980810E+01</totfact>
</mgrwt>
</event>
<event>
12    1  0.5187929E-008  0.2252999E+04  0.7818608E-02  0.8496687E-01
          4   -1    0    0  501    0  0.00000000000E+00  0.00000000000E+00  0.16203100472E+04  0.16203100472E+04  0.00000000000E+00 0. -1.
         -4   -1    0    0    0  501 -0.00000000000E+00 -0.00000000000E+00 -0.78318393395E+03  0.78318393395E+03  0.00000000000E+00 0.  1.
         23    2    1    2    0    0 -0.54885785544E+03  0.26035072064E+03 -0.42289295241E+03  0.74598165455E+03  0.92858691086E+02 0.  0.
        254    2    1    2    0    0  0.54885785544E+03 -0.26035072064E+03  0.12600190657E+04  0.16575123266E+04  0.88919717938E+03 0.  0.
         23    2    4    4    0    0  0.16973219590E+03  0.31995589143E+03  0.37245715446E+03  0.52759967653E+03  0.91958120814E+02 0.  0.
         23    2    4    4    0    0  0.37912565954E+03 -0.58030661207E+03  0.88756191123E+03  0.11299126501E+04  0.91893529988E+02 0.  0.
         13    1    3    3    0    0 -0.73437374509E+02  0.47883105041E+02 -0.10119751232E+03  0.13389091165E+03  0.00000000000E+00 0. -1.
        -13    1    3    3    0    0 -0.47542048093E+03  0.21246761560E+03 -0.32169544009E+03  0.61209074290E+03  0.00000000000E+00 0.  1.
          4    1    5    5  502    0  0.97977652220E+02  0.20619885406E+03  0.29281092096E+03  0.37128940624E+03  0.00000000000E+00 0. -1.
          1    1    6    6  503    0  0.74175021188E+02 -0.11758448183E+03  0.12294409686E+03  0.18558904895E+03  0.00000000000E+00 0. -1.
         -4    1    5    5    0  502  0.71754543676E+02  0.11375703736E+03  0.79646233503E+02  0.15631027029E+03  0.00000000000E+00 0.  1.
         -1    1    6    6    0  503  0.30495063836E+03 -0.46272213024E+03  0.76461781437E+03  0.94432360115E+03  0.00000000000E+00 0.  1.
<mgrwt>
<rscale>  0 0.22529987E+04</rscale>
<asrwt>0</asrwt>
<pdfrwt beam="1">  1        4 0.24927847E+00 0.22529987E+04</pdfrwt>
<pdfrwt beam="2">  1       -4 0.12048984E+00 0.22529987E+04</pdfrwt>
<totfact> 0.60815300E-02</totfact>
</mgrwt>
</event>
<event>
12    1  0.4403484E-008  0.3035260E+04  0.7818608E-02  0.8233733E-01
          2   -1    0    0  501    0  0.00000000000E+00  0.00000000000E+00  0.20227398182E+04  0.20227398182E+04  0.00000000000E+00 0.  1.
         -2   -1    0    0    0  501 -0.00000000000E+00 -0.00000000000E+00 -0.11386542115E+04  0.11386542115E+04  0.00000000000E+00 0. -1.
         23    2    1    2    0    0 -0.96286807934E+03  0.48281916271E+02  0.14379702154E+04  0.17336290867E+04  0.90914181360E+02 0.  0.
        254    2    1    2    0    0  0.96286807934E+03 -0.48281916271E+02 -0.55388460871E+03  0.14277649429E+04  0.89570000047E+03 0.  0.
         23    2    4    4    0    0 -0.61180395509E+02 -0.18104096896E+03  0.61846558346E+02  0.22174418861E+03  0.93950067411E+02 0.  0.
         23    2    4    4    0    0  0.10240484749E+04  0.13275905269E+03 -0.61573116705E+03  0.12060207543E+04  0.95188995489E+02 0.  0.
         11    1    3    3    0    0 -0.74209248349E+03  0.45973565634E+02  0.11721593518E+04  0.13880822630E+04  0.00000000000E+00 0.  1.
        -11    1    3    3    0    0 -0.22077559585E+03  0.23083506364E+01  0.26581086363E+03  0.34554682379E+03  0.00000000000E+00 0. -1.
          2    1    5    5  502    0 -0.28587690201E+02 -0.17740755438E+03  0.46971527825E+02  0.18573373632E+03  0.00000000000E+00 0. -1.
          3    1    6    6  503    0  0.70945055092E+03  0.83859930478E+02 -0.47524779331E+03  0.85802857597E+03  0.00000000000E+00 0. -1.
         -2    1    5    5    0  502 -0.32592705308E+02 -0.36334145772E+01  0.14875030521E+02  0.36010452285E+02  0.00000000000E+00 0.  1.
         -3    1    6    6    0  503  0.31459792393E+03  0.48899122210E+02 -0.14048337374E+03  0.34799217835E+03  0.00000000000E+00 0.  1.
<mgrwt>
<rscale>  0 0.30352603E+04</rscale>
<asrwt>0</asrwt>
<pdfrwt beam="1">  1        2 0.31119074E+00 0.30352603E+04</pdfrwt>
<pdfrwt beam="2">  1       -2 0.17517757E+00 0.30352603E+04</pdfrwt>
<totfact> 0.10852243E+00</totfact>
</mgrwt>
</event>
<event>
12    1  0.4403484E-008  0.3755043E+04  0.7818608E-02  0.8055872E-01
         -2   -1    0    0    0  501 -0.00000000000E+00  0.00000000000E+00  0.10620414623E+04  0.10620414623E+04  0.00000000000E+00 0.  1.
          2   -1    0    0  501    0  0.00000000000E+00 -0.00000000000E+00 -0.33191618759E+04  0.33191618759E+04  0.00000000000E+00 0. -1.
         23    2    1    2    0    0 -0.60683139273E+03 -0.16537209845E+04 -0.89874869468E+03  0.19797436820E+04  0.92727538082E+02 0.  0.
        254    2    1    2    0    0  0.60683139273E+03  0.16537209845E+04 -0.13583717190E+04  0.24014596562E+04  0.90487420091E+03 0.  0.
         23    2    4    4    0    0 -0.46592575114E+02  0.10489311391E+04 -0.52047109769E+03  0.11755069286E+04  0.92189874372E+02 0.  0.
         23    2    4    4    0    0  0.65342396784E+03  0.60478984545E+03 -0.83790062130E+03  0.12259527276E+04  0.90271813557E+02 0.  0.
         13    1    3    3    0    0 -0.55440685074E+03 -0.15037037359E+04 -0.78689331582E+03  0.17854111493E+04  0.00000000000E+00 0. -1.
        -13    1    3    3    0    0 -0.52424541986E+02 -0.15001724868E+03 -0.11185537886E+03  0.19433253275E+03  0.00000000000E+00 0.  1.
          4    1    5    5  502    0  0.21357675447E+02  0.43974997152E+03 -0.23989501918E+03  0.50138389282E+03  0.00000000000E+00 0. -1.
          3    1    6    6  503    0  0.35148373186E+02  0.46769543769E+02 -0.30509067569E+02  0.65981827543E+02  0.00000000000E+00 0. -1.
         -4    1    5    5    0  502 -0.67950250561E+02  0.60918116758E+03 -0.28057607852E+03  0.67412303575E+03  0.00000000000E+00 0.  1.
         -3    1    6    6    0  503  0.61827559466E+03  0.55802030168E+03 -0.80739155373E+03  0.11599709001E+04  0.00000000000E+00 0.  1.
<mgrwt>
<rscale>  0 0.37550433E+04</rscale>
<asrwt>0</asrwt>
<pdfrwt beam="1">  1        2 0.51064028E+00 0.37550433E+04</pdfrwt>
<pdfrwt beam="2">  1       -2 0.16339100E+00 0.37550433E+04</pdfrwt>
<totfact> 0.20672888E-01</totfact>
</mgrwt>
</event>
<event>
12    1  0.4403484E-008  0.2655157E+04  0.7818608E-02  0.8349703E-01
          3   -1    0    0  501    0  0.00000000000E+00  0.00000000000E+00  0.14043318298E+04  0.14043318298E+04  0.00000000000E+00 0. -1.
         -3   -1    0    0    0  501 -0.00000000000E+00 -0.00000000000E+00 -0.12550201395E+04  0.12550201395E+04  0.00000000000E+00 0.  1.
         23    2    1    2    0    0  0.28255376246E+03  0.15061301734E+02  0.11763537500E+04  0.12132163837E+04  0.89567723408E+02 0.  0.
        254    2    1    2    0    0 -0.28255376246E+03 -0.15061301734E+02 -0.10270420597E+04  0.14461355856E+04  0.97797201803E+03 0.  0.
         23    2    4    4    0    0 -0.28545779600E+03 -0.37738457995E+03 -0.94750359391E+03  0.10641322793E+04  0.10348513404E+03 0.  0.
         23    2    4    4    0    0  0.29040335351E+01  0.36232327822E+03 -0.79538465792E+02  0.38200330626E+03  0.91178764571E+02 0.  0.
         13    1    3    3    0    0  0.24171981805E+03 -0.20176086044E+02  0.98253688018E+03  0.10120347157E+04  0.00000000000E+00 0. -1.
        -13    1    3    3    0    0  0.40833944414E+02  0.35237387778E+02  0.19381686982E+03  0.20118166800E+03  0.00000000000E+00 0.  1.
          4    1    6    6  502    0  0.15311071111E+02  0.25081119067E+03 -0.95215902767E+02  0.26871313776E+03  0.00000000000E+00 0. -1.
          4    1    5    5  503    0  0.15045534152E+01 -0.16583444359E+02 -0.10026947290E+02  0.19437437582E+02  0.00000000000E+00 0.  1.
         -4    1    5    5    0  503 -0.28696234942E+03 -0.36080113559E+03 -0.93747664662E+03  0.10446948418E+04  0.00000000000E+00 0. -1.
         -4    1    6    6    0  502 -0.12407037576E+02  0.11151208754E+03  0.15677436975E+02  0.11329016850E+03  0.00000000000E+00 0.  1.
<mgrwt>
<rscale>  0 0.26551570E+04</rscale>
<asrwt>0</asrwt>
<pdfrwt beam="1">  1        3 0.21605105E+00 0.26551570E+04</pdfrwt>
<pdfrwt beam="2">  1       -3 0.19308002E+00 0.26551570E+04</pdfrwt>
<totfact> 0.43517193E-02</totfact>
</mgrwt>
</event>
<event>
12    1  0.4403484E-008  0.1500072E+04  0.7818608E-02  0.8884405E-01
         -1   -1    0    0    0  501 -0.00000000000E+00  0.00000000000E+00  0.38200134327E+03  0.38200134327E+03  0.00000000000E+00 0.  1.
          1   -1    0    0  501    0  0.00000000000E+00 -0.00000000000E+00 -0.14726490552E+04  0.14726490552E+04  0.00000000000E+00 0. -1.
         23    2    1    2    0    0  0.59720954646E+02 -0.43429767280E+03 -0.13018968969E+03  0.46651182110E+03  0.92210969509E+02 0.  0.
        254    2    1    2    0    0 -0.59720954646E+02  0.43429767280E+03 -0.96045802222E+03  0.13881385774E+04  0.90125913947E+03 0.  0.
         23    2    4    4    0    0  0.18373474925E+03  0.11895895715E+03 -0.95010560080E+03  0.97913360026E+03  0.89957005941E+02 0.  0.
         23    2    4    4    0    0 -0.24345570390E+03  0.31533871565E+03 -0.10352421415E+02  0.40900497709E+03  0.92025612223E+02 0.  0.
         13    1    3    3    0    0  0.12954015099E+02 -0.21636095308E+03 -0.19446413312E+02  0.21761900541E+03  0.00000000000E+00 0.  1.
        -13    1    3    3    0    0  0.46766939547E+02 -0.21793671972E+03 -0.11074327638E+03  0.24889281569E+03  0.00000000000E+00 0. -1.
          4    1    5    5  502    0  0.15456002849E+03  0.11698570607E+03 -0.66915977099E+03  0.69667012060E+03  0.00000000000E+00 0. -1.
          1    1    6    6  503    0 -0.13875539419E+03  0.12052343588E+03 -0.32823987991E+02  0.18669861328E+03  0.00000000000E+00 0. -1.
         -4    1    5    5    0  502  0.29174720763E+02  0.19732510781E+01 -0.28094582981E+03  0.28246347966E+03  0.00000000000E+00 0.  1.
         -1    1    6    6    0  503 -0.10470030971E+03  0.19481527977E+03  0.22471566576E+02  0.22230636381E+03  0.00000000000E+00 0.  1.
<mgrwt>
<rscale>  0 0.15000719E+04</rscale>
<asrwt>0</asrwt>
<pdfrwt beam="1">  1        1 0.22656139E+00 0.15000719E+04</pdfrwt>
<pdfrwt beam="2">  1       -1 0.58769438E-01 0.15000719E+04</pdfrwt>
<totfact> 0.19398527E+01</totfact>
</mgrwt>
</event>
<event>
12    1  0.4403484E-008  0.1404957E+04  0.7818608E-02  0.8950238E-01
          1   -1    0    0  501    0  0.00000000000E+00  0.00000000000E+00  0.10001240031E+04  0.10001240031E+04  0.00000000000E+00 0. -1.
         -1   -1    0    0    0  501 -0.00000000000E+00 -0.00000000000E+00 -0.49341502598E+03  0.49341502598E+03  0.00000000000E+00 0.  1.
         23    2    1    2    0    0 -0.20935237835E+02  0.37014538662E+03  0.29653264017E+03  0.49111858149E+03  0.12577743430E+03 0.  0.
        254    2    1    2    0    0  0.20935237835E+02 -0.37014538662E+03  0.21017633691E+03  0.10024204476E+04  0.90731844997E+03 0.  0.
         23    2    4    4    0    0 -0.40239364777E+03 -0.22650743950E+03 -0.56631278141E+02  0.47421286356E+03  0.91893799491E+02 0.  0.
         23    2    4    4    0    0  0.42332888560E+03 -0.14363794712E+03  0.26680761505E+03  0.52820758400E+03  0.89318212618E+02 0.  0.
         11    1    3    3    0    0 -0.17297518582E+02 -0.28861345369E+01  0.20929163304E+02  0.27305014160E+02  0.00000000000E+00 0. -1.
        -11    1    3    3    0    0 -0.36377192533E+01  0.37303152115E+03  0.27560347687E+03  0.46381356733E+03  0.00000000000E+00 0.  1.
          4    1    5    5  502    0 -0.26853694098E+03 -0.12571642516E+03  0.25205260445E+01  0.29651823094E+03  0.00000000000E+00 0. -1.
          1    1    6    6  503    0  0.20393816270E+03 -0.94154728728E+02  0.89417741559E+02  0.24176728408E+03  0.00000000000E+00 0. -1.
         -4    1    5    5    0  502 -0.13385670679E+03 -0.10079101433E+03 -0.59151804185E+02  0.17769463262E+03  0.00000000000E+00 0.  1.
         -1    1    6    6    0  503  0.21939072290E+03 -0.49483218390E+02  0.17738987349E+03  0.28644029991E+03  0.00000000000E+00 0.  1.
<mgrwt>
<rscale>  0 0.14049572E+04</rscale>
<asrwt>0</asrwt>
<pdfrwt beam="1">  1        1 0.15386523E+00 0.14049572E+04</pdfrwt>
<pdfrwt beam="2">  1       -1 0.75910004E-01 0.14049572E+04</pdfrwt>
<totfact> 0.25708714E+01</totfact>
</mgrwt>
</event>
<event>
12    1  0.4403484E-008  0.3272070E+04  0.7818608E-02  0.8170039E-01
          2   -1    0    0  501    0  0.00000000000E+00  0.00000000000E+00  0.14064143808E+04  0.14064143808E+04  0.00000000000E+00 0.  1.
         -2   -1    0    0    0  501 -0.00000000000E+00 -0.00000000000E+00 -0.19031455530E+04  0.19031455530E+04  0.00000000000E+00 0. -1.
         23    2    1    2    0    0 -0.96934002778E+03  0.11109622527E+04 -0.56424839936E+03  0.15813360281E+04  0.91597824027E+02 0.  0.
        254    2    1    2    0    0  0.96934002778E+03 -0.11109622527E+04  0.67517227222E+02  0.17282239057E+04  0.89907845919E+03 0.  0.
         23    2    4    4    0    0 -0.33718320953E+02 -0.19099578338E+03 -0.24798668429E+03  0.32811465883E+03  0.92441978093E+02 0.  0.
         23    2    4    4    0    0  0.10030583487E+04 -0.91996646930E+03  0.31550391152E+03  0.14001092468E+04  0.91097910417E+02 0.  0.
         11    1    3    3    0    0 -0.13690082827E+03  0.12011784038E+03 -0.89086155624E+02  0.20274731930E+03  0.00000000000E+00 0.  1.
        -11    1    3    3    0    0 -0.83243919951E+03  0.99084441229E+03 -0.47516224374E+03  0.13785887088E+04  0.00000000000E+00 0. -1.
          3    1    5    5  502    0 -0.60890397654E+02 -0.79797926194E+02 -0.11449881266E+03  0.15226729016E+03  0.00000000000E+00 0. -1.
          3    1    6    6  503    0  0.54088344936E+03 -0.51934637741E+03  0.13065336863E+03  0.76114773090E+03  0.00000000000E+00 0. -1.
         -3    1    5    5    0  502  0.27172076701E+02 -0.11119785718E+03 -0.13348787164E+03  0.17584736867E+03  0.00000000000E+00 0.  1.
         -3    1    6    6    0  503  0.46217489937E+03 -0.40062009189E+03  0.18485054288E+03  0.63896151593E+03  0.00000000000E+00 0.  1.
<mgrwt>
<rscale>  0 0.32720705E+04</rscale>
<asrwt>0</asrwt>
<pdfrwt beam="1">  1        2 0.21637144E+00 0.32720705E+04</pdfrwt>
<pdfrwt beam="2">  1       -2 0.29279162E+00 0.32720705E+04</pdfrwt>
<totfact> 0.42252926E-01</totfact>
</mgrwt>
</event>
<event>
12    1  0.4403484E-008  0.2521874E+04  0.7818608E-02  0.8395234E-01
         -4   -1    0    0    0  501 -0.00000000000E+00  0.00000000000E+00  0.11581803218E+04  0.11581803218E+04  0.00000000000E+00 0.  1.
          4   -1    0    0  501    0  0.00000000000E+00 -0.00000000000E+00 -0.13728110520E+04  0.13728110520E+04  0.00000000000E+00 0. -1.
         23    2    1    2    0    0  0.10454092451E+04 -0.24692473254E+02 -0.44133423034E+03  0.11386276871E+04  0.90591937111E+02 0.  0.
        254    2    1    2    0    0 -0.10454092451E+04  0.24692473254E+02  0.22670350010E+03  0.13923636866E+04  0.89095002719E+03 0.  0.
         23    2    4    4    0    0 -0.60490767879E+02 -0.24432380532E+03  0.25127018639E+03  0.36708814630E+03  0.90905146930E+02 0.  0.
         23    2    4    4    0    0 -0.98491847722E+03  0.26901627858E+03 -0.24566686286E+02  0.10252755403E+04  0.90289792558E+02 0.  0.
         11    1    3    3    0    0  0.45398939235E+03 -0.10845780242E+02 -0.14316154825E+03  0.47615042604E+03  0.00000000000E+00 0.  1.
        -11    1    3    3    0    0  0.59141985275E+03 -0.13846693012E+02 -0.29817268209E+03  0.66247726110E+03  0.00000000000E+00 0. -1.
          4    1    5    5  502    0 -0.27886772002E+02 -0.82497381604E+01  0.22877583395E+02  0.37001541243E+02  0.00000000000E+00 0. -1.
          4    1    6    6  503    0 -0.75622546401E+03  0.18392503995E+03 -0.50403638884E+02  0.77990121141E+03  0.00000000000E+00 0. -1.
         -4    1    5    5    0  502 -0.32603995877E+02 -0.23607406716E+03  0.22839260300E+03  0.33008660506E+03  0.00000000000E+00 0.  1.
         -4    1    6    6    0  503 -0.22869301321E+03  0.85091238624E+02  0.25836952597E+02  0.24537432894E+03  0.00000000000E+00 0.  1.
<mgrwt>
<rscale>  0 0.25218745E+04</rscale>
<asrwt>0</asrwt>
<pdfrwt beam="1">  1        4 0.21120170E+00 0.25218745E+04</pdfrwt>
<pdfrwt beam="2">  1       -4 0.17818159E+00 0.25218745E+04</pdfrwt>
<totfact> 0.36521504E-02</totfact>
</mgrwt>
</event>
<event>
12    1  0.4403484E-008  0.1332396E+04  0.7818608E-02  0.9004262E-01
          2   -1    0    0  501    0  0.00000000000E+00  0.00000000000E+00  0.11597077938E+04  0.11597077938E+04  0.00000000000E+00 0. -1.
         -2   -1    0    0    0  501 -0.00000000000E+00 -0.00000000000E+00 -0.38269992827E+03  0.38269992827E+03  0.00000000000E+00 0.  1.
         23    2    1    2    0    0 -0.13457689546E+03 -0.37585852908E+02  0.62461802033E+03  0.64628139329E+03  0.89489277924E+02 0.  0.
        254    2    1    2    0    0  0.13457689546E+03  0.37585852908E+02  0.15238984518E+03  0.89612632876E+03  0.87194959433E+03 0.  0.
         23    2    4    4    0    0 -0.25239925872E+03 -0.19728534365E+03 -0.12750665586E+03  0.35658011493E+03  0.90909506949E+02 0.  0.
         23    2    4    4    0    0  0.38697615418E+03  0.23487119656E+03  0.27989650104E+03  0.53954621383E+03  0.88617394968E+02 0.  0.
         11    1    3    3    0    0 -0.23303559841E+01  0.18162341696E+02  0.35624336971E+02  0.40054894826E+02  0.00000000000E+00 0.  1.
        -11    1    3    3    0    0 -0.13224653947E+03 -0.55748194604E+02  0.58899368336E+03  0.60622649846E+03  0.00000000000E+00 0. -1.
          2    1    5    5  502    0 -0.26295125865E+02 -0.65721438565E+02 -0.18366858310E+02  0.73130586046E+02  0.00000000000E+00 0. -1.
          4    1    6    6  503    0  0.34253514055E+03  0.17538757019E+03  0.21431475863E+03  0.44047921410E+03  0.00000000000E+00 0.  1.
         -2    1    5    5    0  502 -0.22610413286E+03 -0.13156390509E+03 -0.10913979755E+03  0.28344952888E+03  0.00000000000E+00 0.  1.
         -4    1    6    6    0  503  0.44441013632E+02  0.59483626369E+02  0.65581742413E+02  0.99066999735E+02  0.00000000000E+00 0. -1.
<mgrwt>
<rscale>  0 0.13323965E+04</rscale>
<asrwt>0</asrwt>
<pdfrwt beam="1">  1        2 0.17841658E+00 0.13323965E+04</pdfrwt>
<pdfrwt beam="2">  1       -2 0.58876913E-01 0.13323965E+04</pdfrwt>
<totfact> 0.52797684E+01</totfact>
</mgrwt>
</event>
<event>
12    1  0.4403484E-008  0.1294983E+04  0.7818608E-02  0.9033553E-01
         -2   -1    0    0    0  501 -0.00000000000E+00  0.00000000000E+00  0.27375925969E+03  0.27375925969E+03  0.00000000000E+00 0.  1.
          2   -1    0    0  501    0  0.00000000000E+00 -0.00000000000E+00 -0.15314367593E+04  0.15314367593E+04  0.00000000000E+00 0. -1.
         23    2    1    2    0    0  0.46846824093E+02  0.38862755949E+01  0.11824034858E+03  0.16430285840E+03  0.10394672281E+03 0.  0.
        254    2    1    2    0    0 -0.46846824093E+02 -0.38862755949E+01 -0.13759178482E+04  0.16408931606E+04  0.89284416975E+03 0.  0.
         23    2    4    4    0    0  0.30100747987E+03  0.27495551104E+03 -0.48025814184E+03  0.63621935493E+03  0.89000835935E+02 0.  0.
         23    2    4    4    0    0 -0.34785430396E+03 -0.27884178664E+03 -0.89565970639E+03  0.10046738057E+04  0.91693988045E+02 0.  0.
         13    1    3    3    0    0  0.33507877854E+01  0.32047436140E+02 -0.30910496427E+01  0.32370056068E+02  0.00000000000E+00 0. -1.
        -13    1    3    3    0    0  0.43496036308E+02 -0.28161160545E+02  0.12133139822E+03  0.13193280234E+03  0.00000000000E+00 0.  1.
          2    1    5    5  502    0  0.54684198545E+02  0.14314781475E+02 -0.44991792437E+02  0.72246355797E+02  0.00000000000E+00 0. -1.
          3    1    6    6  503    0 -0.30357466275E+02 -0.29578620770E+01 -0.33009557934E+02  0.44943916404E+02  0.00000000000E+00 0. -1.
         -2    1    5    5    0  502  0.24632328132E+03  0.26064072957E+03 -0.43526634940E+03  0.56397299913E+03  0.00000000000E+00 0.  1.
         -3    1    6    6    0  503 -0.31749683769E+03 -0.27588392456E+03 -0.86265014846E+03  0.95972988930E+03  0.00000000000E+00 0.  1.
<mgrwt>
<rscale>  0 0.12949826E+04</rscale>
<asrwt>0</asrwt>
<pdfrwt beam="1">  1        2 0.23560565E+00 0.12949826E+04</pdfrwt>
<pdfrwt beam="2">  1       -2 0.42116810E-01 0.12949826E+04</pdfrwt>
<totfact> 0.63816638E+01</totfact>
</mgrwt>
</event>
<event>
12    1  0.4403484E-008  0.1734893E+04  0.7818608E-02  0.8741710E-01
         -2   -1    0    0    0  501 -0.00000000000E+00  0.00000000000E+00  0.62105255626E+03  0.62105255626E+03  0.00000000000E+00 0.  1.
          2   -1    0    0  501    0  0.00000000000E+00 -0.00000000000E+00 -0.12115942124E+04  0.12115942124E+04  0.00000000000E+00 0. -1.
         23    2    1    2    0    0  0.13302363633E+03  0.36814088142E+03 -0.74441286710E+03  0.84611477565E+03  0.92394266493E+02 0.  0.
        254    2    1    2    0    0 -0.13302363633E+03 -0.36814088142E+03  0.15387121101E+03  0.98653199297E+03  0.89238222034E+03 0.  0.
         23    2    4    4    0    0 -0.28152445270E+03  0.21292155331E+03  0.96409842396E+02  0.37717392226E+03  0.91507948231E+02 0.  0.
         23    2    4    4    0    0  0.14850081637E+03 -0.58106243473E+03  0.57461368611E+02  0.60935807071E+03  0.91265568194E+02 0.  0.
         11    1    3    3    0    0  0.61299211108E+02  0.81389932816E+02 -0.13843971585E+03  0.17189377351E+03  0.00000000000E+00 0.  1.
        -11    1    3    3    0    0  0.71724425226E+02  0.28675094860E+03 -0.60597315125E+03  0.67422100214E+03  0.00000000000E+00 0. -1.
          2    1    5    5  502    0 -0.14307931810E+03  0.79374047897E+02  0.37583539034E+01  0.16366446154E+03  0.00000000000E+00 0. -1.
          1    1    6    6  503    0  0.18520947039E+02 -0.38680056444E+02 -0.18051463115E+02  0.46529856719E+02  0.00000000000E+00 0. -1.
         -2    1    5    5    0  502 -0.13844513460E+03  0.13354750541E+03  0.92651488493E+02  0.21350946072E+03  0.00000000000E+00 0.  1.
         -1    1    6    6    0  503  0.12997986933E+03 -0.54238237829E+03  0.75512831726E+02  0.56282821399E+03  0.00000000000E+00 0.  1.
<mgrwt>
<rscale>  0 0.17348933E+04</rscale>
<asrwt>0</asrwt>
<pdfrwt beam="1">  1        2 0.18639911E+00 0.17348933E+04</pdfrwt>
<pdfrwt beam="2">  1       -2 0.95546548E-01 0.17348933E+04</pdfrwt>
<totfact> 0.16269471E+01</totfact>
</mgrwt>
</event>
<event>
12    1  0.4403484E-008  0.1949919E+04  0.7818608E-02  0.8630400E-01
          1   -1    0    0  501    0  0.00000000000E+00  0.00000000000E+00  0.11238727231E+04  0.11238727231E+04  0.00000000000E+00 0. -1.
         -1   -1    0    0    0  501 -0.00000000000E+00 -0.00000000000E+00 -0.84577762111E+03  0.84577762111E+03  0.00000000000E+00 0.  1.
         23    2    1    2    0    0  0.33842804104E+03 -0.32783017116E+03 -0.50496559415E+03  0.69650751372E+03  0.90146022108E+02 0.  0.
        254    2    1    2    0    0 -0.33842804104E+03  0.32783017116E+03  0.78306069614E+03  0.12731428305E+04  0.88639858579E+03 0.  0.
         23    2    4    4    0    0 -0.11035884196E+03  0.13685923974E+03 -0.17584284677E+03  0.26495549272E+03  0.91494157511E+02 0.  0.
         23    2    4    4    0    0 -0.22806919908E+03  0.19097093142E+03  0.95890354291E+03  0.10081873378E+04  0.91979602101E+02 0.  0.
         13    1    3    3    0    0  0.12944839602E+03 -0.95505590919E+02 -0.12008469398E+03  0.20074495973E+03  0.00000000000E+00 0. -1.
        -13    1    3    3    0    0  0.20897964502E+03 -0.23232458024E+03 -0.38488090017E+03  0.49576255399E+03  0.00000000000E+00 0.  1.
          4    1    5    5  502    0 -0.98081722904E+02  0.53701002163E+02 -0.12007637437E+03  0.16407972966E+03  0.00000000000E+00 0. -1.
          1    1    6    6  503    0 -0.13243970649E+03  0.12968574863E+03  0.44842474155E+03  0.48522512104E+03  0.00000000000E+00 0. -1.
         -4    1    5    5    0  502 -0.12277119057E+02  0.83158237580E+02 -0.55766472401E+02  0.10087576306E+03  0.00000000000E+00 0.  1.
         -1    1    6    6    0  503 -0.95629492592E+02  0.61285182790E+02  0.51047880136E+03  0.52296221673E+03  0.00000000000E+00 0.  1.
<mgrwt>
<rscale>  0 0.19499194E+04</rscale>
<asrwt>0</asrwt>
<pdfrwt beam="1">  1        1 0.17290350E+00 0.19499194E+04</pdfrwt>
<pdfrwt beam="2">  1       -1 0.13011963E+00 0.19499194E+04</pdfrwt>
<totfact> 0.57353490E+00</totfact>
</mgrwt>
</event>
<event>
12    1  0.4403484E-008  0.1137466E+04  0.7818608E-02  0.9169425E-01
         -2   -1    0    0    0  501 -0.00000000000E+00  0.00000000000E+00  0.53598320576E+03  0.53598320576E+03  0.00000000000E+00 0.  1.
          2   -1    0    0  501    0  0.00000000000E+00 -0.00000000000E+00 -0.60348360135E+03  0.60348360135E+03  0.00000000000E+00 0. -1.
         23    2    1    2    0    0 -0.15433251292E+03  0.10439541233E+03 -0.10228811668E+03  0.23102277527E+03  0.90508216309E+02 0.  0.
        254    2    1    2    0    0  0.15433251292E+03 -0.10439541233E+03  0.34787721095E+02  0.90844403184E+03  0.88845002492E+03 0.  0.
         23    2    4    4    0    0 -0.24861397405E+03  0.25003560607E+03  0.10210676187E+02  0.36374888077E+03  0.88782193901E+02 0.  0.
         23    2    4    4    0    0  0.40294648697E+03 -0.35443101840E+03  0.24577044908E+02  0.54469515107E+03  0.90008656808E+02 0.  0.
         13    1    3    3    0    0 -0.51141657881E+02  0.51325708801E+02  0.54770247310E+01  0.72662200315E+02  0.00000000000E+00 0.  1.
        -13    1    3    3    0    0 -0.10319085504E+03  0.53069703529E+02 -0.10776514141E+03  0.15836057495E+03  0.00000000000E+00 0. -1.
          1    1    5    5  502    0  0.22951771552E+01  0.25426607200E+02 -0.72532701894E+01  0.26540348911E+02  0.00000000000E+00 0. -1.
          1    1    6    6  503    0  0.29351138862E+02 -0.65342544560E+02 -0.71651067126E+00  0.71635541944E+02  0.00000000000E+00 0. -1.
         -1    1    5    5    0  502 -0.25090915121E+03  0.22460899887E+03  0.17463946377E+02  0.33720853185E+03  0.00000000000E+00 0.  1.
         -1    1    6    6    0  503  0.37359534811E+03 -0.28908847384E+03  0.25293555579E+02  0.47305960913E+03  0.00000000000E+00 0.  1.
<mgrwt>
<rscale>  0 0.11374657E+04</rscale>
<asrwt>0</asrwt>
<pdfrwt beam="1">  1        2 0.92843631E-01 0.11374657E+04</pdfrwt>
<pdfrwt beam="2">  1       -2 0.82458955E-01 0.11374657E+04</pdfrwt>
<totfact> 0.63017738E+01</totfact>
</mgrwt>
</event>
<event>
12    1  0.4403484E-008  0.1488706E+04  0.7818608E-02  0.8891998E-01
          1   -1    0    0  501    0  0.00000000000E+00  0.00000000000E+00  0.10781287797E+04  0.10781287797E+04  0.00000000000E+00 0. -1.
         -1   -1    0    0    0  501 -0.00000000000E+00 -0.00000000000E+00 -0.51391032444E+03  0.51391032444E+03  0.00000000000E+00 0.  1.
         23    2    1    2    0    0 -0.32595151092E+03 -0.10104087736E+03 -0.16815669734E+03  0.39103177129E+03  0.90418609422E+02 0.  0.
        254    2    1    2    0    0  0.32595151092E+03  0.10104087736E+03  0.73237515264E+03  0.12010073329E+04  0.88858967082E+03 0.  0.
         23    2    4    4    0    0  0.46972181240E+02 -0.34952459796E+03  0.49384236846E+03  0.61249183797E+03  0.83018891197E+02 0.  0.
         23    2    4    4    0    0  0.27897932968E+03  0.45056547532E+03  0.23853278417E+03  0.58851549492E+03  0.92811016047E+02 0.  0.
         13    1    3    3    0    0 -0.30113059126E+03 -0.81980632053E+02 -0.17663472615E+03  0.35860881683E+03  0.00000000000E+00 0.  1.
        -13    1    3    3    0    0 -0.24820919655E+02 -0.19060245303E+02  0.84780288045E+01  0.32422954461E+02  0.00000000000E+00 0. -1.
          2    1    5    5  502    0  0.28477075480E+02 -0.74821702949E+02  0.66194022819E+02  0.10387915920E+03  0.00000000000E+00 0. -1.
          4    1    6    6  503    0 -0.54287910147E+01  0.18392368176E+02  0.17340627496E+02  0.25854367928E+02  0.00000000000E+00 0. -1.
         -2    1    5    5    0  502  0.18495105761E+02 -0.27470289502E+03  0.42764834564E+03  0.50861267876E+03  0.00000000000E+00 0.  1.
         -4    1    6    6    0  503  0.28440812069E+03  0.43217310714E+03  0.22119215668E+03  0.56266112699E+03  0.00000000000E+00 0.  1.
<mgrwt>
<rscale>  0 0.14887062E+04</rscale>
<asrwt>0</asrwt>
<pdfrwt beam="1">  1        1 0.16586597E+00 0.14887062E+04</pdfrwt>
<pdfrwt beam="2">  1       -1 0.79063127E-01 0.14887062E+04</pdfrwt>
<totfact> 0.20402102E+01</totfact>
</mgrwt>
</event>
<event>
12    1  0.4403484E-008  0.2885610E+04  0.7818608E-02  0.8277172E-01
         -1   -1    0    0    0  501 -0.00000000000E+00  0.00000000000E+00  0.18524235908E+04  0.18524235908E+04  0.00000000000E+00 0.  1.
          1   -1    0    0  501    0  0.00000000000E+00 -0.00000000000E+00 -0.11237632982E+04  0.11237632982E+04  0.00000000000E+00 0. -1.
         23    2    1    2    0    0 -0.11438883963E+04  0.31427019700E+03 -0.21643199839E+03  0.12113571038E+04  0.11531176532E+03 0.  0.
        254    2    1    2    0    0  0.11438883963E+04 -0.31427019700E+03  0.94509229096E+03  0.17648297851E+04  0.90231829865E+03 0.  0.
         23    2    4    4    0    0  0.99760840938E+03 -0.59037582847E+03  0.70395129949E+03  0.13592074999E+04  0.90174489196E+02 0.  0.
         23    2    4    4    0    0  0.14627998690E+03  0.27610563146E+03  0.24114099147E+03  0.40562228518E+03  0.93532380337E+02 0.  0.
         11    1    3    3    0    0 -0.63536274003E+03  0.14841580099E+03 -0.66468882834E+02  0.65584386388E+03  0.00000000000E+00 0.  1.
        -11    1    3    3    0    0 -0.50852565625E+03  0.16585439601E+03 -0.14996311556E+03  0.55551323996E+03  0.00000000000E+00 0. -1.
          3    1    5    5  502    0  0.67164185712E+03 -0.44426734079E+03  0.47547288648E+03  0.93517416566E+03  0.00000000000E+00 0. -1.
          3    1    6    6  503    0  0.15120838618E+03  0.20644343854E+03  0.18073308037E+03  0.31328471987E+03  0.00000000000E+00 0. -1.
         -3    1    5    5    0  502  0.32596655226E+03 -0.14610848767E+03  0.22847841301E+03  0.42403333427E+03  0.00000000000E+00 0.  1.
         -3    1    6    6    0  503 -0.49283992789E+01  0.69662192923E+02  0.60407911103E+02  0.92337565303E+02  0.00000000000E+00 0.  1.
<mgrwt>
<rscale>  0 0.28856096E+04</rscale>
<asrwt>0</asrwt>
<pdfrwt beam="1">  1        1 0.17288666E+00 0.28856096E+04</pdfrwt>
<pdfrwt beam="2">  1       -1 0.28498824E+00 0.28856096E+04</pdfrwt>
<totfact> 0.43203894E-01</totfact>
</mgrwt>
</event>
<event>
12    1  0.4403484E-008  0.3134341E+04  0.7818608E-02  0.8206376E-01
         -2   -1    0    0    0  501 -0.00000000000E+00  0.00000000000E+00  0.23403344804E+04  0.23403344804E+04  0.00000000000E+00 0. -1.
          2   -1    0    0  501    0  0.00000000000E+00 -0.00000000000E+00 -0.10494328145E+04  0.10494328145E+04  0.00000000000E+00 0.  1.
         23    2    1    2    0    0 -0.11707206964E+04  0.73474942622E+03  0.10169665605E+04  0.17184113943E+04  0.90956399315E+02 0.  0.
        254    2    1    2    0    0  0.11707206964E+04 -0.73474942622E+03  0.27393510536E+03  0.16713559007E+04  0.89885840737E+03 0.  0.
         23    2    4    4    0    0  0.10919909122E+03 -0.37587454610E+03  0.36502777982E+03  0.54349190441E+03  0.94509545476E+02 0.  0.
         23    2    4    4    0    0  0.10615216052E+04 -0.35887488012E+03 -0.91092674459E+02  0.11278639963E+04  0.90332834155E+02 0.  0.
         13    1    3    3    0    0 -0.48883933767E+03  0.28932286802E+03  0.36580079023E+03  0.67563439681E+03  0.00000000000E+00 0. -1.
        -13    1    3    3    0    0 -0.68188135871E+03  0.44542655820E+03  0.65116577026E+03  0.10427769975E+04  0.00000000000E+00 0.  1.
          4    1    5    5  502    0  0.59202509268E+02 -0.28656402231E+03  0.31370532701E+03  0.42899289992E+03  0.00000000000E+00 0. -1.
          1    1    6    6  503    0  0.46866929494E+02 -0.59782333238E+00  0.68320189997E+01  0.47366052786E+02  0.00000000000E+00 0.  1.
         -4    1    5    5    0  502  0.49996581951E+02 -0.89310523782E+02  0.51322452811E+02  0.11449900448E+03  0.00000000000E+00 0.  1.
         -1    1    6    6    0  503  0.10146546757E+04 -0.35827705679E+03 -0.97924693459E+02  0.10804979435E+04  0.00000000000E+00 0. -1.
<mgrwt>
<rscale>  0 0.31343413E+04</rscale>
<asrwt>0</asrwt>
<pdfrwt beam="1">  1        2 0.16145120E+00 0.31343413E+04</pdfrwt>
<pdfrwt beam="2">  1       -2 0.36005146E+00 0.31343413E+04</pdfrwt>
<totfact> 0.26640565E-01</totfact>
</mgrwt>
</event>
<event>
12    1  0.4403484E-008  0.1284964E+04  0.7818608E-02  0.9041574E-01
         -2   -1    0    0    0  501 -0.00000000000E+00  0.00000000000E+00  0.70351545358E+03  0.70351545358E+03  0.00000000000E+00 0.  1.
          2   -1    0    0  501    0  0.00000000000E+00 -0.00000000000E+00 -0.58674371947E+03  0.58674371947E+03  0.00000000000E+00 0. -1.
         23    2    1    2    0    0  0.42900931932E+02  0.23389977769E+03 -0.18721779465E+03  0.32046286568E+03  0.10533921245E+03 0.  0.
        254    2    1    2    0    0 -0.42900931932E+02 -0.23389977769E+03  0.30398952876E+03  0.96979630737E+03  0.88968851191E+03 0.  0.
         23    2    4    4    0    0  0.10556223148E+03 -0.45656650141E+03  0.44577644981E+03  0.65348644052E+03  0.93442655207E+02 0.  0.
         23    2    4    4    0    0 -0.14846316341E+03  0.22266672372E+03 -0.14178692105E+03  0.31630986685E+03  0.91250315837E+02 0.  0.
         11    1    3    3    0    0  0.10484901964E+01 -0.11275146977E+02 -0.93720463562E+01  0.14699099426E+02  0.00000000000E+00 0.  1.
        -11    1    3    3    0    0  0.41852441736E+02  0.24517492467E+03 -0.17784574830E+03  0.30576376625E+03  0.00000000000E+00 0. -1.
          1    1    5    5  502    0  0.66831642628E+01  0.22560347098E+01  0.15086166141E+01  0.72132032596E+01  0.00000000000E+00 0. -1.
          3    1    6    6  503    0  0.56604634299E+01  0.35524309427E+02 -0.10604934418E+01  0.35988082094E+02  0.00000000000E+00 0. -1.
         -1    1    5    5    0  502  0.98879067219E+02 -0.45882253612E+03  0.44426783320E+03  0.64627323726E+03  0.00000000000E+00 0.  1.
         -3    1    6    6    0  503 -0.15412362684E+03  0.18714241429E+03 -0.14072642761E+03  0.28032178475E+03  0.00000000000E+00 0.  1.
<mgrwt>
<rscale>  0 0.12849642E+04</rscale>
<asrwt>0</asrwt>
<pdfrwt beam="1">  1        2 0.90268265E-01 0.12849642E+04</pdfrwt>
<pdfrwt beam="2">  1       -2 0.10823315E+00 0.12849642E+04</pdfrwt>
<totfact> 0.34162849E+01</totfact>
</mgrwt>
</event>
<event>
12    1  0.4403484E-008  0.1608904E+04  0.7818608E-02  0.8815097E-01
          1   -1    0    0  501    0  0.00000000000E+00  0.00000000000E+00  0.35676139277E+03  0.35676139277E+03  0.00000000000E+00 0. -1.
         -1   -1    0    0    0  501 -0.00000000000E+00 -0.00000000000E+00 -0.18139369579E+04  0.18139369579E+04  0.00000000000E+00 0.  1.
         23    2    1    2    0    0  0.46278972155E+03 -0.28750417609E+03 -0.72075446560E+03  0.90807850638E+03  0.91030744454E+02 0.  0.
        254    2    1    2    0    0 -0.46278972155E+03  0.28750417609E+03 -0.73642109952E+03  0.12626198443E+04  0.86894180339E+03 0.  0.
         23    2    4    4    0    0  0.20404226630E+03  0.26069008525E+03 -0.32041113966E+03  0.47090760548E+03  0.97458234641E+02 0.  0.
         23    2    4    4    0    0 -0.66683198785E+03  0.26814090836E+02 -0.41600995986E+03  0.79171223878E+03  0.91433510526E+02 0.  0.
         13    1    3    3    0    0  0.21844797718E+02 -0.12022269223E+02 -0.87031372413E+01  0.26409747111E+02  0.00000000000E+00 0. -1.
        -13    1    3    3    0    0  0.44094492383E+03 -0.27548190687E+03 -0.71205132836E+03  0.88166875927E+03  0.00000000000E+00 0.  1.
          2    1    6    6  502    0 -0.10415463391E+03  0.20174399564E+02 -0.10267990561E+03  0.14764266721E+03  0.00000000000E+00 0. -1.
          2    1    5    5  503    0  0.42297111078E+02  0.53721916829E+02 -0.12862949564E+03  0.14567304865E+03  0.00000000000E+00 0. -1.
         -2    1    5    5    0  503  0.16174515522E+03  0.20696816842E+03 -0.19178164402E+03  0.32523455683E+03  0.00000000000E+00 0.  1.
         -2    1    6    6    0  502 -0.56267735394E+03  0.66396912723E+01 -0.31333005425E+03  0.64406957157E+03  0.00000000000E+00 0.  1.
<mgrwt>
<rscale>  0 0.16089036E+04</rscale>
<asrwt>0</asrwt>
<pdfrwt beam="1">  1        1 0.54886369E-01 0.16089036E+04</pdfrwt>
<pdfrwt beam="2">  1       -1 0.27906722E+00 0.16089036E+04</pdfrwt>
<totfact> 0.30254432E+00</totfact>
</mgrwt>
</event>
<event>
12    1  0.4403484E-008  0.1617646E+04  0.7818608E-02  0.8809780E-01
         -2   -1    0    0    0  501 -0.00000000000E+00  0.00000000000E+00  0.29362956074E+03  0.29362956074E+03  0.00000000000E+00 0.  1.
          2   -1    0    0  501    0  0.00000000000E+00 -0.00000000000E+00 -0.22279597518E+04  0.22279597518E+04  0.00000000000E+00 0. -1.
         23    2    1    2    0    0 -0.43550862762E+03  0.16686605379E+03 -0.20663529340E+03  0.51816626120E+03  0.91027935985E+02 0.  0.
        254    2    1    2    0    0  0.43550862762E+03 -0.16686605379E+03 -0.17276948977E+04  0.20034230513E+04  0.90070095960E+03 0.  0.
         23    2    4    4    0    0  0.38866949678E+03 -0.32922529699E+03 -0.17357086895E+04  0.18112138811E+04  0.91420974865E+02 0.  0.
         23    2    4    4    0    0  0.46839130839E+02  0.16235924321E+03  0.80137918095E+01  0.19220917020E+03  0.91245362716E+02 0.  0.
         13    1    3    3    0    0 -0.41774162786E+03  0.13857076640E+03 -0.20258515641E+03  0.48451075380E+03  0.00000000000E+00 0.  1.
        -13    1    3    3    0    0 -0.17766999752E+02  0.28295287383E+02 -0.40501369860E+01  0.33655507394E+02  0.00000000000E+00 0. -1.
          4    1    5    5  502    0  0.31893164966E+03 -0.23328881489E+03 -0.14202669234E+04  0.14742113831E+04  0.00000000000E+00 0. -1.
          3    1    6    6  503    0  0.23892971648E+02  0.70767880149E+02  0.48941536636E+02  0.89298605607E+02  0.00000000000E+00 0. -1.
         -4    1    5    5    0  502  0.69737847115E+02 -0.95936482105E+02 -0.31544176609E+03  0.33700249808E+03  0.00000000000E+00 0.  1.
         -3    1    6    6    0  503  0.22946159191E+02  0.91591363057E+02 -0.40927744826E+02  0.10291056459E+03  0.00000000000E+00 0.  1.
<mgrwt>
<rscale>  0 0.16176462E+04</rscale>
<asrwt>0</asrwt>
<pdfrwt beam="1">  1        2 0.34276305E+00 0.16176462E+04</pdfrwt>
<pdfrwt beam="2">  1       -2 0.45173777E-01 0.16176462E+04</pdfrwt>
<totfact> 0.22179796E+01</totfact>
</mgrwt>
</event>
<event>
12    1  0.4403484E-008  0.2654383E+04  0.7818608E-02  0.8349960E-01
          2   -1    0    0  501    0  0.00000000000E+00  0.00000000000E+00  0.92528957597E+03  0.92528957597E+03  0.00000000000E+00 0. -1.
         -2   -1    0    0    0  501 -0.00000000000E+00 -0.00000000000E+00 -0.19036604773E+04  0.19036604773E+04  0.00000000000E+00 0.  1.
         23    2    1    2    0    0  0.17787786859E+03 -0.52034312224E+03  0.67237591644E+03  0.87330590419E+03  0.90423051750E+02 0.  0.
        254    2    1    2    0    0 -0.17787786859E+03  0.52034312224E+03 -0.16507468177E+04  0.19556441490E+04  0.89285020045E+03 0.  0.
         23    2    4    4    0    0 -0.39569074301E+03  0.56873302443E+03 -0.75899529186E+03  0.10317791353E+04  0.92010400012E+02 0.  0.
         23    2    4    4    0    0  0.21781287442E+03 -0.48389902190E+02 -0.89175152587E+03  0.92386501379E+03  0.92313319247E+02 0.  0.
         11    1    3    3    0    0 -0.25366505787E+01 -0.20091561236E+02  0.67801417227E+01  0.21355930110E+02  0.00000000000E+00 0.  1.
        -11    1    3    3    0    0  0.18041451917E+03 -0.50025156100E+03  0.66559577472E+03  0.85194997408E+03  0.00000000000E+00 0. -1.
          2    1    5    5  502    0 -0.19090578457E+03  0.19640944765E+03 -0.30590964626E+03  0.41061222751E+03  0.00000000000E+00 0. -1.
          2    1    6    6  503    0  0.35022992462E+01 -0.25552829485E+02 -0.85667793834E+02  0.89466105845E+02  0.00000000000E+00 0. -1.
         -2    1    5    5    0  502 -0.20478495844E+03  0.37232357678E+03 -0.45308564561E+03  0.62116690775E+03  0.00000000000E+00 0.  1.
         -2    1    6    6    0  503  0.21431057517E+03 -0.22837072705E+02 -0.80608373204E+03  0.83439890794E+03  0.00000000000E+00 0.  1.
<mgrwt>
<rscale>  0 0.26543829E+04</rscale>
<asrwt>0</asrwt>
<pdfrwt beam="1">  1        2 0.14235224E+00 0.26543829E+04</pdfrwt>
<pdfrwt beam="2">  1       -2 0.29287084E+00 0.26543829E+04</pdfrwt>
<totfact> 0.87251762E-01</totfact>
</mgrwt>
</event>
<event>
12    1  0.4403484E-008  0.1758355E+04  0.7818608E-02  0.8728765E-01
         -1   -1    0    0    0  501 -0.00000000000E+00  0.00000000000E+00  0.13459230851E+04  0.13459230851E+04  0.00000000000E+00 0.  1.
          1   -1    0    0  501    0  0.00000000000E+00 -0.00000000000E+00 -0.57429208953E+03  0.57429208953E+03  0.00000000000E+00 0. -1.
         23    2    1    2    0    0  0.27047012731E+03 -0.58589768915E+03  0.31352031802E+03  0.72301847921E+03  0.89613277746E+02 0.  0.
        254    2    1    2    0    0 -0.27047012731E+03  0.58589768915E+03  0.45811067753E+03  0.11971966954E+04  0.89832307258E+03 0.  0.
         23    2    4    4    0    0  0.69477234305E+02  0.71425971899E+03  0.36510354764E+03  0.81053799903E+03  0.93151570665E+02 0.  0.
         23    2    4    4    0    0 -0.33994736161E+03 -0.12836202984E+03  0.93007129896E+02  0.38665869638E+03  0.93880785589E+02 0.  0.
         11    1    3    3    0    0  0.18165131990E+03 -0.39242168402E+03  0.25589527417E+03  0.50246827905E+03  0.00000000000E+00 0. -1.
        -11    1    3    3    0    0  0.88818807409E+02 -0.19347600513E+03  0.57625043849E+02  0.22055020016E+03  0.00000000000E+00 0.  1.
          2    1    5    5  502    0  0.72696727354E+02  0.68124440009E+03  0.36717660814E+03  0.77730136265E+03  0.00000000000E+00 0. -1.
          4    1    6    6  503    0 -0.28595760702E+03 -0.14233799637E+03  0.75795469107E+02  0.32829378818E+03  0.00000000000E+00 0. -1.
         -2    1    5    5    0  502 -0.32194930486E+01  0.33015318904E+02 -0.20730605048E+01  0.33236636377E+02  0.00000000000E+00 0.  1.
         -4    1    6    6    0  503 -0.53989754597E+02  0.13975966531E+02  0.17211660789E+02  0.58364908199E+02  0.00000000000E+00 0.  1.
<mgrwt>
<rscale>  0 0.17583549E+04</rscale>
<asrwt>0</asrwt>
<pdfrwt beam="1">  1        1 0.88352630E-01 0.17583549E+04</pdfrwt>
<pdfrwt beam="2">  1       -1 0.20706509E+00 0.17583549E+04</pdfrwt>
<totfact> 0.46488012E+00</totfact>
</mgrwt>
</event>
<event>
12    1  0.4403484E-008  0.1050553E+04  0.7818608E-02  0.9254773E-01
          2   -1    0    0  501    0  0.00000000000E+00  0.00000000000E+00  0.87505721151E+03  0.87505721151E+03  0.00000000000E+00 0. -1.
         -2   -1    0    0    0  501 -0.00000000000E+00 -0.00000000000E+00 -0.31531139928E+03  0.31531139928E+03  0.00000000000E+00 0.  1.
         23    2    1    2    0    0  0.79939189359E+02  0.35012018686E+02  0.14526903342E+03  0.19165308508E+03  0.89508086233E+02 0.  0.
        254    2    1    2    0    0 -0.79939189359E+02 -0.35012018686E+02  0.41447677881E+03  0.99871552571E+03  0.90444766884E+03 0.  0.
         23    2    4    4    0    0 -0.94942597968E+02 -0.19325269009E+02  0.69298195514E+03  0.70544083913E+03  0.89639413359E+02 0.  0.
         23    2    4    4    0    0  0.15003408609E+02 -0.15686749677E+02 -0.27850517633E+03  0.29327468658E+03  0.89295756689E+02 0.  0.
         11    1    3    3    0    0  0.98682967271E+02  0.24536106906E+02  0.13115250960E+03  0.16595580540E+03  0.00000000000E+00 0. -1.
        -11    1    3    3    0    0 -0.18743777912E+02  0.10475911779E+02  0.14116523819E+02  0.25697279676E+02  0.00000000000E+00 0.  1.
          4    1    5    5  502    0 -0.18238157025E+02  0.24080167810E+02  0.69779785157E+02  0.76037512255E+02  0.00000000000E+00 0. -1.
          1    1    6    6  503    0  0.33100301238E+02 -0.27846382049E+02 -0.61564644898E+02  0.75241321338E+02  0.00000000000E+00 0. -1.
         -4    1    5    5    0  502 -0.76704440943E+02 -0.43405436818E+02  0.62320216998E+03  0.62940332687E+03  0.00000000000E+00 0.  1.
         -1    1    6    6    0  503 -0.18096892629E+02  0.12159632372E+02 -0.21694053143E+03  0.21803336524E+03  0.00000000000E+00 0.  1.
<mgrwt>
<rscale>  0 0.10505532E+04</rscale>
<asrwt>0</asrwt>
<pdfrwt beam="1">  1        2 0.13462419E+00 0.10505532E+04</pdfrwt>
<pdfrwt beam="2">  1       -2 0.48509447E-01 0.10505532E+04</pdfrwt>
<totfact> 0.12218525E+02</totfact>
</mgrwt>
</event>
<event>
12    1  0.4403484E-008  0.1349007E+04  0.7818608E-02  0.8991580E-01
          1   -1    0    0  501    0  0.00000000000E+00  0.00000000000E+00  0.98442990057E+03  0.98442990057E+03  0.00000000000E+00 0.  1.
         -1   -1    0    0    0  501 -0.00000000000E+00 -0.00000000000E+00 -0.46215061629E+03  0.46215061629E+03  0.00000000000E+00 0. -1.
         23    2    1    2    0    0 -0.25670221310E+03  0.19520496266E+03 -0.16662789867E+02  0.33740077809E+03  0.97778488576E+02 0.  0.
        254    2    1    2    0    0  0.25670221310E+03 -0.19520496266E+03  0.53894207415E+03  0.11091797388E+04  0.91423198913E+03 0.  0.
         23    2    4    4    0    0  0.24521123666E+02 -0.49379057787E+03  0.51111798514E+03  0.71686919292E+03  0.90716176795E+02 0.  0.
         23    2    4    4    0    0  0.23218108944E+03  0.29858561521E+03  0.27824089013E+02  0.39231054585E+03  0.10035913787E+03 0.  0.
         11    1    3    3    0    0 -0.22428603749E+03  0.12130761045E+03  0.68977006591E-01  0.25498974043E+03  0.00000000000E+00 0. -1.
        -11    1    3    3    0    0 -0.32416175615E+02  0.73897352213E+02 -0.16731766873E+02  0.82411037661E+02  0.00000000000E+00 0.  1.
          4    1    5    5  502    0 -0.23110074753E+02 -0.71336200612E+02  0.10423371436E+03  0.12840403530E+03  0.00000000000E+00 0. -1.
          3    1    6    6  503    0  0.11655474109E+03  0.72310947620E+02  0.12843637531E+02  0.13776371018E+03  0.00000000000E+00 0. -1.
         -4    1    5    5    0  502  0.47631198420E+02 -0.42245437725E+03  0.40688427078E+03  0.58846515762E+03  0.00000000000E+00 0.  1.
         -3    1    6    6    0  503  0.11562634834E+03  0.22627466759E+03  0.14980451482E+02  0.25454683567E+03  0.00000000000E+00 0.  1.
<mgrwt>
<rscale>  0 0.13490069E+04</rscale>
<asrwt>0</asrwt>
<pdfrwt beam="1">  1        1 0.15145075E+00 0.13490069E+04</pdfrwt>
<pdfrwt beam="2">  1       -1 0.71100095E-01 0.13490069E+04</pdfrwt>
<totfact> 0.30444357E+01</totfact>
</mgrwt>
</event>
<event>
12    1  0.4403484E-008  0.2928915E+04  0.7818608E-02  0.8264326E-01
         -1   -1    0    0    0  501 -0.00000000000E+00  0.00000000000E+00  0.11625300419E+04  0.11625300419E+04  0.00000000000E+00 0.  1.
          1   -1    0    0  501    0  0.00000000000E+00 -0.00000000000E+00 -0.18448000595E+04  0.18448000595E+04  0.00000000000E+00 0. -1.
         23    2    1    2    0    0 -0.22527187647E+03 -0.10231262594E+04 -0.11391968664E+04  0.15505010515E+04  0.93537421679E+02 0.  0.
        254    2    1    2    0    0  0.22527187647E+03  0.10231262594E+04  0.45692684877E+03  0.14568290499E+04  0.90334598822E+03 0.  0.
         23    2    4    4    0    0  0.32925191066E+03  0.95635614000E+03  0.65541511284E+03  0.12085902464E+04  0.89986256876E+02 0.  0.
         23    2    4    4    0    0 -0.10398003419E+03  0.66770119398E+02 -0.19848826408E+03  0.24823880345E+03  0.83395540693E+02 0.  0.
         13    1    3    3    0    0 -0.33184087053E+02 -0.91438669203E+02 -0.73028091572E+02  0.12163599803E+03  0.00000000000E+00 0.  1.
        -13    1    3    3    0    0 -0.19208778942E+03 -0.93168759020E+03 -0.10661687748E+04  0.14288650534E+04  0.00000000000E+00 0. -1.
          2    1    5    5  502    0  0.30139779561E+03  0.89321815186E+03  0.58224383281E+03  0.11080104597E+04  0.00000000000E+00 0. -1.
          1    1    6    6  503    0 -0.10782650317E+03  0.35019274549E+02 -0.17517631144E+03  0.20866155483E+03  0.00000000000E+00 0. -1.
         -2    1    5    5    0  502  0.27854115048E+02  0.63137988139E+02  0.73171280035E+02  0.10057978670E+03  0.00000000000E+00 0.  1.
         -1    1    6    6    0  503  0.38464689832E+01  0.31750844849E+02 -0.23311952639E+02  0.39577248617E+02  0.00000000000E+00 0.  1.
<mgrwt>
<rscale>  0 0.29289148E+04</rscale>
<asrwt>0</asrwt>
<pdfrwt beam="1">  1        1 0.28381540E+00 0.29289148E+04</pdfrwt>
<pdfrwt beam="2">  1       -1 0.17885077E+00 0.29289148E+04</pdfrwt>
<totfact> 0.68984099E-01</totfact>
</mgrwt>
</event>
<event>
12    1  0.4403484E-008  0.1629500E+04  0.7818608E-02  0.8802627E-01
          1   -1    0    0  501    0  0.00000000000E+00  0.00000000000E+00  0.75382471950E+03  0.75382471950E+03  0.00000000000E+00 0. -1.
         -1   -1    0    0    0  501 -0.00000000000E+00 -0.00000000000E+00 -0.88059941500E+03  0.88059941500E+03  0.00000000000E+00 0.  1.
         23    2    1    2    0    0 -0.11021518638E+03 -0.36781621028E+03 -0.44986626505E+03  0.59811069523E+03  0.88997727330E+02 0.  0.
        254    2    1    2    0    0  0.11021518638E+03  0.36781621028E+03  0.32309156955E+03  0.10363134393E+04  0.90670901079E+03 0.  0.
         23    2    4    4    0    0  0.18834049437E+03  0.64529871027E+03  0.17958034044E+03  0.70152242718E+03  0.89454177521E+02 0.  0.
         23    2    4    4    0    0 -0.78125307993E+02 -0.27748249999E+03  0.14351122911E+03  0.33479101209E+03  0.91593926356E+02 0.  0.
         13    1    3    3    0    0 -0.74190965537E+02 -0.26028022226E+03 -0.37403618561E+03  0.46168513255E+03  0.00000000000E+00 0.  1.
        -13    1    3    3    0    0 -0.36024220844E+02 -0.10753598802E+03 -0.75830079431E+02  0.13642556268E+03  0.00000000000E+00 0. -1.
          2    1    5    5  502    0  0.14151457179E+03  0.40542901675E+03  0.76043634947E+02  0.43609826423E+03  0.00000000000E+00 0.  1.
          3    1    6    6  503    0 -0.60608764523E+02 -0.97857631417E+02  0.91283820617E+02  0.14690906803E+03  0.00000000000E+00 0. -1.
         -2    1    5    5    0  502  0.46825922588E+02  0.23986969352E+03  0.10353670549E+03  0.26542416295E+03  0.00000000000E+00 0. -1.
         -3    1    6    6    0  503 -0.17516543470E+02 -0.17962486857E+03  0.52227408494E+02  0.18788194406E+03  0.00000000000E+00 0.  1.
<mgrwt>
<rscale>  0 0.16295001E+04</rscale>
<asrwt>0</asrwt>
<pdfrwt beam="1">  1        1 0.11597303E+00 0.16295001E+04</pdfrwt>
<pdfrwt beam="2">  1       -1 0.13547683E+00 0.16295001E+04</pdfrwt>
<totfact> 0.10619080E+01</totfact>
</mgrwt>
</event>
<event>
12    1  0.4403484E-008  0.2223283E+04  0.7818608E-02  0.8508799E-01
         -1   -1    0    0    0  501 -0.00000000000E+00  0.00000000000E+00  0.14463277244E+04  0.14463277244E+04  0.00000000000E+00 0.  1.
          1   -1    0    0  501    0  0.00000000000E+00 -0.00000000000E+00 -0.85440299755E+03  0.85440299755E+03  0.00000000000E+00 0. -1.
         23    2    1    2    0    0 -0.80860956714E+03 -0.38618410571E+03  0.51451868986E+03  0.10373040298E+04  0.91008639754E+02 0.  0.
        254    2    1    2    0    0  0.80860956714E+03  0.38618410571E+03  0.77406037010E+02  0.12634266921E+04  0.88728108074E+03 0.  0.
         23    2    4    4    0    0  0.15824523488E+02  0.26474007725E+03 -0.26575872507E+03  0.38625385980E+03  0.90700717817E+02 0.  0.
         23    2    4    4    0    0  0.79278504366E+03  0.12144402846E+03  0.34316476208E+03  0.87717283233E+03  0.91724295344E+02 0.  0.
         13    1    3    3    0    0 -0.54807909985E+03 -0.26862603289E+03  0.39785178097E+03  0.72858539984E+03  0.00000000000E+00 0. -1.
        -13    1    3    3    0    0 -0.26053046730E+03 -0.11755807283E+03  0.11666690889E+03  0.30871863000E+03  0.00000000000E+00 0.  1.
          4    1    5    5  502    0 -0.31766575638E+01  0.25827281982E+03 -0.25695584036E+03  0.36433671858E+03  0.00000000000E+00 0. -1.
          1    1    6    6  503    0  0.74798991161E+03  0.13424116867E+03  0.31431934898E+03  0.82237841191E+03  0.00000000000E+00 0. -1.
         -4    1    5    5    0  502  0.19001181052E+02  0.64672574375E+01 -0.88028847063E+01  0.21917141220E+02  0.00000000000E+00 0.  1.
         -1    1    6    6    0  503  0.44795132052E+02 -0.12797140207E+02  0.28845413095E+02  0.54794420424E+02  0.00000000000E+00 0.  1.
<mgrwt>
<rscale>  0 0.22232829E+04</rscale>
<asrwt>0</asrwt>
<pdfrwt beam="1">  1        1 0.13144662E+00 0.22232829E+04</pdfrwt>
<pdfrwt beam="2">  1       -1 0.22251196E+00 0.22232829E+04</pdfrwt>
<totfact> 0.19126596E+00</totfact>
</mgrwt>
</event>
<event>
12    1  0.4403484E-008  0.2999549E+04  0.7818608E-02  0.8243860E-01
         -1   -1    0    0    0  501 -0.00000000000E+00  0.00000000000E+00  0.95813176445E+03  0.95813176445E+03  0.00000000000E+00 0.  1.
          1   -1    0    0  501    0  0.00000000000E+00 -0.00000000000E+00 -0.23476139081E+04  0.23476139081E+04  0.00000000000E+00 0. -1.
         23    2    1    2    0    0 -0.30944090984E+03  0.12407974594E+04 -0.11714994023E+04  0.17367011296E+04  0.91585761774E+02 0.  0.
        254    2    1    2    0    0  0.30944090984E+03 -0.12407974594E+04 -0.21798274136E+03  0.15690445430E+04  0.88263938863E+03 0.  0.
         23    2    4    4    0    0 -0.38369661596E+02 -0.10024187485E+04 -0.42121108436E+03  0.10919167236E+04  0.92454179923E+02 0.  0.
         23    2    4    4    0    0  0.34781057144E+03 -0.23837871092E+03  0.20322834300E+03  0.47712781939E+03  0.92480231506E+02 0.  0.
         13    1    3    3    0    0 -0.27375836397E+03  0.10952025545E+04 -0.10719307951E+04  0.15567427233E+04  0.00000000000E+00 0. -1.
        -13    1    3    3    0    0 -0.35682545873E+02  0.14559490495E+03 -0.99568607256E+02  0.17995840624E+03  0.00000000000E+00 0.  1.
          2    1    5    5  502    0 -0.39390897616E+02 -0.21588167954E+03 -0.68262968901E+02  0.22981813527E+03  0.00000000000E+00 0. -1.
          1    1    6    6  503    0  0.11195495945E+03 -0.92105820782E+02  0.11763913591E+03  0.18669858453E+03  0.00000000000E+00 0.  1.
         -2    1    5    5    0  502  0.10212360195E+01 -0.78653706900E+03 -0.35294811546E+03  0.86209858835E+03  0.00000000000E+00 0.  1.
         -1    1    6    6    0  503  0.23585561198E+03 -0.14627289013E+03  0.85589207087E+02  0.29042923486E+03  0.00000000000E+00 0. -1.
<mgrwt>
<rscale>  0 0.29995489E+04</rscale>
<asrwt>0</asrwt>
<pdfrwt beam="1">  1        1 0.36117137E+00 0.29995489E+04</pdfrwt>
<pdfrwt beam="2">  1       -1 0.14740489E+00 0.29995489E+04</pdfrwt>
<totfact> 0.53709012E-01</totfact>
</mgrwt>
</event>
<event>
12    1  0.4403484E-008  0.1222052E+04  0.7818608E-02  0.9093770E-01
          1   -1    0    0  501    0  0.00000000000E+00  0.00000000000E+00  0.19890234702E+04  0.19890234702E+04  0.00000000000E+00 0. -1.
         -1   -1    0    0    0  501 -0.00000000000E+00 -0.00000000000E+00 -0.18770666013E+03  0.18770666013E+03  0.00000000000E+00 0.  1.
         23    2    1    2    0    0 -0.62914197120E+02  0.25979323988E+03  0.43424161934E+03  0.51816188183E+03  0.92061002216E+02 0.  0.
        254    2    1    2    0    0  0.62914197120E+02 -0.25979323988E+03  0.13670751907E+04  0.16585682485E+04  0.90027958664E+03 0.  0.
         23    2    4    4    0    0 -0.61211249140E+01  0.15895556470E+03  0.11657082896E+04  0.11800707117E+04  0.91579083057E+02 0.  0.
         23    2    4    4    0    0  0.69035322034E+02 -0.41874880457E+03  0.20136690106E+03  0.47849753673E+03  0.91075939693E+02 0.  0.
         11    1    3    3    0    0  0.13721359901E+02  0.66407636489E+02  0.16141182148E+03  0.17507720015E+03  0.00000000000E+00 0.  1.
        -11    1    3    3    0    0 -0.76635557022E+02  0.19338560339E+03  0.27282979786E+03  0.34308468168E+03  0.00000000000E+00 0. -1.
          4    1    5    5  502    0  0.21745240273E+02  0.12111619711E+02  0.71655107640E+02  0.75855133363E+02  0.00000000000E+00 0. -1.
          3    1    6    6  503    0  0.34621985739E+02 -0.10422297565E+03  0.93436873199E+02  0.14419278700E+03  0.00000000000E+00 0. -1.
         -4    1    5    5    0  502 -0.27866365187E+02  0.14684394499E+03  0.10940531820E+04  0.11042155784E+04  0.00000000000E+00 0.  1.
         -3    1    6    6    0  503  0.34413336295E+02 -0.31452582892E+03  0.10793002786E+03  0.33430474973E+03  0.00000000000E+00 0.  1.
<mgrwt>
<rscale>  0 0.12220523E+04</rscale>
<asrwt>0</asrwt>
<pdfrwt beam="1">  1        1 0.30600360E+00 0.12220523E+04</pdfrwt>
<pdfrwt beam="2">  1       -1 0.28877949E-01 0.12220523E+04</pdfrwt>
<totfact> 0.32735223E+01</totfact>
</mgrwt>
</event>
<event>
12    1  0.4403484E-008  0.1292622E+04  0.7818608E-02  0.9035436E-01
         -2   -1    0    0    0  501 -0.00000000000E+00  0.00000000000E+00  0.55260134132E+03  0.55260134132E+03  0.00000000000E+00 0.  1.
          2   -1    0    0  501    0  0.00000000000E+00 -0.00000000000E+00 -0.75591233179E+03  0.75591233179E+03  0.00000000000E+00 0. -1.
         23    2    1    2    0    0 -0.73283637937E+02 -0.59174525906E+02  0.25892647678E+03  0.28962801841E+03  0.89271230324E+02 0.  0.
        254    2    1    2    0    0  0.73283637937E+02  0.59174525906E+02 -0.46223746725E+03  0.10188856547E+04  0.90310153643E+03 0.  0.
         23    2    4    4    0    0 -0.32439183889E+03 -0.22985845560E+03 -0.21128634136E+03  0.45931886927E+03  0.90922664267E+02 0.  0.
         23    2    4    4    0    0  0.39767547682E+03  0.28903298150E+03 -0.25095112589E+03  0.55956678542E+03  0.91938406019E+02 0.  0.
         11    1    3    3    0    0 -0.77013970489E+02 -0.94039762683E+01  0.18298382678E+03  0.19875277931E+03  0.00000000000E+00 0.  1.
        -11    1    3    3    0    0  0.37303325528E+01 -0.49770549638E+02  0.75942650008E+02  0.90875239106E+02  0.00000000000E+00 0. -1.
          4    1    5    5  502    0 -0.22476749062E+03 -0.10806476939E+03 -0.14579112600E+03  0.28888314531E+03  0.00000000000E+00 0. -1.
          1    1    6    6  503    0  0.11404124173E+03  0.47128786883E+02 -0.32941996993E+02  0.12771727579E+03  0.00000000000E+00 0. -1.
         -4    1    5    5    0  502 -0.99624348269E+02 -0.12179368621E+03 -0.65495215357E+02  0.17043572396E+03  0.00000000000E+00 0.  1.
         -1    1    6    6    0  503  0.28363423509E+03  0.24190419462E+03 -0.21800912890E+03  0.43184950964E+03  0.00000000000E+00 0.  1.
<mgrwt>
<rscale>  0 0.12926224E+04</rscale>
<asrwt>0</asrwt>
<pdfrwt beam="1">  1        2 0.11629420E+00 0.12926224E+04</pdfrwt>
<pdfrwt beam="2">  1       -2 0.85015591E-01 0.12926224E+04</pdfrwt>
<totfact> 0.43860068E+01</totfact>
</mgrwt>
</event>
<event>
12    1  0.4403484E-008  0.1454512E+04  0.7818608E-02  0.8915278E-01
          2   -1    0    0  501    0  0.00000000000E+00  0.00000000000E+00  0.60656553243E+03  0.60656553243E+03  0.00000000000E+00 0. -1.
         -2   -1    0    0    0  501 -0.00000000000E+00 -0.00000000000E+00 -0.87196054593E+03  0.87196054593E+03  0.00000000000E+00 0.  1.
         23    2    1    2    0    0 -0.35183169501E+03 -0.25189526683E+03 -0.17196212597E+03  0.47541411942E+03  0.95973147857E+02 0.  0.
        254    2    1    2    0    0  0.35183169501E+03  0.25189526683E+03 -0.93432887528E+02  0.10031119589E+04  0.90014839366E+03 0.  0.
         23    2    4    4    0    0 -0.20262692265E+03  0.23802627689E+03 -0.26000283678E+03  0.41675907627E+03  0.91501225404E+02 0.  0.
         23    2    4    4    0    0  0.55445861766E+03  0.13868989937E+02  0.16656994925E+03  0.58635288266E+03  0.91909996336E+02 0.  0.
         11    1    3    3    0    0 -0.29270772623E+03 -0.16098529933E+03 -0.14135296361E+03  0.36273232544E+03  0.00000000000E+00 0.  1.
        -11    1    3    3    0    0 -0.59123968781E+02 -0.90909967495E+02 -0.30609162359E+02  0.11268179398E+03  0.00000000000E+00 0. -1.
          3    1    6    6  502    0  0.46208056006E+02 -0.24754751773E+02  0.18009751049E+02  0.55428632565E+02  0.00000000000E+00 0. -1.
          3    1    5    5  503    0  0.67930237689E+01  0.10842840499E+02 -0.26644382586E+02  0.29557325410E+02  0.00000000000E+00 0. -1.
         -3    1    5    5    0  503 -0.20941994642E+03  0.22718343639E+03 -0.23335845420E+03  0.38720175086E+03  0.00000000000E+00 0.  1.
         -3    1    6    6    0  502  0.50825056166E+03  0.38623741709E+02  0.14856019820E+03  0.53092425009E+03  0.00000000000E+00 0.  1.
<mgrwt>
<rscale>  0 0.14545119E+04</rscale>
<asrwt>0</asrwt>
<pdfrwt beam="1">  1        2 0.93317774E-01 0.14545119E+04</pdfrwt>
<pdfrwt beam="2">  1       -2 0.13414778E+00 0.14545119E+04</pdfrwt>
<totfact> 0.19016139E+01</totfact>
</mgrwt>
</event>
<event>
12    1  0.4403484E-008  0.1710484E+04  0.7818608E-02  0.8755407E-01
         -2   -1    0    0    0  501 -0.00000000000E+00  0.00000000000E+00  0.42987069109E+03  0.42987069109E+03  0.00000000000E+00 0.  1.
          2   -1    0    0  501    0  0.00000000000E+00 -0.00000000000E+00 -0.17015332652E+04  0.17015332652E+04  0.00000000000E+00 0. -1.
         23    2    1    2    0    0 -0.42125346679E+02 -0.44864849742E+03 -0.97017096319E+03  0.10742468876E+04  0.98562967775E+02 0.  0.
        254    2    1    2    0    0  0.42125346679E+02  0.44864849742E+03 -0.30149161091E+03  0.10571570687E+04  0.90753724846E+03 0.  0.
         23    2    4    4    0    0  0.16203594463E+03  0.35354568717E+02  0.27475523320E+03  0.33304766872E+03  0.89020888486E+02 0.  0.
         23    2    4    4    0    0 -0.11991059795E+03  0.41329392871E+03 -0.57624684411E+03  0.72410939996E+03  0.84163975394E+02 0.  0.
         13    1    3    3    0    0 -0.39974887662E+02 -0.34881318776E+03 -0.83813442633E+03  0.90870124254E+03  0.00000000000E+00 0. -1.
        -13    1    3    3    0    0 -0.21504590169E+01 -0.99835309664E+02 -0.13203653686E+03  0.16554564505E+03  0.00000000000E+00 0.  1.
          1    1    5    5  502    0  0.15355231880E+03  0.15925031732E+02  0.27045858636E+03  0.31141574812E+03  0.00000000000E+00 0. -1.
          1    1    6    6  503    0 -0.38383008559E+02  0.26778672595E+03 -0.33034981662E+03  0.42698242034E+03  0.00000000000E+00 0. -1.
         -1    1    5    5    0  502  0.84836258343E+01  0.19429536985E+02  0.42966468457E+01  0.21631920600E+02  0.00000000000E+00 0.  1.
         -1    1    6    6    0  503 -0.81527589394E+02  0.14550720275E+03 -0.24589702750E+03  0.29712697962E+03  0.00000000000E+00 0.  1.
<mgrwt>
<rscale>  0 0.17104845E+04</rscale>
<asrwt>0</asrwt>
<pdfrwt beam="1">  1        2 0.26177435E+00 0.17104845E+04</pdfrwt>
<pdfrwt beam="2">  1       -2 0.66133952E-01 0.17104845E+04</pdfrwt>
<totfact> 0.19570096E+01</totfact>
</mgrwt>
</event>
<event>
12    1  0.4403484E-008  0.1927259E+04  0.7818608E-02  0.8641406E-01
          1   -1    0    0  501    0  0.00000000000E+00  0.00000000000E+00  0.16932941698E+04  0.16932941698E+04  0.00000000000E+00 0. -1.
         -1   -1    0    0    0  501 -0.00000000000E+00 -0.00000000000E+00 -0.54838778170E+03  0.54838778170E+03  0.00000000000E+00 0.  1.
         23    2    1    2    0    0 -0.36937337387E+03  0.43573133135E+03  0.10080191983E+04  0.11626141046E+04  0.96282759491E+02 0.  0.
        254    2    1    2    0    0  0.36937337387E+03 -0.43573133135E+03  0.13688718981E+03  0.10790678469E+04  0.90518000030E+03 0.  0.
         23    2    4    4    0    0  0.27758915722E+02  0.22697984262E+03  0.21202284394E+03  0.32500366542E+03  0.91560307024E+02 0.  0.
         23    2    4    4    0    0  0.34161445815E+03 -0.66271117397E+03 -0.75135654127E+02  0.75406418143E+03  0.84147995121E+02 0.  0.
         13    1    3    3    0    0 -0.23203604019E+02  0.72421526241E+02  0.16195577511E+03  0.17892165267E+03  0.00000000000E+00 0.  1.
        -13    1    3    3    0    0 -0.34616976985E+03  0.36330980510E+03  0.84606342314E+03  0.98369245195E+03  0.00000000000E+00 0. -1.
          2    1    5    5  502    0  0.41664678918E+02  0.36769459645E+02  0.50080206741E+02  0.74806187840E+02  0.00000000000E+00 0. -1.
          3    1    6    6  503    0  0.15047697327E+03 -0.38329477474E+03 -0.40826179393E+02  0.41379340347E+03  0.00000000000E+00 0. -1.
         -2    1    5    5    0  502 -0.13905763196E+02  0.19021038298E+03  0.16194263720E+03  0.25019747758E+03  0.00000000000E+00 0.  1.
         -3    1    6    6    0  503  0.19113748488E+03 -0.27941639922E+03 -0.34309474734E+02  0.34027077796E+03  0.00000000000E+00 0.  1.
<mgrwt>
<rscale>  0 0.19272590E+04</rscale>
<asrwt>0</asrwt>
<pdfrwt beam="1">  1        1 0.26050679E+00 0.19272590E+04</pdfrwt>
<pdfrwt beam="2">  1       -1 0.84367352E-01 0.19272590E+04</pdfrwt>
<totfact> 0.62553586E+00</totfact>
</mgrwt>
</event>
<event>
12    1  0.4403484E-008  0.1262701E+04  0.7818608E-02  0.9059678E-01
          2   -1    0    0  501    0  0.00000000000E+00  0.00000000000E+00  0.23292438640E+04  0.23292438640E+04  0.00000000000E+00 0. -1.
         -2   -1    0    0    0  501 -0.00000000000E+00 -0.00000000000E+00 -0.17113008700E+03  0.17113008700E+03  0.00000000000E+00 0.  1.
         23    2    1    2    0    0  0.21847279245E+03 -0.16221334543E+03  0.29126328452E+03  0.40909350473E+03  0.92085092304E+02 0.  0.
        254    2    1    2    0    0 -0.21847279245E+03  0.16221334543E+03  0.18668504925E+04  0.20912804463E+04  0.90237443072E+03 0.  0.
         23    2    4    4    0    0  0.17648848844E+03 -0.27851367492E+02  0.32974282834E+02  0.20378565371E+03  0.92289783336E+02 0.  0.
         23    2    4    4    0    0 -0.39496128089E+03  0.19006471292E+03  0.18338762097E+04  0.18874947926E+04  0.86114058884E+02 0.  0.
         13    1    3    3    0    0  0.41271060307E+02 -0.27919114384E+02  0.11510224714E+03  0.12542449786E+03  0.00000000000E+00 0. -1.
        -13    1    3    3    0    0  0.17720173214E+03 -0.13429423104E+03  0.17616103738E+03  0.28366900687E+03  0.00000000000E+00 0.  1.
          4    1    5    5  502    0  0.29177672944E+02  0.30264025438E+02  0.13920756165E+02  0.44283578067E+02  0.00000000000E+00 0. -1.
          3    1    6    6  503    0 -0.26079604693E+03  0.86348167324E+02  0.12264330035E+04  0.12568247675E+04  0.00000000000E+00 0. -1.
         -4    1    5    5    0  502  0.14731081549E+03 -0.58115392930E+02  0.19053526669E+02  0.15950207565E+03  0.00000000000E+00 0.  1.
         -3    1    6    6    0  503 -0.13416523395E+03  0.10371654559E+03  0.60744320617E+03  0.63067002510E+03  0.00000000000E+00 0.  1.
<mgrwt>
<rscale>  0 0.12627014E+04</rscale>
<asrwt>0</asrwt>
<pdfrwt beam="1">  1        2 0.35834519E+00 0.12627014E+04</pdfrwt>
<pdfrwt beam="2">  1       -2 0.26327707E-01 0.12627014E+04</pdfrwt>
<totfact> 0.56170986E+01</totfact>
</mgrwt>
</event>
<event>
12    1  0.4403484E-008  0.1992018E+04  0.7818608E-02  0.8610361E-01
         -1   -1    0    0    0  501 -0.00000000000E+00  0.00000000000E+00  0.14655822876E+04  0.14655822876E+04  0.00000000000E+00 0.  1.
          1   -1    0    0  501    0  0.00000000000E+00 -0.00000000000E+00 -0.67688745520E+03  0.67688745520E+03  0.00000000000E+00 0. -1.
         23    2    1    2    0    0 -0.97664362862E+02  0.63861865288E+03 -0.17278145805E+03  0.67449681018E+03  0.87865824482E+02 0.  0.
        254    2    1    2    0    0  0.97664362862E+02 -0.63861865288E+03  0.96147629044E+03  0.14679729326E+04  0.90174040735E+03 0.  0.
         23    2    4    4    0    0  0.40933814699E+03 -0.70419378808E+02  0.54870460241E+03  0.69431052145E+03  0.92052984783E+02 0.  0.
         23    2    4    4    0    0 -0.31167378412E+03 -0.56819927408E+03  0.41277168803E+03  0.77366241117E+03  0.90454945940E+02 0.  0.
         11    1    3    3    0    0 -0.10558628900E+03  0.52072560321E+03 -0.16379446868E+03  0.55599662430E+03  0.00000000000E+00 0. -1.
        -11    1    3    3    0    0  0.79219261389E+01  0.11789304967E+03 -0.89869893634E+01  0.11850018587E+03  0.00000000000E+00 0.  1.
          4    1    5    5  502    0  0.21723952112E+03 -0.73996765804E+01  0.22647246959E+03  0.31390690377E+03  0.00000000000E+00 0.  1.
          3    1    6    6  503    0  0.10277744181E+01  0.23990173408E+01  0.53873859608E+01  0.59862786392E+01  0.00000000000E+00 0. -1.
         -4    1    5    5    0  502  0.19209862586E+03 -0.63019702227E+02  0.32223213282E+03  0.38040361768E+03  0.00000000000E+00 0. -1.
         -3    1    6    6    0  503 -0.31270155854E+03 -0.57059829142E+03  0.40738430207E+03  0.76767613253E+03  0.00000000000E+00 0.  1.
<mgrwt>
<rscale>  0 0.19920183E+04</rscale>
<asrwt>0</asrwt>
<pdfrwt beam="1">  1        1 0.10413653E+00 0.19920183E+04</pdfrwt>
<pdfrwt beam="2">  1       -1 0.22547420E+00 0.19920183E+04</pdfrwt>
<totfact> 0.26915058E+00</totfact>
</mgrwt>
</event>
<event>
12    1  0.4403484E-008  0.2271076E+04  0.7818608E-02  0.8489414E-01
          2   -1    0    0  501    0  0.00000000000E+00  0.00000000000E+00  0.29242907690E+04  0.29242907690E+04  0.00000000000E+00 0. -1.
         -2   -1    0    0    0  501 -0.00000000000E+00 -0.00000000000E+00 -0.44094318607E+03  0.44094318607E+03  0.00000000000E+00 0.  1.
         23    2    1    2    0    0 -0.26431830547E+03  0.74029249058E+03  0.23669815749E+03  0.82581683987E+03  0.89723447607E+02 0.  0.
        254    2    1    2    0    0  0.26431830547E+03 -0.74029249058E+03  0.22466494254E+04  0.25394171152E+04  0.88504717723E+03 0.  0.
         23    2    4    4    0    0 -0.13870776482E+02  0.67989676985E+02 -0.24355820082E+02  0.11098420087E+03  0.83122152607E+02 0.  0.
         23    2    4    4    0    0  0.27818908195E+03 -0.80828216756E+03  0.22710052455E+04  0.24284329143E+04  0.95458716211E+02 0.  0.
         13    1    3    3    0    0 -0.66602072692E+02  0.15044865039E+03  0.86320122172E+02  0.18580041976E+03  0.00000000000E+00 0. -1.
        -13    1    3    3    0    0 -0.19771623278E+03  0.58984384019E+03  0.15037803531E+03  0.64001642011E+03  0.00000000000E+00 0.  1.
          2    1    5    5  502    0  0.33981992685E+02  0.18982466221E+02 -0.21672148269E+01  0.38984697906E+02  0.00000000000E+00 0. -1.
          1    1    6    6  503    0  0.78751807828E+02 -0.29785666022E+03  0.70749133539E+03  0.77166341557E+03  0.00000000000E+00 0. -1.
         -2    1    5    5    0  502 -0.47852769167E+02  0.49007210764E+02 -0.22188605255E+02  0.71999502963E+02  0.00000000000E+00 0.  1.
         -1    1    6    6    0  503  0.19943727412E+03 -0.51042550734E+03  0.15635139101E+04  0.16567694987E+04  0.00000000000E+00 0.  1.
<mgrwt>
<rscale>  0 0.22710756E+04</rscale>
<asrwt>0</asrwt>
<pdfrwt beam="1">  1        2 0.44989088E+00 0.22710756E+04</pdfrwt>
<pdfrwt beam="2">  1       -2 0.67837415E-01 0.22710756E+04</pdfrwt>
<totfact> 0.35133289E+00</totfact>
</mgrwt>
</event>
<event>
12    1  0.4403484E-008  0.2321420E+04  0.7818608E-02  0.8469523E-01
         -2   -1    0    0    0  501 -0.00000000000E+00  0.00000000000E+00  0.12950331703E+04  0.12950331703E+04  0.00000000000E+00 0.  1.
          2   -1    0    0  501    0  0.00000000000E+00 -0.00000000000E+00 -0.10403187599E+04  0.10403187599E+04  0.00000000000E+00 0. -1.
         23    2    1    2    0    0  0.39336305464E+03  0.31580408188E+03 -0.74043137926E+03  0.90009526262E+03  0.86406848677E+02 0.  0.
        254    2    1    2    0    0 -0.39336305464E+03 -0.31580408188E+03  0.99514578969E+03  0.14352566676E+04  0.90287310757E+03 0.  0.
         23    2    4    4    0    0 -0.36255986811E+03 -0.50457612785E+03  0.27661823727E+03  0.68622779886E+03  0.91346680189E+02 0.  0.
         23    2    4    4    0    0 -0.30803186532E+02  0.18877204597E+03  0.71852755242E+03  0.74902886878E+03  0.90436060446E+02 0.  0.
         11    1    3    3    0    0  0.39729893656E+03  0.31223226026E+03 -0.72456882274E+03  0.88336595373E+03  0.00000000000E+00 0. -1.
        -11    1    3    3    0    0 -0.39358819149E+01  0.35718216270E+01 -0.15862556527E+02  0.16729308884E+02  0.00000000000E+00 0.  1.
          2    1    5    5  502    0 -0.21821855069E+03 -0.32673717276E+03  0.12816949811E+03  0.41328432849E+03  0.00000000000E+00 0. -1.
          1    1    6    6  503    0 -0.59194822292E+02  0.82979451168E+02  0.35818282734E+03  0.37240375146E+03  0.00000000000E+00 0. -1.
         -2    1    5    5    0  502 -0.14434131742E+03 -0.17783895509E+03  0.14844873916E+03  0.27294347038E+03  0.00000000000E+00 0.  1.
         -1    1    6    6    0  503  0.28391635761E+02  0.10579259480E+03  0.36034472508E+03  0.37662511731E+03  0.00000000000E+00 0.  1.
<mgrwt>
<rscale>  0 0.23214197E+04</rscale>
<asrwt>0</asrwt>
<pdfrwt beam="1">  1        2 0.16004904E+00 0.23214197E+04</pdfrwt>
<pdfrwt beam="2">  1       -2 0.19923587E+00 0.23214197E+04</pdfrwt>
<totfact> 0.28903045E+00</totfact>
</mgrwt>
</event>
<event>
12    1  0.4403484E-008  0.2059073E+04  0.7818608E-02  0.8579489E-01
         -1   -1    0    0    0  501 -0.00000000000E+00  0.00000000000E+00  0.57273614020E+03  0.57273614020E+03  0.00000000000E+00 0.  1.
          1   -1    0    0  501    0  0.00000000000E+00 -0.00000000000E+00 -0.18506696609E+04  0.18506696609E+04  0.00000000000E+00 0. -1.
         23    2    1    2    0    0  0.95858364944E+02  0.32706773119E+03 -0.14079140585E+04  0.14516522300E+04  0.94393188161E+02 0.  0.
        254    2    1    2    0    0 -0.95858364944E+02 -0.32706773119E+03  0.12998053776E+03  0.97175357108E+03  0.90069303083E+03 0.  0.
         23    2    4    4    0    0 -0.16428474484E+03 -0.60129391818E+03  0.21037122379E+03  0.66408582253E+03  0.90609461206E+02 0.  0.
         23    2    4    4    0    0  0.68426379893E+02  0.27422618700E+03 -0.80390686025E+02  0.30766774854E+03  0.91184483296E+02 0.  0.
         13    1    3    3    0    0  0.15812677975E+02  0.43945007366E+01 -0.29961855132E+02  0.34162335757E+02  0.00000000000E+00 0.  1.
        -13    1    3    3    0    0  0.80045686969E+02  0.32267323045E+03 -0.13779522033E+04  0.14174898943E+04  0.00000000000E+00 0. -1.
          4    1    5    5  502    0 -0.13812422527E+02 -0.47642173522E+01  0.62564689364E+01  0.15894155737E+02  0.00000000000E+00 0. -1.
          3    1    6    6  503    0  0.20431855439E+02  0.35845606897E+02  0.18432096202E+02  0.45189715875E+02  0.00000000000E+00 0. -1.
         -4    1    5    5    0  502 -0.15047232231E+03 -0.59652970083E+03  0.20411475485E+03  0.64819166680E+03  0.00000000000E+00 0.  1.
         -3    1    6    6    0  503  0.47994524454E+02  0.23838058010E+03 -0.98822782226E+02  0.26247803267E+03  0.00000000000E+00 0.  1.
<mgrwt>
<rscale>  0 0.20590730E+04</rscale>
<asrwt>0</asrwt>
<pdfrwt beam="1">  1        1 0.28471841E+00 0.20590730E+04</pdfrwt>
<pdfrwt beam="2">  1       -1 0.88113253E-01 0.20590730E+04</pdfrwt>
<totfact> 0.43956528E+00</totfact>
</mgrwt>
</event>
<event>
12    1  0.5041540E-008  0.3796699E+04  0.7818608E-02  0.8046864E-01
          1   -1    0    0  501    0  0.00000000000E+00  0.00000000000E+00  0.21432528337E+04  0.21432528337E+04  0.00000000000E+00 0. -1.
         -1   -1    0    0    0  501 -0.00000000000E+00 -0.00000000000E+00 -0.16814303467E+04  0.16814303467E+04  0.00000000000E+00 0.  1.
         23    2    1    2    0    0  0.16047611961E+03 -0.17448385689E+04  0.59198748268E+03  0.18520333306E+04  0.96768081339E+02 0.  0.
        254    2    1    2    0    0 -0.16047611961E+03  0.17448385689E+04 -0.13016499572E+03  0.19726498497E+04  0.89676657336E+03 0.  0.
         23    2    4    4    0    0 -0.26230648104E+03  0.12558778015E+04  0.28420999461E+03  0.13173222866E+04  0.92352279009E+02 0.  0.
         23    2    4    4    0    0  0.10183036144E+03  0.48896076740E+03 -0.41437499033E+03  0.65532756314E+03  0.91079788297E+02 0.  0.
         13    1    3    3    0    0  0.57135078798E+02 -0.59334923891E+03  0.15336019825E+03  0.61550555395E+03  0.00000000000E+00 0. -1.
        -13    1    3    3    0    0  0.10334104081E+03 -0.11514893300E+04  0.43862728443E+03  0.12365277767E+04  0.00000000000E+00 0.  1.
          2    1    5    5  502    0 -0.21564416122E+03  0.11545985521E+04  0.26642387380E+03  0.12044010550E+04  0.00000000000E+00 0. -1.
          1    1    6    6  503    0  0.10895683736E+03  0.47300296636E+03 -0.41380981063E+03  0.63784164020E+03  0.00000000000E+00 0. -1.
         -2    1    5    5    0  502 -0.46662319820E+02  0.10127924940E+03  0.17786120809E+02  0.11292123159E+03  0.00000000000E+00 0.  1.
         -1    1    6    6    0  503 -0.71264759280E+01  0.15957801037E+02 -0.56517969855E+00  0.17485922944E+02  0.00000000000E+00 0.  1.
<mgrwt>
<rscale>  0 0.37966988E+04</rscale>
<asrwt>0</asrwt>
<pdfrwt beam="1">  1        1 0.32973120E+00 0.37966988E+04</pdfrwt>
<pdfrwt beam="2">  1       -1 0.25868159E+00 0.37966988E+04</pdfrwt>
<totfact> 0.11600209E-01</totfact>
</mgrwt>
</event>
<event>
12    1  0.4403484E-008  0.1993095E+04  0.7818608E-02  0.8609856E-01
         -2   -1    0    0    0  501 -0.00000000000E+00  0.00000000000E+00  0.20287515252E+04  0.20287515252E+04  0.00000000000E+00 0.  1.
          2   -1    0    0  501    0  0.00000000000E+00 -0.00000000000E+00 -0.48951621128E+03  0.48951621128E+03  0.00000000000E+00 0. -1.
         23    2    1    2    0    0 -0.27654157164E+03  0.85159900546E+02  0.15486599482E+04  0.15781973431E+04  0.92907315403E+02 0.  0.
        254    2    1    2    0    0  0.27654157164E+03 -0.85159900546E+02 -0.94246342581E+01  0.94007039336E+03  0.89438027217E+03 0.  0.
         23    2    4    4    0    0  0.29390057204E+03 -0.40998757114E+03 -0.20203778414E+03  0.55102093076E+03  0.91309611654E+02 0.  0.
         23    2    4    4    0    0 -0.17359000398E+02  0.32482767060E+03  0.19261314988E+03  0.38904946260E+03  0.91898358888E+02 0.  0.
         11    1    3    3    0    0 -0.21904611953E+03  0.27777770676E+02  0.10499939509E+04  0.10729585751E+04  0.00000000000E+00 0.  1.
        -11    1    3    3    0    0 -0.57495452106E+02  0.57382129870E+02  0.49866599735E+03  0.50523876806E+03  0.00000000000E+00 0. -1.
          2    1    5    5  502    0  0.30062109284E+03 -0.40081073733E+03 -0.20000256398E+03  0.53946576742E+03  0.00000000000E+00 0. -1.
          3    1    6    6  503    0 -0.35732971974E+01  0.31311890132E+03  0.15974149185E+03  0.35153031026E+03  0.00000000000E+00 0. -1.
         -2    1    5    5    0  502 -0.67205208040E+01 -0.91768338090E+01 -0.20352201580E+01  0.11555163336E+02  0.00000000000E+00 0.  1.
         -3    1    6    6    0  503 -0.13785703201E+02  0.11708769279E+02  0.32871658031E+02  0.37519152342E+02  0.00000000000E+00 0.  1.
<mgrwt>
<rscale>  0 0.19930948E+04</rscale>
<asrwt>0</asrwt>
<pdfrwt beam="1">  1        2 0.75310187E-01 0.19930948E+04</pdfrwt>
<pdfrwt beam="2">  1       -2 0.31211562E+00 0.19930948E+04</pdfrwt>
<totfact> 0.15734552E+00</totfact>
</mgrwt>
</event>
<event>
12    1  0.4403484E-008  0.1490944E+04  0.7818608E-02  0.8890497E-01
         -1   -1    0    0    0  501 -0.00000000000E+00  0.00000000000E+00  0.10204742030E+04  0.10204742030E+04  0.00000000000E+00 0.  1.
          1   -1    0    0  501    0  0.00000000000E+00 -0.00000000000E+00 -0.54457880926E+03  0.54457880926E+03  0.00000000000E+00 0. -1.
         23    2    1    2    0    0  0.49903967861E+02  0.26476462614E+03 -0.25323992873E+03  0.38133274580E+03  0.93238877387E+02 0.  0.
        254    2    1    2    0    0 -0.49903967861E+02 -0.26476462614E+03  0.72913532244E+03  0.11837202664E+04  0.89272875917E+03 0.  0.
         23    2    4    4    0    0  0.22741392895E+02 -0.34542130122E+03 -0.76172232214E+02  0.36595674566E+03  0.91044409211E+02 0.  0.
         23    2    4    4    0    0 -0.72645360756E+02  0.80656675080E+02  0.80530755465E+03  0.81776352077E+03  0.91837196376E+02 0.  0.
         13    1    3    3    0    0  0.15043979156E+02  0.94290679991E+02 -0.33824044096E+02  0.10129718457E+03  0.00000000000E+00 0.  1.
        -13    1    3    3    0    0  0.34859988705E+02  0.17047394614E+03 -0.21941588463E+03  0.28003556124E+03  0.00000000000E+00 0. -1.
          2    1    5    5  502    0  0.34346227106E+02 -0.54635101666E+02  0.21970926714E+01  0.64571548431E+02  0.00000000000E+00 0. -1.
          1    1    6    6  503    0 -0.17903073044E+02 -0.14825405308E+02  0.59511570161E+02  0.63890059086E+02  0.00000000000E+00 0. -1.
         -2    1    5    5    0  502 -0.11604834212E+02 -0.29078619955E+03 -0.78369324885E+02  0.30138519723E+03  0.00000000000E+00 0.  1.
         -1    1    6    6    0  503 -0.54742287712E+02  0.95482080388E+02  0.74579598449E+03  0.75387346168E+03  0.00000000000E+00 0.  1.
<mgrwt>
<rscale>  0 0.14909442E+04</rscale>
<asrwt>0</asrwt>
<pdfrwt beam="1">  1        1 0.83781356E-01 0.14909442E+04</pdfrwt>
<pdfrwt beam="2">  1       -1 0.15699603E+00 0.14909442E+04</pdfrwt>
<totfact> 0.11731319E+01</totfact>
</mgrwt>
</event>
<event>
12    1  0.4403484E-008  0.2237465E+04  0.7818608E-02  0.8502994E-01
         -1   -1    0    0    0  501 -0.00000000000E+00  0.00000000000E+00  0.38081844124E+03  0.38081844124E+03  0.00000000000E+00 0.  1.
          1   -1    0    0  501    0  0.00000000000E+00 -0.00000000000E+00 -0.32865081539E+04  0.32865081539E+04  0.00000000000E+00 0. -1.
         23    2    1    2    0    0  0.24059164426E+03 -0.52838120690E+01 -0.27043084449E+04  0.27171479243E+04  0.10814998541E+03 0.  0.
        254    2    1    2    0    0 -0.24059164426E+03  0.52838120690E+01 -0.20138126772E+03  0.95017867081E+03  0.89686834793E+03 0.  0.
         23    2    4    4    0    0 -0.31199626401E+03 -0.29978074072E+03  0.15286432607E+03  0.46790187350E+03  0.91402952773E+02 0.  0.
         23    2    4    4    0    0  0.71404619746E+02  0.30506455279E+03 -0.35424559379E+03  0.48227679731E+03  0.94540824066E+02 0.  0.
         13    1    3    3    0    0 -0.28801957104E+01  0.16784382446E+02 -0.28823888754E+03  0.28874152336E+03  0.00000000000E+00 0.  1.
        -13    1    3    3    0    0  0.24347183997E+03 -0.22068194515E+02 -0.24160695574E+04  0.24284064009E+04  0.00000000000E+00 0. -1.
          2    1    5    5  502    0 -0.28213483001E+03 -0.24786230883E+03  0.10155645364E+03  0.38903663031E+03  0.00000000000E+00 0. -1.
          4    1    6    6  503    0  0.79801390010E+02  0.25901170774E+03 -0.33682874914E+03  0.43232965760E+03  0.00000000000E+00 0. -1.
         -2    1    5    5    0  502 -0.29861433992E+02 -0.51918431891E+02  0.51307872426E+02  0.78865243188E+02  0.00000000000E+00 0.  1.
         -4    1    6    6    0  503 -0.83967702642E+01  0.46052845044E+02 -0.17416844655E+02  0.49947139711E+02  0.00000000000E+00 0.  1.
<mgrwt>
<rscale>  0 0.22374655E+04</rscale>
<asrwt>0</asrwt>
<pdfrwt beam="1">  1        1 0.50561666E+00 0.22374655E+04</pdfrwt>
<pdfrwt beam="2">  1       -1 0.58587450E-01 0.22374655E+04</pdfrwt>
<totfact> 0.98269546E-01</totfact>
</mgrwt>
</event>
<event>
12    1  0.4403484E-008  0.1651805E+04  0.7818608E-02  0.8789339E-01
         -2   -1    0    0    0  501 -0.00000000000E+00  0.00000000000E+00  0.50908585219E+03  0.50908585219E+03  0.00000000000E+00 0.  1.
          2   -1    0    0  501    0  0.00000000000E+00 -0.00000000000E+00 -0.13398825291E+04  0.13398825291E+04  0.00000000000E+00 0. -1.
         23    2    1    2    0    0  0.39890395796E+03  0.39520302926E+03 -0.43912303680E+03  0.71868147455E+03  0.91456101006E+02 0.  0.
        254    2    1    2    0    0 -0.39890395796E+03 -0.39520302926E+03 -0.39167364014E+03  0.11302869068E+04  0.89935001484E+03 0.  0.
         23    2    4    4    0    0 -0.60732427764E+03 -0.29704465198E+03 -0.51468394385E+03  0.85450760558E+03  0.90583566157E+02 0.  0.
         23    2    4    4    0    0  0.20842031968E+03 -0.98158377274E+02  0.12301030371E+03  0.27577930117E+03  0.88592276478E+02 0.  0.
         11    1    3    3    0    0  0.93689425664E+02  0.51362079093E+02 -0.58513528789E+02  0.12181791618E+03  0.00000000000E+00 0.  1.
        -11    1    3    3    0    0  0.30521453230E+03  0.34384095016E+03 -0.38060950801E+03  0.59686355838E+03  0.00000000000E+00 0. -1.
          2    1    5    5  502    0 -0.12263883392E+03 -0.95912269247E+02 -0.93347402180E+02  0.18153012001E+03  0.00000000000E+00 0. -1.
          1    1    6    6  503    0  0.14114972682E+02 -0.13234926959E+02  0.46466427467E+02  0.50334129842E+02  0.00000000000E+00 0. -1.
         -2    1    5    5    0  502 -0.48468544372E+03 -0.20113238273E+03 -0.42133654167E+03  0.67297748557E+03  0.00000000000E+00 0.  1.
         -1    1    6    6    0  503  0.19430534700E+03 -0.84923450315E+02  0.76543876242E+02  0.22544517133E+03  0.00000000000E+00 0.  1.
<mgrwt>
<rscale>  0 0.16518054E+04</rscale>
<asrwt>0</asrwt>
<pdfrwt beam="1">  1        2 0.20613577E+00 0.16518054E+04</pdfrwt>
<pdfrwt beam="2">  1       -2 0.78320902E-01 0.16518054E+04</pdfrwt>
<totfact> 0.21701493E+01</totfact>
</mgrwt>
</event>
<event>
12    1  0.4403484E-008  0.2197924E+04  0.7818608E-02  0.8519293E-01
         -2   -1    0    0    0  501 -0.00000000000E+00  0.00000000000E+00  0.35087216156E+03  0.35087216156E+03  0.00000000000E+00 0.  1.
          2   -1    0    0  501    0  0.00000000000E+00 -0.00000000000E+00 -0.34420454240E+04  0.34420454240E+04  0.00000000000E+00 0. -1.
         23    2    1    2    0    0  0.21594136744E+03  0.79432250537E+03 -0.59989325537E+03  0.10227119753E+04  0.92135497569E+02 0.  0.
        254    2    1    2    0    0 -0.21594136744E+03 -0.79432250537E+03 -0.24912800071E+04  0.27702056102E+04  0.88881051560E+03 0.  0.
         23    2    4    4    0    0  0.30328942127E+03 -0.47259563927E+03 -0.14730283323E+04  0.15792286701E+04  0.93912795458E+02 0.  0.
         23    2    4    4    0    0 -0.51923078871E+03 -0.32172686610E+03 -0.10182516747E+04  0.11909769402E+04  0.92091316777E+02 0.  0.
         11    1    3    3    0    0 -0.67543926467E+01  0.23807783562E+02 -0.29574322546E+02  0.38562584615E+02  0.00000000000E+00 0. -1.
        -11    1    3    3    0    0  0.22269576009E+03  0.77051472181E+03 -0.57031893283E+03  0.98414939071E+03  0.00000000000E+00 0.  1.
          3    1    5    5  502    0  0.24405180460E+03 -0.30763891142E+03 -0.10679524518E+04  0.11378600188E+04  0.00000000000E+00 0. -1.
          3    1    6    6  503    0 -0.44195876077E+03 -0.25555486883E+03 -0.90234884481E+03  0.10367590245E+04  0.00000000000E+00 0. -1.
         -3    1    5    5    0  502  0.59237616667E+02 -0.16495672786E+03 -0.40507588055E+03  0.44136865124E+03  0.00000000000E+00 0.  1.
         -3    1    6    6    0  503 -0.77272027938E+02 -0.66171997269E+02 -0.11590282993E+03  0.15421791566E+03  0.00000000000E+00 0.  1.
<mgrwt>
<rscale>  0 0.21979244E+04</rscale>
<asrwt>0</asrwt>
<pdfrwt beam="1">  1        2 0.52954544E+00 0.21979244E+04</pdfrwt>
<pdfrwt beam="2">  1       -2 0.53980334E-01 0.21979244E+04</pdfrwt>
<totfact> 0.26443978E+00</totfact>
</mgrwt>
</event>
<event>
12    1  0.4403484E-008  0.1194464E+04  0.7818608E-02  0.9117716E-01
         -1   -1    0    0    0  501 -0.00000000000E+00  0.00000000000E+00  0.74419667600E+03  0.74419667600E+03  0.00000000000E+00 0.  1.
          1   -1    0    0  501    0  0.00000000000E+00 -0.00000000000E+00 -0.47928983628E+03  0.47928983628E+03  0.00000000000E+00 0. -1.
         23    2    1    2    0    0  0.24691418218E+03  0.27527205689E+02  0.57235219033E+02  0.27044736429E+03  0.90230516647E+02 0.  0.
        254    2    1    2    0    0 -0.24691418218E+03 -0.27527205689E+02  0.20767162068E+03  0.95303914799E+03  0.89634354750E+03 0.  0.
         23    2    4    4    0    0  0.27767015100E+03 -0.21495101026E+03  0.43718404455E+02  0.36519339037E+03  0.90278812094E+02 0.  0.
         23    2    4    4    0    0 -0.52458433319E+03  0.18742380457E+03  0.16395321623E+03  0.58784575762E+03  0.91463503623E+02 0.  0.
         11    1    3    3    0    0  0.22711535910E+03 -0.14607011450E+00  0.63551991980E+02  0.23583948643E+03  0.00000000000E+00 0.  1.
        -11    1    3    3    0    0  0.19798823090E+02  0.27673275804E+02 -0.63167729470E+01  0.34607877859E+02  0.00000000000E+00 0. -1.
          2    1    5    5  502    0 -0.43320218858E+01  0.35482127137E+01  0.22934627482E+01  0.60511319981E+01  0.00000000000E+00 0. -1.
          3    1    6    6  503    0 -0.21026856461E+02  0.23786548828E+02 -0.48371696375E+01  0.32114277322E+02  0.00000000000E+00 0. -1.
         -2    1    5    5    0  502  0.28200217289E+03 -0.21849922297E+03  0.41424941707E+02  0.35914225837E+03  0.00000000000E+00 0.  1.
         -3    1    6    6    0  503 -0.50355747673E+03  0.16363725574E+03  0.16879038587E+03  0.55573148030E+03  0.00000000000E+00 0.  1.
<mgrwt>
<rscale>  0 0.11944637E+04</rscale>
<asrwt>0</asrwt>
<pdfrwt beam="1">  1        1 0.73736898E-01 0.11944637E+04</pdfrwt>
<pdfrwt beam="2">  1       -1 0.11449180E+00 0.11944637E+04</pdfrwt>
<totfact> 0.32285993E+01</totfact>
</mgrwt>
</event>
<event>
12    1  0.4403484E-008  0.1228142E+04  0.7818608E-02  0.9088574E-01
          2   -1    0    0  501    0  0.00000000000E+00  0.00000000000E+00  0.11084603435E+04  0.11084603435E+04  0.00000000000E+00 0. -1.
         -2   -1    0    0    0  501 -0.00000000000E+00 -0.00000000000E+00 -0.34018669702E+03  0.34018669702E+03  0.00000000000E+00 0.  1.
         23    2    1    2    0    0  0.21055330952E+03  0.10920210564E+03  0.21895343212E+02  0.25700206254E+03  0.96503150574E+02 0.  0.
        254    2    1    2    0    0 -0.21055330952E+03 -0.10920210564E+03  0.74637830332E+03  0.11916449780E+04  0.89815331985E+03 0.  0.
         23    2    4    4    0    0 -0.16785055799E+03 -0.48228371106E+03  0.56467424485E+03  0.76666045415E+03  0.90221180368E+02 0.  0.
         23    2    4    4    0    0 -0.42702751526E+02  0.37308160542E+03  0.18170405847E+03  0.42498452388E+03  0.81129965961E+02 0.  0.
         11    1    3    3    0    0  0.24736063295E+02  0.21342078425E+02  0.38851373006E+02  0.50762055941E+02  0.00000000000E+00 0. -1.
        -11    1    3    3    0    0  0.18581724623E+03  0.87860027215E+02 -0.16956029794E+02  0.20624000660E+03  0.00000000000E+00 0.  1.
          2    1    5    5  502    0 -0.89948373841E+02 -0.34852621193E+03  0.35049743854E+03  0.50240390602E+03  0.00000000000E+00 0.  1.
          4    1    6    6  503    0  0.19030216121E+02  0.55751103963E+02  0.12974959131E+02  0.60321507633E+02  0.00000000000E+00 0. -1.
         -2    1    5    5    0  502 -0.77902184154E+02 -0.13375749913E+03  0.21417680631E+03  0.26425654813E+03  0.00000000000E+00 0. -1.
         -4    1    6    6    0  503 -0.61732967647E+02  0.31733050146E+03  0.16872909934E+03  0.36466301624E+03  0.00000000000E+00 0.  1.
<mgrwt>
<rscale>  0 0.12281424E+04</rscale>
<asrwt>0</asrwt>
<pdfrwt beam="1">  1        2 0.17053236E+00 0.12281424E+04</pdfrwt>
<pdfrwt beam="2">  1       -2 0.52336415E-01 0.12281424E+04</pdfrwt>
<totfact> 0.73042364E+01</totfact>
</mgrwt>
</event>
<event>
12    1  0.4403484E-008  0.3415374E+04  0.7818608E-02  0.8134143E-01
          1   -1    0    0  501    0  0.00000000000E+00  0.00000000000E+00  0.27354299356E+04  0.27354299356E+04  0.00000000000E+00 0. -1.
         -1   -1    0    0    0  501 -0.00000000000E+00 -0.00000000000E+00 -0.10660830524E+04  0.10660830524E+04  0.00000000000E+00 0.  1.
         23    2    1    2    0    0  0.14407362379E+04  0.21379364567E+03  0.76696105316E+02  0.14613871168E+04  0.91331169987E+02 0.  0.
        254    2    1    2    0    0 -0.14407362379E+04 -0.21379364567E+03  0.15926507779E+04  0.23401258712E+04  0.90455732972E+03 0.  0.
         23    2    4    4    0    0 -0.14600872256E+02 -0.28258287984E+02 -0.83580799687E+02  0.12952812349E+03  0.93702019126E+02 0.  0.
         23    2    4    4    0    0 -0.14261353656E+04 -0.18553535769E+03  0.16762315776E+04  0.22105977477E+04  0.93298716733E+02 0.  0.
         11    1    3    3    0    0  0.11405804119E+04  0.13868479123E+03  0.82313430359E+02  0.11519256262E+04  0.00000000000E+00 0.  1.
        -11    1    3    3    0    0  0.30015582594E+03  0.75108854444E+02 -0.56173250426E+01  0.30946149067E+03  0.00000000000E+00 0. -1.
          4    1    5    5  502    0 -0.46233018250E+02 -0.71594799845E+01 -0.11722887918E+02  0.48230449213E+02  0.00000000000E+00 0.  1.
          3    1    6    6  503    0 -0.10505815425E+04 -0.99225532892E+02  0.11998921503E+04  0.15979075243E+04  0.00000000000E+00 0. -1.
         -4    1    5    5    0  502  0.31632145994E+02 -0.21098808000E+02 -0.71857911769E+02  0.81297674278E+02  0.00000000000E+00 0. -1.
         -3    1    6    6    0  503 -0.37555382315E+03 -0.86309824793E+02  0.47633942730E+03  0.61269022347E+03  0.00000000000E+00 0.  1.
<mgrwt>
<rscale>  0 0.34153744E+04</rscale>
<asrwt>0</asrwt>
<pdfrwt beam="1">  1        1 0.42083537E+00 0.34153744E+04</pdfrwt>
<pdfrwt beam="2">  1       -1 0.16401278E+00 0.34153744E+04</pdfrwt>
<totfact> 0.20736934E-01</totfact>
</mgrwt>
</event>
<event>
12    1  0.4403484E-008  0.1342435E+04  0.7818608E-02  0.8996575E-01
          2   -1    0    0  501    0  0.00000000000E+00  0.00000000000E+00  0.22879314613E+04  0.22879314613E+04  0.00000000000E+00 0. -1.
         -2   -1    0    0    0  501 -0.00000000000E+00 -0.00000000000E+00 -0.19691708442E+03  0.19691708442E+03  0.00000000000E+00 0.  1.
         23    2    1    2    0    0  0.85112003238E+02  0.12309684998E+03  0.11533738334E+04  0.11681531938E+04  0.10915034094E+03 0.  0.
        254    2    1    2    0    0 -0.85112003238E+02 -0.12309684998E+03  0.93764054350E+03  0.13166953520E+04  0.91220610257E+03 0.  0.
         23    2    4    4    0    0 -0.22422795989E+03  0.33643079788E+03  0.29208416376E+03  0.50710563090E+03  0.91537437205E+02 0.  0.
         23    2    4    4    0    0  0.13911595665E+03 -0.45952764786E+03  0.64555637973E+03  0.80958972109E+03  0.90407790243E+02 0.  0.
         13    1    3    3    0    0  0.10810583947E+03  0.11722207449E+03  0.10534004236E+04  0.10654014922E+04  0.00000000000E+00 0. -1.
        -13    1    3    3    0    0 -0.22993836234E+02  0.58747754927E+01  0.99973409855E+02  0.10275170154E+03  0.00000000000E+00 0.  1.
          1    1    5    5  502    0 -0.83555885540E+02  0.61930905094E+02  0.96495033292E+02  0.14187429106E+03  0.00000000000E+00 0. -1.
          3    1    6    6  503    0  0.64680806164E+01 -0.16958202600E+03  0.22197147535E+03  0.27941230373E+03  0.00000000000E+00 0. -1.
         -1    1    5    5    0  502 -0.14067207435E+03  0.27449989278E+03  0.19558913047E+03  0.36523133984E+03  0.00000000000E+00 0.  1.
         -3    1    6    6    0  503  0.13264787603E+03 -0.28994562186E+03  0.42358490439E+03  0.53017741736E+03  0.00000000000E+00 0.  1.
<mgrwt>
<rscale>  0 0.13424348E+04</rscale>
<asrwt>0</asrwt>
<pdfrwt beam="1">  1        2 0.35198944E+00 0.13424348E+04</pdfrwt>
<pdfrwt beam="2">  1       -2 0.30294938E-01 0.13424348E+04</pdfrwt>
<totfact> 0.45431562E+01</totfact>
</mgrwt>
</event>
<event>
12    1  0.4403484E-008  0.1659991E+04  0.7818608E-02  0.8784518E-01
         -2   -1    0    0    0  501 -0.00000000000E+00  0.00000000000E+00  0.42072020569E+03  0.42072020569E+03  0.00000000000E+00 0.  1.
          2   -1    0    0  501    0  0.00000000000E+00 -0.00000000000E+00 -0.16374121476E+04  0.16374121476E+04  0.00000000000E+00 0. -1.
         23    2    1    2    0    0  0.10754925566E+03 -0.57609208567E+03 -0.49486836728E+03  0.77246002369E+03  0.91383005579E+02 0.  0.
        254    2    1    2    0    0 -0.10754925566E+03  0.57609208567E+03 -0.72182357464E+03  0.12856723296E+04  0.88796122250E+03 0.  0.
         23    2    4    4    0    0 -0.12033781825E+02 -0.88899023152E+02  0.13917112575E+03  0.18901237635E+03  0.91154966681E+02 0.  0.
         23    2    4    4    0    0 -0.95515473836E+02  0.66499110882E+03 -0.86099470039E+03  0.10966599533E+04  0.10007396486E+03 0.  0.
         11    1    3    3    0    0  0.38578159595E+02 -0.41726158675E+03 -0.36948775845E+03  0.55867406403E+03  0.00000000000E+00 0. -1.
        -11    1    3    3    0    0  0.68971096066E+02 -0.15883049892E+03 -0.12538060883E+03  0.21378595966E+03  0.00000000000E+00 0.  1.
          4    1    5    5  502    0  0.12157464750E+02  0.40894318042E+01 -0.65986254774E+01  0.14424606054E+02  0.00000000000E+00 0. -1.
          1    1    6    6  503    0  0.12337766920E+01  0.40637198997E+02 -0.97580384454E+02  0.10571109486E+03  0.00000000000E+00 0. -1.
         -4    1    5    5    0  502 -0.24191246575E+02 -0.92988454957E+02  0.14576975122E+03  0.17458777030E+03  0.00000000000E+00 0.  1.
         -1    1    6    6    0  503 -0.96749250528E+02  0.62435390982E+03 -0.76341431593E+03  0.99094885840E+03  0.00000000000E+00 0.  1.
<mgrwt>
<rscale>  0 0.16599908E+04</rscale>
<asrwt>0</asrwt>
<pdfrwt beam="1">  1        2 0.25190957E+00 0.16599908E+04</pdfrwt>
<pdfrwt beam="2">  1       -2 0.64726183E-01 0.16599908E+04</pdfrwt>
<totfact> 0.22345545E+01</totfact>
</mgrwt>
</event>
<event>
12    1  0.4403484E-008  0.1670287E+04  0.7818608E-02  0.8778495E-01
          3   -1    0    0  501    0  0.00000000000E+00  0.00000000000E+00  0.50227427560E+03  0.50227427560E+03  0.00000000000E+00 0. -1.
         -3   -1    0    0    0  501 -0.00000000000E+00 -0.00000000000E+00 -0.13886128703E+04  0.13886128703E+04  0.00000000000E+00 0.  1.
         23    2    1    2    0    0 -0.16065744462E+03 -0.40562776054E+03 -0.76186700717E+03  0.88284565446E+03  0.92900044857E+02 0.  0.
        254    2    1    2    0    0  0.16065744462E+03  0.40562776054E+03 -0.12447158751E+03  0.10080414914E+04  0.90017208228E+03 0.  0.
         23    2    4    4    0    0  0.22372426177E+03  0.44257562627E+03  0.28807591802E+03  0.58047196183E+03  0.89633886757E+02 0.  0.
         23    2    4    4    0    0 -0.63066817146E+02 -0.36947865727E+02 -0.41254750553E+03  0.42756952960E+03  0.85309378841E+02 0.  0.
         13    1    3    3    0    0 -0.12142374804E+03 -0.37270701496E+03 -0.70229912719E+03  0.80428745461E+03  0.00000000000E+00 0.  1.
        -13    1    3    3    0    0 -0.39233696585E+02 -0.32920745578E+02 -0.59567879984E+02  0.78558199845E+02  0.00000000000E+00 0. -1.
          1    1    5    5  502    0  0.54758427218E+02  0.20464572148E+03  0.11168718011E+03  0.23948357537E+03  0.00000000000E+00 0. -1.
          3    1    6    6  503    0  0.58223100288E+01 -0.34848203978E+02 -0.22504162456E+03  0.22779822080E+03  0.00000000000E+00 0. -1.
         -1    1    5    5    0  502  0.16896583455E+03  0.23792990479E+03  0.17638873791E+03  0.34098838646E+03  0.00000000000E+00 0.  1.
         -3    1    6    6    0  503 -0.68889127175E+02 -0.20996617492E+01 -0.18750588096E+03  0.19977130880E+03  0.00000000000E+00 0.  1.
<mgrwt>
<rscale>  0 0.16702868E+04</rscale>
<asrwt>0</asrwt>
<pdfrwt beam="1">  1        3 0.77272965E-01 0.16702868E+04</pdfrwt>
<pdfrwt beam="2">  1       -3 0.21363275E+00 0.16702868E+04</pdfrwt>
<totfact> 0.47242970E-01</totfact>
</mgrwt>
</event>
<event>
12    1  0.4403484E-008  0.1374285E+04  0.7818608E-02  0.8972645E-01
         -2   -1    0    0    0  501 -0.00000000000E+00  0.00000000000E+00  0.88123831194E+03  0.88123831194E+03  0.00000000000E+00 0.  1.
          2   -1    0    0  501    0  0.00000000000E+00 -0.00000000000E+00 -0.53579712005E+03  0.53579712005E+03  0.00000000000E+00 0. -1.
         23    2    1    2    0    0 -0.21093577861E+03  0.26316982040E+03  0.31961535721E+03  0.47349566559E+03  0.91059934667E+02 0.  0.
        254    2    1    2    0    0  0.21093577861E+03 -0.26316982040E+03  0.25825834690E+02  0.94353976640E+03  0.88082237708E+03 0.  0.
         23    2    4    4    0    0  0.43909271116E+02 -0.29447671785E+03 -0.38176238690E+03  0.49273252173E+03  0.91642001705E+02 0.  0.
         23    2    4    4    0    0  0.16702650750E+03  0.31306897450E+02  0.40758822159E+03  0.45080724467E+03  0.90669936736E+02 0.  0.
         13    1    3    3    0    0 -0.90766488154E+02  0.75046216709E+02  0.16176103220E+03  0.20009278236E+03  0.00000000000E+00 0. -1.
        -13    1    3    3    0    0 -0.12016929046E+03  0.18812360369E+03  0.15785432501E+03  0.27340288323E+03  0.00000000000E+00 0.  1.
          4    1    5    5  502    0  0.33679840999E+02 -0.22739793766E+03 -0.22386771039E+03  0.32087521796E+03  0.00000000000E+00 0. -1.
          1    1    6    6  503    0  0.63394671217E+02  0.39936955016E+02  0.92709433696E+02  0.11920102269E+03  0.00000000000E+00 0. -1.
         -4    1    5    5    0  502  0.10229430118E+02 -0.67078780189E+02 -0.15789467651E+03  0.17185730378E+03  0.00000000000E+00 0.  1.
         -1    1    6    6    0  503  0.10363183628E+03 -0.86300575659E+01  0.31487878790E+03  0.33160622197E+03  0.00000000000E+00 0.  1.
<mgrwt>
<rscale>  0 0.13742852E+04</rscale>
<asrwt>0</asrwt>
<pdfrwt beam="1">  1        2 0.82430326E-01 0.13742852E+04</pdfrwt>
<pdfrwt beam="2">  1       -2 0.13557512E+00 0.13742852E+04</pdfrwt>
<totfact> 0.21594636E+01</totfact>
</mgrwt>
</event>
<event>
12    1  0.4403484E-008  0.3713172E+04  0.7818608E-02  0.8065049E-01
         -2   -1    0    0    0  501 -0.00000000000E+00  0.00000000000E+00  0.13366845229E+04  0.13366845229E+04  0.00000000000E+00 0.  1.
          2   -1    0    0  501    0  0.00000000000E+00 -0.00000000000E+00 -0.25787019201E+04  0.25787019201E+04  0.00000000000E+00 0. -1.
         23    2    1    2    0    0 -0.83519156773E+03  0.11026412680E+04 -0.16957239618E+04  0.21901943002E+04  0.90047750810E+02 0.  0.
        254    2    1    2    0    0  0.83519156773E+03 -0.11026412680E+04  0.45370656460E+03  0.17251921429E+04  0.92578375572E+03 0.  0.
         23    2    4    4    0    0  0.33562534141E+03 -0.78262014626E+03  0.67011366897E+03  0.10874545442E+04  0.91467989682E+02 0.  0.
         23    2    4    4    0    0  0.49956622632E+03 -0.32002112172E+03 -0.21640710438E+03  0.63773759870E+03  0.88866625543E+02 0.  0.
         13    1    3    3    0    0 -0.17532030491E+03  0.17927801612E+03 -0.32997382893E+03  0.41444003687E+03  0.00000000000E+00 0.  1.
        -13    1    3    3    0    0 -0.65987126281E+03  0.92336325187E+03 -0.13657501328E+04  0.17757542633E+04  0.00000000000E+00 0. -1.
          2    1    5    5  502    0  0.33632855492E+03 -0.77522202748E+03  0.65029321417E+03  0.10662867124E+04  0.00000000000E+00 0. -1.
          4    1    6    6  503    0  0.65694981473E+02 -0.81047282660E+02 -0.30895895209E+02  0.10880739386E+03  0.00000000000E+00 0.  1.
         -2    1    5    5    0  502 -0.70321351061E+00 -0.73981187833E+01  0.19820454809E+02  0.21167831717E+02  0.00000000000E+00 0.  1.
         -4    1    6    6    0  503  0.43387124485E+03 -0.23897383906E+03 -0.18551120917E+03  0.52893020484E+03  0.00000000000E+00 0. -1.
<mgrwt>
<rscale>  0 0.37131717E+04</rscale>
<asrwt>0</asrwt>
<pdfrwt beam="1">  1        2 0.39672336E+00 0.37131717E+04</pdfrwt>
<pdfrwt beam="2">  1       -2 0.20564378E+00 0.37131717E+04</pdfrwt>
<totfact> 0.30898188E-01</totfact>
</mgrwt>
</event>
<event>
12    1  0.4403484E-008  0.1631954E+04  0.7818608E-02  0.8801155E-01
         -2   -1    0    0    0  501 -0.00000000000E+00  0.00000000000E+00  0.27922123074E+03  0.27922123074E+03  0.00000000000E+00 0.  1.
          2   -1    0    0  501    0  0.00000000000E+00 -0.00000000000E+00 -0.23845544583E+04  0.23845544583E+04  0.00000000000E+00 0. -1.
         23    2    1    2    0    0 -0.48463550201E+03 -0.18413315200E+03 -0.39870482402E+03  0.66046404678E+03  0.92036041395E+02 0.  0.
        254    2    1    2    0    0  0.48463550201E+03  0.18413315200E+03 -0.17066284035E+04  0.20033116422E+04  0.91208576394E+03 0.  0.
         23    2    4    4    0    0 -0.20597287552E+03  0.20211297889E+03 -0.82855664565E+03  0.88290494950E+03  0.98694240552E+02 0.  0.
         23    2    4    4    0    0  0.69060837752E+03 -0.17979826892E+02 -0.87807175787E+03  0.11204066927E+04  0.83892430524E+02 0.  0.
         11    1    3    3    0    0 -0.35054131099E+03 -0.13930437881E+03 -0.23618249414E+03  0.44504729098E+03  0.00000000000E+00 0.  1.
        -11    1    3    3    0    0 -0.13409419102E+03 -0.44828773184E+02 -0.16252232988E+03  0.21541675580E+03  0.00000000000E+00 0. -1.
          4    1    5    5  502    0 -0.11353481419E+03  0.12013381800E+03 -0.32762261281E+03  0.36695894142E+03  0.00000000000E+00 0. -1.
          1    1    6    6  503    0  0.15514615352E+03 -0.38783005662E+02 -0.19275376340E+03  0.25045651077E+03  0.00000000000E+00 0. -1.
         -4    1    5    5    0  502 -0.92438061326E+02  0.81979160888E+02 -0.50093403283E+03  0.51594600808E+03  0.00000000000E+00 0.  1.
         -1    1    6    6    0  503  0.53546222400E+03  0.20803178770E+02 -0.68531799447E+03  0.86995018198E+03  0.00000000000E+00 0.  1.
<mgrwt>
<rscale>  0 0.16319537E+04</rscale>
<asrwt>0</asrwt>
<pdfrwt beam="1">  1        2 0.36685453E+00 0.16319537E+04</pdfrwt>
<pdfrwt beam="2">  1       -2 0.42957112E-01 0.16319537E+04</pdfrwt>
<totfact> 0.19969041E+01</totfact>
</mgrwt>
</event>
<event>
12    1  0.4403484E-008  0.1430850E+04  0.7818608E-02  0.8931786E-01
          1   -1    0    0  501    0  0.00000000000E+00  0.00000000000E+00  0.35184296634E+03  0.35184296634E+03  0.00000000000E+00 0. -1.
         -1   -1    0    0    0  501 -0.00000000000E+00 -0.00000000000E+00 -0.14547193261E+04  0.14547193261E+04  0.00000000000E+00 0.  1.
         23    2    1    2    0    0  0.37502361377E+03  0.53616142941E+02 -0.56228919746E+03  0.68881403147E+03  0.12156572996E+03 0.  0.
        254    2    1    2    0    0 -0.37502361377E+03 -0.53616142941E+02 -0.54058716231E+03  0.11177482610E+04  0.90200293415E+03 0.  0.
         23    2    4    4    0    0  0.20386592389E+03  0.23445024027E+03 -0.18816164661E+03  0.37460126806E+03  0.91613725441E+02 0.  0.
         23    2    4    4    0    0 -0.57888953766E+03 -0.28806638321E+03 -0.35242551570E+03  0.74314699293E+03  0.99841729948E+02 0.  0.
         11    1    3    3    0    0  0.38165133865E+03  0.58632200301E+02 -0.55995576403E+03  0.68018081191E+03  0.00000000000E+00 0.  1.
        -11    1    3    3    0    0 -0.66277248820E+01 -0.50160573601E+01 -0.23334334277E+01  0.86332195682E+01  0.00000000000E+00 0. -1.
          2    1    5    5  502    0  0.19136219094E+03  0.21794867613E+03 -0.19850090460E+03  0.35145941825E+03  0.00000000000E+00 0. -1.
          4    1    6    6  503    0  0.30709489005E+01 -0.13888415072E+01  0.19851914946E+01  0.39115972635E+01  0.00000000000E+00 0.  1.
         -2    1    5    5    0  502  0.12503732943E+02  0.16501564145E+02  0.10339257991E+02  0.23141849808E+02  0.00000000000E+00 0.  1.
         -4    1    6    6    0  503 -0.58196048656E+03 -0.28667754170E+03 -0.35441070720E+03  0.73923539567E+03  0.00000000000E+00 0. -1.
<mgrwt>
<rscale>  0 0.14308498E+04</rscale>
<asrwt>0</asrwt>
<pdfrwt beam="1">  1        1 0.54129688E-01 0.14308498E+04</pdfrwt>
<pdfrwt beam="2">  1       -1 0.22380297E+00 0.14308498E+04</pdfrwt>
<totfact> 0.71819508E+00</totfact>
</mgrwt>
</event>
<event>
12    1  0.4403484E-008  0.1551503E+04  0.7818608E-02  0.8850908E-01
          2   -1    0    0  501    0  0.00000000000E+00  0.00000000000E+00  0.15742782722E+04  0.15742782722E+04  0.00000000000E+00 0. -1.
         -2   -1    0    0    0  501 -0.00000000000E+00 -0.00000000000E+00 -0.38226445533E+03  0.38226445533E+03  0.00000000000E+00 0.  1.
         23    2    1    2    0    0 -0.16196649962E+03  0.42041428378E+03  0.10223579023E+03  0.47106174894E+03  0.92009225090E+02 0.  0.
        254    2    1    2    0    0  0.16196649962E+03 -0.42041428378E+03  0.10897780266E+04  0.14854809786E+04  0.90335833056E+03 0.  0.
         23    2    4    4    0    0  0.37795014636E+01  0.27096659534E+03  0.22390729752E+03  0.36322095305E+03  0.91421017425E+02 0.  0.
         23    2    4    4    0    0  0.15818699816E+03 -0.69138087913E+03  0.86587072912E+03  0.11222600255E+04  0.81882836816E+02 0.  0.
         11    1    3    3    0    0 -0.12165941997E+03  0.25698365258E+03  0.23695012788E+02  0.28531222510E+03  0.00000000000E+00 0. -1.
        -11    1    3    3    0    0 -0.40307079651E+02  0.16343063120E+03  0.78540777438E+02  0.18574952384E+03  0.00000000000E+00 0.  1.
          2    1    5    5  502    0 -0.18289015753E+01  0.21898764431E+03  0.22058906212E+03  0.31083511315E+03  0.00000000000E+00 0. -1.
          3    1    6    6  503    0  0.85485353009E+02 -0.44063678039E+03  0.48869171460E+03  0.66354209341E+03  0.00000000000E+00 0. -1.
         -2    1    5    5    0  502  0.56084030389E+01  0.51978951035E+02  0.33182353973E+01  0.52385839895E+02  0.00000000000E+00 0.  1.
         -3    1    6    6    0  503  0.72701645151E+02 -0.25074409873E+03  0.37717901452E+03  0.45871793212E+03  0.00000000000E+00 0.  1.
<mgrwt>
<rscale>  0 0.15515033E+04</rscale>
<asrwt>0</asrwt>
<pdfrwt beam="1">  1        2 0.24219665E+00 0.15515033E+04</pdfrwt>
<pdfrwt beam="2">  1       -2 0.58809917E-01 0.15515033E+04</pdfrwt>
<totfact> 0.29975334E+01</totfact>
</mgrwt>
</event>
<event>
12    1  0.4403484E-008  0.2189847E+04  0.7818608E-02  0.8522666E-01
         -3   -1    0    0    0  501 -0.00000000000E+00  0.00000000000E+00  0.10556623740E+04  0.10556623740E+04  0.00000000000E+00 0.  1.
          3   -1    0    0  501    0  0.00000000000E+00 -0.00000000000E+00 -0.11356448995E+04  0.11356448995E+04  0.00000000000E+00 0. -1.
         23    2    1    2    0    0 -0.80100616455E+03 -0.29744072456E+02  0.38207234349E+03  0.89260404017E+03  0.90923656873E+02 0.  0.
        254    2    1    2    0    0  0.80100616455E+03  0.29744072456E+02 -0.46205486897E+03  0.12987032333E+04  0.91139442652E+03 0.  0.
         23    2    4    4    0    0  0.65987562743E+03  0.38088220895E+03 -0.48740105315E+03  0.90917533536E+03  0.92373714000E+02 0.  0.
         23    2    4    4    0    0  0.14113053712E+03 -0.35113813650E+03  0.25346184176E+02  0.38952789792E+03  0.88734067838E+02 0.  0.
         13    1    3    3    0    0 -0.50422492622E+03 -0.14745871444E+02  0.19139795535E+03  0.53953071669E+03  0.00000000000E+00 0. -1.
        -13    1    3    3    0    0 -0.29678123834E+03 -0.14998201012E+02  0.19067438814E+03  0.35307332348E+03  0.00000000000E+00 0.  1.
          4    1    5    5  502    0  0.38868982138E+03  0.25567317671E+03 -0.25368555183E+03  0.52991028462E+03  0.00000000000E+00 0. -1.
          3    1    6    6  503    0  0.14071224835E+03 -0.35345392615E+03  0.32671576925E+02  0.38183379458E+03  0.00000000000E+00 0. -1.
         -4    1    5    5    0  502  0.27118580606E+03  0.12520903224E+03 -0.23371550132E+03  0.37926505075E+03  0.00000000000E+00 0.  1.
         -3    1    6    6    0  503  0.41828876953E+00  0.23157896533E+01 -0.73253927499E+01  0.76941033365E+01  0.00000000000E+00 0.  1.
<mgrwt>
<rscale>  0 0.21898471E+04</rscale>
<asrwt>0</asrwt>
<pdfrwt beam="1">  1        3 0.17471460E+00 0.21898471E+04</pdfrwt>
<pdfrwt beam="2">  1       -3 0.16240960E+00 0.21898471E+04</pdfrwt>
<totfact> 0.13464660E-01</totfact>
</mgrwt>
</event>
<event>
12    1  0.4403484E-008  0.1719250E+04  0.7818608E-02  0.8750461E-01
         -1   -1    0    0    0  501 -0.00000000000E+00  0.00000000000E+00  0.58309529502E+03  0.58309529502E+03  0.00000000000E+00 0.  1.
          1   -1    0    0  501    0  0.00000000000E+00 -0.00000000000E+00 -0.12672978239E+04  0.12672978239E+04  0.00000000000E+00 0. -1.
         23    2    1    2    0    0 -0.30126116159E+03 -0.38817273051E+03 -0.65649052068E+03  0.82483559265E+03  0.89093181395E+02 0.  0.
        254    2    1    2    0    0  0.30126116159E+03  0.38817273051E+03 -0.27712008221E+02  0.10255575263E+04  0.89975770524E+03 0.  0.
         23    2    4    4    0    0 -0.19812024190E+03 -0.17986927648E+01 -0.26470048140E+03  0.34300223163E+03  0.91265111093E+02 0.  0.
         23    2    4    4    0    0  0.49938140349E+03  0.38997142327E+03  0.23698847318E+03  0.68255529465E+03  0.90877371853E+02 0.  0.
         11    1    3    3    0    0 -0.12523985383E+03 -0.23066724003E+03 -0.36725348695E+03  0.45140615890E+03  0.00000000000E+00 0. -1.
        -11    1    3    3    0    0 -0.17602130776E+03 -0.15750549047E+03 -0.28923703373E+03  0.37342943375E+03  0.00000000000E+00 0.  1.
          4    1    5    5  502    0 -0.67949479536E+01 -0.24092630389E+02 -0.23574914384E+02  0.34386083595E+02  0.00000000000E+00 0. -1.
          1    1    6    6  503    0  0.19940057020E+03  0.20883313079E+03  0.88858202799E+02  0.30210535268E+03  0.00000000000E+00 0. -1.
         -4    1    5    5    0  502 -0.19132529395E+03  0.22293937625E+02 -0.24112556702E+03  0.30861614804E+03  0.00000000000E+00 0.  1.
         -1    1    6    6    0  503  0.29998083329E+03  0.18113829248E+03  0.14813027038E+03  0.38044994197E+03  0.00000000000E+00 0.  1.
<mgrwt>
<rscale>  0 0.17192503E+04</rscale>
<asrwt>0</asrwt>
<pdfrwt beam="1">  1        1 0.19496889E+00 0.17192503E+04</pdfrwt>
<pdfrwt beam="2">  1       -1 0.89706969E-01 0.17192503E+04</pdfrwt>
<totfact> 0.11037920E+01</totfact>
</mgrwt>
</event>
<event>
12    1  0.4403484E-008  0.2043953E+04  0.7818608E-02  0.8586342E-01
         -2   -1    0    0    0  501 -0.00000000000E+00  0.00000000000E+00  0.28001551582E+03  0.28001551582E+03  0.00000000000E+00 0.  1.
          2   -1    0    0  501    0  0.00000000000E+00 -0.00000000000E+00 -0.37299229523E+04  0.37299229523E+04  0.00000000000E+00 0. -1.
         23    2    1    2    0    0  0.44764158494E+03  0.68626991091E+03 -0.16580801332E+04  0.18517122310E+04  0.90879475947E+02 0.  0.
        254    2    1    2    0    0 -0.44764158494E+03 -0.68626991091E+03 -0.17918273033E+04  0.21582262371E+04  0.88087798621E+03 0.  0.
         23    2    4    4    0    0 -0.21361680780E+03 -0.84252923145E+03 -0.10922240651E+04  0.13986899656E+04  0.88840110338E+02 0.  0.
         23    2    4    4    0    0 -0.23402477715E+03  0.15625932054E+03 -0.69960323822E+03  0.75953627149E+03  0.90918013672E+02 0.  0.
         11    1    3    3    0    0  0.45021969054E+03  0.68580351573E+03 -0.16432577769E+04  0.18366601083E+04  0.00000000000E+00 0.  1.
        -11    1    3    3    0    0 -0.25781055968E+01  0.46639518441E+00 -0.14822356261E+02  0.15052122709E+02  0.00000000000E+00 0. -1.
          4    1    5    5  502    0 -0.40465372557E+02 -0.17380985987E+03 -0.17020720671E+03  0.24661266590E+03  0.00000000000E+00 0. -1.
          3    1    6    6  503    0 -0.10568315724E+03  0.88285634636E+02 -0.23087496503E+03  0.26882435248E+03  0.00000000000E+00 0.  1.
         -4    1    5    5    0  502 -0.17315143524E+03 -0.66871937158E+03 -0.92201685838E+03  0.11520772997E+04  0.00000000000E+00 0.  1.
         -3    1    6    6    0  503 -0.12834161990E+03  0.67973685905E+02 -0.46872827318E+03  0.49071191901E+03  0.00000000000E+00 0. -1.
<mgrwt>
<rscale>  0 0.20439533E+04</rscale>
<asrwt>0</asrwt>
<pdfrwt beam="1">  1        2 0.57383426E+00 0.20439533E+04</pdfrwt>
<pdfrwt beam="2">  1       -2 0.43079313E-01 0.20439533E+04</pdfrwt>
<totfact> 0.26416325E+00</totfact>
</mgrwt>
</event>
<event>
12    1  0.4403484E-008  0.2221562E+04  0.7818608E-02  0.8509507E-01
         -2   -1    0    0    0  501 -0.00000000000E+00  0.00000000000E+00  0.61430773931E+03  0.61430773931E+03  0.00000000000E+00 0.  1.
          2   -1    0    0  501    0  0.00000000000E+00 -0.00000000000E+00 -0.20084957255E+04  0.20084957255E+04  0.00000000000E+00 0. -1.
         23    2    1    2    0    0  0.45156086561E+03 -0.38264983061E+03 -0.14333046284E+04  0.15555621481E+04  0.12281421068E+03 0.  0.
        254    2    1    2    0    0 -0.45156086561E+03  0.38264983061E+03  0.39116642237E+02  0.10672413168E+04  0.88721238061E+03 0.  0.
         23    2    4    4    0    0 -0.25568689226E+03  0.66053924005E+03  0.29270589533E+02  0.71517804986E+03  0.94525134641E+02 0.  0.
         23    2    4    4    0    0 -0.19587397335E+03 -0.27788940944E+03  0.98460527042E+01  0.35206326691E+03  0.90898084897E+02 0.  0.
         13    1    3    3    0    0  0.22449443543E+02 -0.69167039042E+02 -0.15585251374E+03  0.17198273996E+03  0.00000000000E+00 0.  1.
        -13    1    3    3    0    0  0.42911142206E+03 -0.31348279157E+03 -0.12774521147E+04  0.13835794081E+04  0.00000000000E+00 0. -1.
          4    1    5    5  502    0 -0.12481869968E+02  0.10188744088E+03  0.25930943964E+02  0.10587380007E+03  0.00000000000E+00 0.  1.
          3    1    6    6  503    0 -0.89421053133E+02 -0.19521981140E+03 -0.14024574870E+02  0.21518268566E+03  0.00000000000E+00 0. -1.
         -4    1    5    5    0  502 -0.24320502229E+03  0.55865179917E+03  0.33396455689E+01  0.60930424979E+03  0.00000000000E+00 0. -1.
         -3    1    6    6    0  503 -0.10645292022E+03 -0.82669598038E+02  0.23870627574E+02  0.13688058125E+03  0.00000000000E+00 0.  1.
<mgrwt>
<rscale>  0 0.22215620E+04</rscale>
<asrwt>0</asrwt>
<pdfrwt beam="1">  1        2 0.30899935E+00 0.22215620E+04</pdfrwt>
<pdfrwt beam="2">  1       -2 0.94508882E-01 0.22215620E+04</pdfrwt>
<totfact> 0.56880871E+00</totfact>
</mgrwt>
</event>
<event>
12    1  0.4403484E-008  0.1898523E+04  0.7818608E-02  0.8655592E-01
          2   -1    0    0  501    0  0.00000000000E+00  0.00000000000E+00  0.96364994991E+03  0.96364994991E+03  0.00000000000E+00 0.  1.
         -2   -1    0    0    0  501 -0.00000000000E+00 -0.00000000000E+00 -0.93508797291E+03  0.93508797291E+03  0.00000000000E+00 0. -1.
         23    2    1    2    0    0  0.46246116208E+03 -0.54757430960E+03  0.17506881417E+03  0.74399038710E+03  0.95732206835E+02 0.  0.
        254    2    1    2    0    0 -0.46246116208E+03  0.54757430960E+03 -0.14650683717E+03  0.11547475357E+04  0.89345938181E+03 0.  0.
         23    2    4    4    0    0  0.19083978796E+03 -0.48975441020E+02 -0.15027270983E+03  0.26556262516E+03  0.95515454620E+02 0.  0.
         23    2    4    4    0    0 -0.65330095005E+03  0.59654975062E+03  0.37658726591E+01  0.88918491056E+03  0.89229407010E+02 0.  0.
         13    1    3    3    0    0  0.39057004472E+03 -0.41848865333E+03  0.11173715058E+03  0.58323486146E+03  0.00000000000E+00 0. -1.
        -13    1    3    3    0    0  0.71891117365E+02 -0.12908565627E+03  0.63331663589E+02  0.16075552564E+03  0.00000000000E+00 0.  1.
          2    1    5    5  502    0  0.10355541022E+03 -0.58753101501E+02 -0.42241362057E+02  0.12633282468E+03  0.00000000000E+00 0. -1.
          4    1    6    6  503    0 -0.61335722925E+03  0.54333827180E+03 -0.16695127135E+02  0.81957446004E+03  0.00000000000E+00 0. -1.
         -2    1    5    5    0  502  0.87284377740E+02  0.97776604812E+01 -0.10803134777E+03  0.13922980049E+03  0.00000000000E+00 0.  1.
         -4    1    6    6    0  503 -0.39943720793E+02  0.53211478825E+02  0.20460999794E+02  0.69610450524E+02  0.00000000000E+00 0.  1.
<mgrwt>
<rscale>  0 0.18985231E+04</rscale>
<asrwt>0</asrwt>
<pdfrwt beam="1">  1        2 0.14825384E+00 0.18985231E+04</pdfrwt>
<pdfrwt beam="2">  1       -2 0.14385969E+00 0.18985231E+04</pdfrwt>
<totfact> 0.83326375E+00</totfact>
</mgrwt>
</event>
<event>
12    1  0.4403484E-008  0.1666144E+04  0.7818608E-02  0.8780913E-01
         -1   -1    0    0    0  501 -0.00000000000E+00  0.00000000000E+00  0.68175913217E+03  0.68175913217E+03  0.00000000000E+00 0.  1.
          1   -1    0    0  501    0  0.00000000000E+00 -0.00000000000E+00 -0.10179684373E+04  0.10179684373E+04  0.00000000000E+00 0. -1.
         23    2    1    2    0    0  0.29073201683E+03 -0.21164323369E+03  0.35542538295E+03  0.51471942931E+03  0.96389439699E+02 0.  0.
        254    2    1    2    0    0 -0.29073201683E+03  0.21164323369E+03 -0.69163468812E+03  0.11850081402E+04  0.89250646304E+03 0.  0.
         23    2    4    4    0    0 -0.51705553458E+03 -0.27031753818E+02 -0.65611181478E+03  0.84086052490E+03  0.92122566627E+02 0.  0.
         23    2    4    4    0    0  0.22632351776E+03  0.23867498751E+03 -0.35522873341E+02  0.34414761531E+03  0.94803070835E+02 0.  0.
         13    1    3    3    0    0  0.85378203169E+02 -0.80614240069E+02  0.60151262600E+02  0.13193281499E+03  0.00000000000E+00 0. -1.
        -13    1    3    3    0    0  0.20535381366E+03 -0.13102899362E+03  0.29527412035E+03  0.38278661432E+03  0.00000000000E+00 0.  1.
          2    1    5    5  502    0 -0.30514360223E+03 -0.86626561821E+01 -0.45648281625E+03  0.54914863300E+03  0.00000000000E+00 0. -1.
          3    1    6    6  503    0 -0.81163791322E+01  0.85519025344E+01  0.56384337932E+01  0.13069146216E+02  0.00000000000E+00 0. -1.
         -2    1    5    5    0  502 -0.21191193235E+03 -0.18369097636E+02 -0.19962899853E+03  0.29171189190E+03  0.00000000000E+00 0.  1.
         -3    1    6    6    0  503  0.23443989689E+03  0.23012308498E+03 -0.41161307134E+02  0.33107846909E+03  0.00000000000E+00 0.  1.
<mgrwt>
<rscale>  0 0.16661444E+04</rscale>
<asrwt>0</asrwt>
<pdfrwt beam="1">  1        1 0.15661053E+00 0.16661444E+04</pdfrwt>
<pdfrwt beam="2">  1       -1 0.10488602E+00 0.16661444E+04</pdfrwt>
<totfact> 0.11935606E+01</totfact>
</mgrwt>
</event>
<event>
12    1  0.4403484E-008  0.2310687E+04  0.7818608E-02  0.8473719E-01
          2   -1    0    0  501    0  0.00000000000E+00  0.00000000000E+00  0.21697206144E+04  0.21697206144E+04  0.00000000000E+00 0. -1.
         -2   -1    0    0    0  501 -0.00000000000E+00 -0.00000000000E+00 -0.61520299848E+03  0.61520299848E+03  0.00000000000E+00 0.  1.
         23    2    1    2    0    0 -0.24949916635E+03  0.54531992004E+03 -0.27742577589E+03  0.66541166466E+03  0.78638242170E+02 0.  0.
        254    2    1    2    0    0  0.24949916635E+03 -0.54531992004E+03  0.18319433918E+04  0.21195119482E+04  0.88130054959E+03 0.  0.
         23    2    4    4    0    0 -0.93355452683E+02 -0.49219659442E+02  0.13083023911E+04  0.13156565736E+04  0.90328610516E+02 0.  0.
         23    2    4    4    0    0  0.34285461903E+03 -0.49610026059E+03  0.52364100077E+03  0.80385537461E+03  0.91207495593E+02 0.  0.
         11    1    3    3    0    0 -0.18224513373E+03  0.40331486216E+03 -0.16555821819E+03  0.47253115286E+03  0.00000000000E+00 0. -1.
        -11    1    3    3    0    0 -0.67254032618E+02  0.14200505787E+03 -0.11186755770E+03  0.19288051180E+03  0.00000000000E+00 0.  1.
          2    1    5    5  502    0 -0.62566929291E+02 -0.69268275677E+02  0.69296373938E+03  0.69922203824E+03  0.00000000000E+00 0. -1.
          1    1    6    6  503    0  0.69732277395E+02 -0.11870827113E+03  0.73555017638E+02  0.15609159095E+03  0.00000000000E+00 0. -1.
         -2    1    5    5    0  502 -0.30788523392E+02  0.20048616236E+02  0.61533865168E+03  0.61643453540E+03  0.00000000000E+00 0.  1.
         -1    1    6    6    0  503  0.27312234164E+03 -0.37739198946E+03  0.45008598313E+03  0.64776378366E+03  0.00000000000E+00 0.  1.
<mgrwt>
<rscale>  0 0.23106870E+04</rscale>
<asrwt>0</asrwt>
<pdfrwt beam="1">  1        2 0.33380317E+00 0.23106870E+04</pdfrwt>
<pdfrwt beam="2">  1       -2 0.94646616E-01 0.23106870E+04</pdfrwt>
<totfact> 0.45728990E+00</totfact>
</mgrwt>
</event>
<event>
12    1  0.4403484E-008  0.2075401E+04  0.7818608E-02  0.8572158E-01
          1   -1    0    0  501    0  0.00000000000E+00  0.00000000000E+00  0.34140500035E+03  0.34140500035E+03  0.00000000000E+00 0. -1.
         -1   -1    0    0    0  501 -0.00000000000E+00 -0.00000000000E+00 -0.31540894947E+04  0.31540894947E+04  0.00000000000E+00 0.  1.
         23    2    1    2    0    0  0.57427831257E+03 -0.50109782094E+03 -0.17285338151E+04  0.18911079058E+04  0.86979048154E+02 0.  0.
        254    2    1    2    0    0 -0.57427831257E+03  0.50109782094E+03 -0.10841506792E+04  0.16043865893E+04  0.90431135464E+03 0.  0.
         23    2    4    4    0    0  0.64118376781E+02  0.34852373868E+03 -0.80670286497E+03  0.88580628889E+03  0.91122480312E+02 0.  0.
         23    2    4    4    0    0 -0.63839668936E+03  0.15257408226E+03 -0.27744781428E+03  0.71858030040E+03  0.92472563061E+02 0.  0.
         13    1    3    3    0    0  0.20885932524E+03 -0.20348948075E+03 -0.75941457159E+03  0.81347444831E+03  0.00000000000E+00 0.  1.
        -13    1    3    3    0    0  0.36541898734E+03 -0.29760834019E+03 -0.96911924355E+03  0.10776334575E+04  0.00000000000E+00 0. -1.
          4    1    5    5  502    0  0.85149294265E+02  0.30771055215E+03 -0.68573415860E+03  0.75641755830E+03  0.00000000000E+00 0. -1.
          1    1    6    6  503    0 -0.56596807053E+03  0.11814229332E+03 -0.21466655372E+03  0.61673267112E+03  0.00000000000E+00 0. -1.
         -4    1    5    5    0  502 -0.21030917484E+02  0.40813186528E+02 -0.12096870636E+03  0.12938873059E+03  0.00000000000E+00 0.  1.
         -1    1    6    6    0  503 -0.72428618821E+02  0.34431788939E+02 -0.62781260556E+02  0.10184762928E+03  0.00000000000E+00 0.  1.
<mgrwt>
<rscale>  0 0.20754006E+04</rscale>
<asrwt>0</asrwt>
<pdfrwt beam="1">  1        1 0.52523847E-01 0.20754006E+04</pdfrwt>
<pdfrwt beam="2">  1       -1 0.48524453E+00 0.20754006E+04</pdfrwt>
<totfact> 0.12674866E-01</totfact>
</mgrwt>
</event>
<event>
12    1  0.4403484E-008  0.1749697E+04  0.7818608E-02  0.8733517E-01
          2   -1    0    0  501    0  0.00000000000E+00  0.00000000000E+00  0.13743832850E+04  0.13743832850E+04  0.00000000000E+00 0. -1.
         -2   -1    0    0    0  501 -0.00000000000E+00 -0.00000000000E+00 -0.55687521914E+03  0.55687521914E+03  0.00000000000E+00 0.  1.
         23    2    1    2    0    0  0.45143378865E+03  0.41812062450E+03  0.23445321777E+02  0.62249986071E+03  0.91318515720E+02 0.  0.
        254    2    1    2    0    0 -0.45143378865E+03 -0.41812062450E+03  0.79406274407E+03  0.13087586434E+04  0.83886603402E+03 0.  0.
         23    2    4    4    0    0  0.43260260841E+02 -0.15474267401E+02 -0.14138674602E+03  0.17368431584E+03  0.89806049354E+02 0.  0.
         23    2    4    4    0    0 -0.49469404949E+03 -0.40264635709E+03  0.93544949009E+03  0.11350743276E+04  0.80508938177E+02 0.  0.
         13    1    3    3    0    0  0.43663722821E+03  0.37263170351E+03  0.17460759726E+02  0.57429202819E+03  0.00000000000E+00 0.  1.
        -13    1    3    3    0    0  0.14796560442E+02  0.45488920986E+02  0.59845620503E+01  0.48207832521E+02  0.00000000000E+00 0. -1.
          2    1    5    5  502    0  0.76480937593E+01 -0.98574891338E+01  0.11279228624E+02  0.16819168485E+02  0.00000000000E+00 0. -1.
          3    1    6    6  503    0 -0.21495608489E+03 -0.12466199961E+03  0.36819835039E+03  0.44420350945E+03  0.00000000000E+00 0. -1.
         -2    1    5    5    0  502  0.35612167082E+02 -0.56167782671E+01 -0.15266597464E+03  0.15686514736E+03  0.00000000000E+00 0.  1.
         -3    1    6    6    0  503 -0.27973796460E+03 -0.27798435749E+03  0.56725113970E+03  0.69087081813E+03  0.00000000000E+00 0.  1.
<mgrwt>
<rscale>  0 0.17496971E+04</rscale>
<asrwt>0</asrwt>
<pdfrwt beam="1">  1        2 0.21144358E+00 0.17496971E+04</pdfrwt>
<pdfrwt beam="2">  1       -2 0.85673111E-01 0.17496971E+04</pdfrwt>
<totfact> 0.16792093E+01</totfact>
</mgrwt>
</event>
<event>
12    1  0.4403484E-008  0.1364350E+04  0.7818608E-02  0.8980036E-01
         -1   -1    0    0    0  501 -0.00000000000E+00  0.00000000000E+00  0.18751727205E+03  0.18751727205E+03  0.00000000000E+00 0.  1.
          1   -1    0    0  501    0  0.00000000000E+00 -0.00000000000E+00 -0.24817076040E+04  0.24817076040E+04  0.00000000000E+00 0. -1.
         23    2    1    2    0    0 -0.25258349138E+03  0.18403478494E+02 -0.12155495626E+04  0.12448302478E+04  0.88907246699E+02 0.  0.
        254    2    1    2    0    0  0.25258349138E+03 -0.18403478494E+02 -0.10786407694E+04  0.14243946283E+04  0.89515196454E+03 0.  0.
         23    2    4    4    0    0 -0.15722303540E+03 -0.21570508625E+03 -0.87204053459E+03  0.91644912612E+03  0.90424220776E+02 0.  0.
         23    2    4    4    0    0  0.40980652678E+03  0.19730160775E+03 -0.20660023478E+03  0.50794550217E+03  0.91954675554E+02 0.  0.
         11    1    3    3    0    0 -0.62346519375E+02  0.44422220358E+01 -0.15266094168E+03  0.16496116188E+03  0.00000000000E+00 0.  1.
        -11    1    3    3    0    0 -0.19023697200E+03  0.13961256459E+02 -0.10628886209E+04  0.10798690859E+04  0.00000000000E+00 0. -1.
          2    1    5    5  502    0 -0.32407284476E+02 -0.10903014407E+03 -0.43367874290E+03  0.44834702681E+03  0.00000000000E+00 0. -1.
          2    1    6    6  503    0  0.27219370303E+02  0.44274853413E+02 -0.23677267872E+02  0.57111905749E+02  0.00000000000E+00 0. -1.
         -2    1    5    5    0  502 -0.12481575092E+03 -0.10667494218E+03 -0.43836179169E+03  0.46810209931E+03  0.00000000000E+00 0.  1.
         -2    1    6    6    0  503  0.38258715647E+03  0.15302675434E+03 -0.18292296691E+03  0.45083359642E+03  0.00000000000E+00 0.  1.
<mgrwt>
<rscale>  0 0.13643505E+04</rscale>
<asrwt>0</asrwt>
<pdfrwt beam="1">  1        1 0.38180115E+00 0.13643505E+04</pdfrwt>
<pdfrwt beam="2">  1       -1 0.28848812E-01 0.13643505E+04</pdfrwt>
<totfact> 0.14961314E+01</totfact>
</mgrwt>
</event>
<event>
12    1  0.4403484E-008  0.2759720E+04  0.7818608E-02  0.8315884E-01
         -2   -1    0    0    0  501 -0.00000000000E+00  0.00000000000E+00  0.11633606590E+04  0.11633606590E+04  0.00000000000E+00 0.  1.
          2   -1    0    0  501    0  0.00000000000E+00 -0.00000000000E+00 -0.16366495768E+04  0.16366495768E+04  0.00000000000E+00 0. -1.
         23    2    1    2    0    0 -0.84986967450E+03  0.53397662105E+03  0.51419575915E+03  0.11315308270E+04  0.92494531397E+02 0.  0.
        254    2    1    2    0    0  0.84986967450E+03 -0.53397662105E+03 -0.98748467690E+03  0.16684794088E+04  0.89514694596E+03 0.  0.
         23    2    4    4    0    0  0.30614670290E+02 -0.16631950238E+03  0.12995643420E+03  0.23191006178E+03  0.91072317720E+02 0.  0.
         23    2    4    4    0    0  0.81925500421E+03 -0.36765711867E+03 -0.11174411111E+04  0.14365693470E+04  0.93307733259E+02 0.  0.
         11    1    3    3    0    0 -0.17703229448E+03  0.14377050503E+03  0.14771879552E+03  0.27171903496E+03  0.00000000000E+00 0. -1.
        -11    1    3    3    0    0 -0.67283738002E+03  0.39020611602E+03  0.36647696363E+03  0.85981179208E+03  0.00000000000E+00 0.  1.
          4    1    5    5  502    0 -0.56036509836E+01 -0.48806588316E+02 -0.49431350022E+01  0.49375282795E+02  0.00000000000E+00 0. -1.
          1    1    6    6  503    0  0.18822504622E+03 -0.11546341250E+03 -0.23023882250E+03  0.31901470661E+03  0.00000000000E+00 0. -1.
         -4    1    5    5    0  502  0.36218321274E+02 -0.11751291406E+03  0.13489956920E+03  0.18253477898E+03  0.00000000000E+00 0.  1.
         -1    1    6    6    0  503  0.63102995799E+03 -0.25219370617E+03 -0.88720228860E+03  0.11175546404E+04  0.00000000000E+00 0.  1.
<mgrwt>
<rscale>  0 0.27597201E+04</rscale>
<asrwt>0</asrwt>
<pdfrwt beam="1">  1        2 0.25179224E+00 0.27597201E+04</pdfrwt>
<pdfrwt beam="2">  1       -2 0.17897856E+00 0.27597201E+04</pdfrwt>
<totfact> 0.17119351E+00</totfact>
</mgrwt>
</event>
<event>
12    1  0.4403484E-008  0.1317086E+04  0.7818608E-02  0.9016124E-01
          1   -1    0    0  501    0  0.00000000000E+00  0.00000000000E+00  0.20986347213E+04  0.20986347213E+04  0.00000000000E+00 0. -1.
         -1   -1    0    0    0  501 -0.00000000000E+00 -0.00000000000E+00 -0.20664819218E+03  0.20664819218E+03  0.00000000000E+00 0.  1.
         23    2    1    2    0    0  0.21555325197E+03  0.24018833983E+03  0.28439882537E+03  0.43963692269E+03  0.90798066605E+02 0.  0.
        254    2    1    2    0    0 -0.21555325197E+03 -0.24018833983E+03  0.16075877038E+04  0.18656459908E+04  0.89002421018E+03 0.  0.
         23    2    4    4    0    0 -0.54708551994E+03 -0.56651808035E+02  0.95715914967E+03  0.11075904452E+04  0.89949780436E+02 0.  0.
         23    2    4    4    0    0  0.33153226797E+03 -0.18353653179E+03  0.65042855412E+03  0.75805554564E+03  0.89395766437E+02 0.  0.
         11    1    3    3    0    0  0.13438989934E+03  0.14138605988E+03  0.22751660433E+03  0.29969062084E+03  0.00000000000E+00 0. -1.
        -11    1    3    3    0    0  0.81163352627E+02  0.98802279945E+02  0.56882221046E+02  0.13994630186E+03  0.00000000000E+00 0.  1.
          1    1    5    5  502    0 -0.33214467848E+03 -0.40754717928E+02  0.49314179895E+03  0.59596129769E+03  0.00000000000E+00 0. -1.
          1    1    6    6  503    0  0.89160611705E+02 -0.93665495585E+01  0.17680291300E+03  0.19823374328E+03  0.00000000000E+00 0. -1.
         -1    1    5    5    0  502 -0.21494084146E+03 -0.15897090107E+02  0.46401735072E+03  0.51162914750E+03  0.00000000000E+00 0.  1.
         -1    1    6    6    0  503  0.24237165626E+03 -0.17416998223E+03  0.47362564112E+03  0.55982180236E+03  0.00000000000E+00 0.  1.
<mgrwt>
<rscale>  0 0.13170863E+04</rscale>
<asrwt>0</asrwt>
<pdfrwt beam="1">  1        1 0.32286687E+00 0.13170863E+04</pdfrwt>
<pdfrwt beam="2">  1       -1 0.31792031E-01 0.13170863E+04</pdfrwt>
<totfact> 0.23122446E+01</totfact>
</mgrwt>
</event>
<event>
12    1  0.4403484E-008  0.1886791E+04  0.7818608E-02  0.8661459E-01
          2   -1    0    0  501    0  0.00000000000E+00  0.00000000000E+00  0.43747484859E+04  0.43747484859E+04  0.00000000000E+00 0. -1.
         -2   -1    0    0    0  501 -0.00000000000E+00 -0.00000000000E+00 -0.20343922752E+03  0.20343922752E+03  0.00000000000E+00 0.  1.
         23    2    1    2    0    0 -0.11648832963E+03  0.17648172908E+03 -0.66834644976E+02  0.23988969825E+03  0.91459640922E+02 0.  0.
        254    2    1    2    0    0  0.11648832963E+03 -0.17648172908E+03  0.42381439034E+04  0.43382980152E+04  0.90235834963E+03 0.  0.
         23    2    4    4    0    0  0.32682737663E+03 -0.40530576029E+03  0.33728072627E+04  0.34139392962E+04  0.89798626929E+02 0.  0.
         23    2    4    4    0    0 -0.21033904700E+03  0.22882403121E+03  0.86533664062E+03  0.92435871892E+03  0.95018880719E+02 0.  0.
         13    1    3    3    0    0 -0.71474461682E+02  0.13108409498E+03 -0.87063757037E+02  0.17283441908E+03  0.00000000000E+00 0.  1.
        -13    1    3    3    0    0 -0.45013867949E+02  0.45397634106E+02  0.20229112061E+02  0.67055279172E+02  0.00000000000E+00 0. -1.
          1    1    6    6  502    0 -0.17081164343E+03  0.11880528936E+03  0.56100964981E+03  0.59835035012E+03  0.00000000000E+00 0. -1.
          1    1    5    5  503    0  0.30809607396E+03 -0.40591941881E+03  0.32561639144E+04  0.32957999337E+04  0.00000000000E+00 0.  1.
         -1    1    5    5    0  503  0.18731302674E+02  0.61365851586E+00  0.11664334835E+03  0.11813936258E+03  0.00000000000E+00 0. -1.
         -1    1    6    6    0  502 -0.39527403567E+02  0.11001874185E+03  0.30432699081E+03  0.32600836880E+03  0.00000000000E+00 0.  1.
<mgrwt>
<rscale>  0 0.18867914E+04</rscale>
<asrwt>0</asrwt>
<pdfrwt beam="1">  1        2 0.67303816E+00 0.18867914E+04</pdfrwt>
<pdfrwt beam="2">  1       -2 0.31298346E-01 0.18867914E+04</pdfrwt>
<totfact> 0.14648729E+00</totfact>
</mgrwt>
</event>
<event>
12    1  0.4403484E-008  0.1177363E+04  0.7818608E-02  0.9132905E-01
          1   -1    0    0  501    0  0.00000000000E+00  0.00000000000E+00  0.83920769745E+03  0.83920769745E+03  0.00000000000E+00 0. -1.
         -1   -1    0    0    0  501 -0.00000000000E+00 -0.00000000000E+00 -0.41294427173E+03  0.41294427173E+03  0.00000000000E+00 0.  1.
         23    2    1    2    0    0 -0.48198793811E+02  0.21544681661E+03  0.18047069049E+03  0.29898565487E+03  0.89901597188E+02 0.  0.
        254    2    1    2    0    0  0.48198793811E+02 -0.21544681661E+03  0.24579273523E+03  0.95316631432E+03  0.89407577953E+03 0.  0.
         23    2    4    4    0    0  0.26229569902E+03 -0.26944900401E+02  0.49185703368E+03  0.56528781902E+03  0.90010640297E+02 0.  0.
         23    2    4    4    0    0 -0.21409690521E+03 -0.18850191621E+03 -0.24606429845E+03  0.38787849530E+03  0.92366827949E+02 0.  0.
         13    1    3    3    0    0 -0.22006705927E+02  0.98742804287E+02  0.13998101191E+03  0.17271108881E+03  0.00000000000E+00 0. -1.
        -13    1    3    3    0    0 -0.26192087884E+02  0.11670401233E+03  0.40489678584E+02  0.12627456606E+03  0.00000000000E+00 0.  1.
          1    1    5    5  502    0  0.26140589574E+03 -0.40374712781E+02  0.47538154305E+03  0.54401357633E+03  0.00000000000E+00 0. -1.
          3    1    6    6  503    0 -0.22224762822E+03 -0.18438627466E+03 -0.24496415803E+03  0.37868158821E+03  0.00000000000E+00 0. -1.
         -1    1    5    5    0  502  0.88980328296E+00  0.13429812379E+02  0.16475490629E+02  0.21274242687E+02  0.00000000000E+00 0.  1.
         -3    1    6    6    0  503  0.81507230104E+01 -0.41156415548E+01 -0.11001404238E+01  0.91969070862E+01  0.00000000000E+00 0.  1.
<mgrwt>
<rscale>  0 0.11773632E+04</rscale>
<asrwt>0</asrwt>
<pdfrwt beam="1">  1        1 0.12910888E+00 0.11773632E+04</pdfrwt>
<pdfrwt beam="2">  1       -1 0.63529888E-01 0.11773632E+04</pdfrwt>
<totfact> 0.50959488E+01</totfact>
</mgrwt>
</event>
<event>
12    1  0.4403484E-008  0.1713915E+04  0.7818608E-02  0.8753468E-01
          2   -1    0    0  501    0  0.00000000000E+00  0.00000000000E+00  0.10155441507E+04  0.10155441507E+04  0.00000000000E+00 0. -1.
         -2   -1    0    0    0  501 -0.00000000000E+00 -0.00000000000E+00 -0.72313533445E+03  0.72313533445E+03  0.00000000000E+00 0.  1.
         23    2    1    2    0    0 -0.50066121098E+03 -0.34444961935E+03 -0.46326572077E+02  0.61564367390E+03  0.86970072348E+02 0.  0.
        254    2    1    2    0    0  0.50066121098E+03  0.34444961935E+03  0.33873538834E+03  0.11230358113E+04  0.88156711690E+03 0.  0.
         23    2    4    4    0    0 -0.10156269174E+03 -0.34961940428E+02  0.37891861226E+03  0.40403320072E+03  0.90145409910E+02 0.  0.
         23    2    4    4    0    0  0.60222390272E+03  0.37941155978E+03 -0.40183223927E+02  0.71900261054E+03  0.93398617593E+02 0.  0.
         11    1    3    3    0    0 -0.33768245213E+03 -0.27764799970E+03 -0.20790156979E+02  0.43766434724E+03  0.00000000000E+00 0.  1.
        -11    1    3    3    0    0 -0.16297875885E+03 -0.66801619650E+02 -0.25536415098E+02  0.17797932667E+03  0.00000000000E+00 0. -1.
          2    1    5    5  502    0 -0.24846424311E+02 -0.31753577509E+02  0.41009499982E+02  0.57510117149E+02  0.00000000000E+00 0. -1.
          3    1    6    6  503    0  0.21588151871E+03  0.11427861048E+03  0.26569060913E+02  0.24570377680E+03  0.00000000000E+00 0. -1.
         -2    1    5    5    0  502 -0.76716267432E+02 -0.32083629187E+01  0.33790911228E+03  0.34652308357E+03  0.00000000000E+00 0.  1.
         -3    1    6    6    0  503  0.38634238401E+03  0.26513294931E+03 -0.66752284840E+02  0.47329883374E+03  0.00000000000E+00 0.  1.
<mgrwt>
<rscale>  0 0.17139147E+04</rscale>
<asrwt>0</asrwt>
<pdfrwt beam="1">  1        2 0.15623756E+00 0.17139147E+04</pdfrwt>
<pdfrwt beam="2">  1       -2 0.11125159E+00 0.17139147E+04</pdfrwt>
<totfact> 0.14959003E+01</totfact>
</mgrwt>
</event>
<event>
12    1  0.4403484E-008  0.3270729E+04  0.7818608E-02  0.8170384E-01
         -3   -1    0    0    0  501 -0.00000000000E+00  0.00000000000E+00  0.12768740350E+04  0.12768740350E+04  0.00000000000E+00 0.  1.
          3   -1    0    0  501    0  0.00000000000E+00 -0.00000000000E+00 -0.20945032080E+04  0.20945032080E+04  0.00000000000E+00 0. -1.
         23    2    1    2    0    0 -0.77113783526E+03 -0.73589860619E+03 -0.15075800956E+04  0.18484841737E+04  0.88857617284E+02 0.  0.
        254    2    1    2    0    0  0.77113783526E+03  0.73589860619E+03  0.68995092262E+03  0.15228930694E+04  0.84081550032E+03 0.  0.
         23    2    4    4    0    0  0.46931838936E+03  0.13633619420E+03  0.68313548801E+03  0.84523435084E+03  0.94338244700E+02 0.  0.
         23    2    4    4    0    0  0.30181944591E+03  0.59956241199E+03  0.68154346080E+01  0.67765871855E+03  0.92762195269E+02 0.  0.
         11    1    3    3    0    0 -0.69567138399E+02 -0.99517203603E+02 -0.14693245798E+03  0.19061061819E+03  0.00000000000E+00 0.  1.
        -11    1    3    3    0    0 -0.70157069687E+03 -0.63638140259E+03 -0.13606476376E+04  0.16578735555E+04  0.00000000000E+00 0. -1.
          3    1    5    5  502    0  0.11128959322E+03  0.69396644081E+02  0.14609183566E+03  0.19632649392E+03  0.00000000000E+00 0. -1.
          3    1    6    6  503    0  0.18836111787E+03  0.29980501756E+03  0.35632950089E+02  0.35585483897E+03  0.00000000000E+00 0. -1.
         -3    1    5    5    0  502  0.35802879614E+03  0.66939550116E+02  0.53704365235E+03  0.64890785692E+03  0.00000000000E+00 0.  1.
         -3    1    6    6    0  503  0.11345832803E+03  0.29975739443E+03 -0.28817515481E+02  0.32180387958E+03  0.00000000000E+00 0.  1.
<mgrwt>
<rscale>  0 0.32707288E+04</rscale>
<asrwt>0</asrwt>
<pdfrwt beam="1">  1        3 0.32223126E+00 0.32707288E+04</pdfrwt>
<pdfrwt beam="2">  1       -3 0.19644216E+00 0.32707288E+04</pdfrwt>
<totfact> 0.97638449E-03</totfact>
</mgrwt>
</event>
<event>
12    1  0.4403484E-008  0.3018480E+04  0.7818608E-02  0.8238473E-01
         -2   -1    0    0    0  501 -0.00000000000E+00  0.00000000000E+00  0.23863086756E+04  0.23863086756E+04  0.00000000000E+00 0.  1.
          2   -1    0    0  501    0  0.00000000000E+00 -0.00000000000E+00 -0.95453115378E+03  0.95453115378E+03  0.00000000000E+00 0. -1.
         23    2    1    2    0    0 -0.28448706004E+03 -0.11014180171E+04 -0.19614867489E+03  0.11580521256E+04  0.92498038765E+02 0.  0.
        254    2    1    2    0    0  0.28448706004E+03  0.11014180171E+04  0.16279261967E+04  0.21827877038E+04  0.90573943394E+03 0.  0.
         23    2    4    4    0    0  0.13909073049E+03  0.61944579078E+03  0.20882089857E+03  0.67433790271E+03  0.89811582397E+02 0.  0.
         23    2    4    4    0    0  0.14539632955E+03  0.48197222632E+03  0.14191052981E+04  0.15084498011E+04  0.90131213199E+02 0.  0.
         13    1    3    3    0    0 -0.21627829276E+03 -0.93477276286E+03 -0.18861654950E+03  0.97783056858E+03  0.00000000000E+00 0. -1.
        -13    1    3    3    0    0 -0.68208767276E+02 -0.16664525424E+03 -0.75321253881E+01  0.18022155700E+03  0.00000000000E+00 0.  1.
          1    1    5    5  502    0  0.74497777976E+02  0.49070383755E+03  0.14740183740E+03  0.51775233151E+03  0.00000000000E+00 0.  1.
          3    1    6    6  503    0  0.57817286053E+01  0.38862555874E+02  0.56481015204E+02  0.68802846694E+02  0.00000000000E+00 0. -1.
         -1    1    5    5    0  502  0.64592952511E+02  0.12874195323E+03  0.61419061167E+02  0.15658557121E+03  0.00000000000E+00 0. -1.
         -3    1    6    6    0  503  0.13961460095E+03  0.44310967044E+03  0.13626242829E+04  0.14396469544E+04  0.00000000000E+00 0.  1.
<mgrwt>
<rscale>  0 0.30184804E+04</rscale>
<asrwt>0</asrwt>
<pdfrwt beam="1">  1        2 0.14685095E+00 0.30184804E+04</pdfrwt>
<pdfrwt beam="2">  1       -2 0.36712441E+00 0.30184804E+04</pdfrwt>
<totfact> 0.27903724E-01</totfact>
</mgrwt>
</event>
<event>
12    1  0.4403484E-008  0.1528299E+04  0.7818608E-02  0.8865850E-01
         -1   -1    0    0    0  501 -0.00000000000E+00  0.00000000000E+00  0.26930796720E+03  0.26930796720E+03  0.00000000000E+00 0.  1.
          1   -1    0    0  501    0  0.00000000000E+00 -0.00000000000E+00 -0.21682397804E+04  0.21682397804E+04  0.00000000000E+00 0. -1.
         23    2    1    2    0    0  0.63424500647E+02  0.48858050707E+03 -0.58690108896E+03  0.77156308414E+03  0.90128382947E+02 0.  0.
        254    2    1    2    0    0 -0.63424500647E+02 -0.48858050707E+03 -0.13120307243E+04  0.16659846635E+04  0.90074785505E+03 0.  0.
         23    2    4    4    0    0 -0.22462823136E+03 -0.65854186861E+03 -0.64618269161E+03  0.95373587906E+03  0.89021463931E+02 0.  0.
         23    2    4    4    0    0  0.16120373071E+03  0.16996136154E+03 -0.66584803266E+03  0.71224878443E+03  0.95242958326E+02 0.  0.
         11    1    3    3    0    0  0.20681278058E+02  0.12839851178E+03 -0.98173231765E+02  0.16294746554E+03  0.00000000000E+00 0.  1.
        -11    1    3    3    0    0  0.42743222589E+02  0.36018199529E+03 -0.48872785720E+03  0.60861561860E+03  0.00000000000E+00 0. -1.
          2    1    5    5  502    0 -0.72838650436E+02 -0.11569339312E+03 -0.14779207368E+03  0.20132790977E+03  0.00000000000E+00 0. -1.
          1    1    6    6  503    0  0.45387188225E+02  0.66941035485E+02 -0.11918859169E+03  0.14403825699E+03  0.00000000000E+00 0. -1.
         -2    1    5    5    0  502 -0.15178958092E+03 -0.54284847548E+03 -0.49839061793E+03  0.75240796929E+03  0.00000000000E+00 0.  1.
         -1    1    6    6    0  503  0.11581654249E+03  0.10302032605E+03 -0.54665944097E+03  0.56821052744E+03  0.00000000000E+00 0.  1.
<mgrwt>
<rscale>  0 0.15282987E+04</rscale>
<asrwt>0</asrwt>
<pdfrwt beam="1">  1        1 0.33357535E+00 0.15282987E+04</pdfrwt>
<pdfrwt beam="2">  1       -1 0.41431995E-01 0.15282987E+04</pdfrwt>
<totfact> 0.12631482E+01</totfact>
</mgrwt>
</event>
<event>
12    1  0.4403484E-008  0.1324864E+04  0.7818608E-02  0.9010077E-01
          1   -1    0    0  501    0  0.00000000000E+00  0.00000000000E+00  0.12689342123E+04  0.12689342123E+04  0.00000000000E+00 0. -1.
         -1   -1    0    0    0  501 -0.00000000000E+00 -0.00000000000E+00 -0.34581479439E+03  0.34581479439E+03  0.00000000000E+00 0.  1.
         23    2    1    2    0    0 -0.14501050134E+01  0.17085876198E+03  0.63924829184E+03  0.66815388004E+03  0.92716823961E+02 0.  0.
        254    2    1    2    0    0  0.14501050134E+01 -0.17085876198E+03  0.28387112604E+03  0.94659512663E+03  0.88671568059E+03 0.  0.
         23    2    4    4    0    0 -0.17424134433E+03 -0.48161238368E+03  0.25411551030E+03  0.57943206087E+03  0.94107844539E+02 0.  0.
         23    2    4    4    0    0  0.17569144935E+03  0.31075362170E+03  0.29755615748E+02  0.36716306575E+03  0.80548255165E+02 0.  0.
         13    1    3    3    0    0 -0.24173176837E+01  0.51401544189E+01  0.17709731592E+03  0.17718838540E+03  0.00000000000E+00 0. -1.
        -13    1    3    3    0    0  0.96721267034E+00  0.16571860756E+03  0.46215097592E+03  0.49096549465E+03  0.00000000000E+00 0.  1.
          4    1    5    5  502    0 -0.51019875434E+02 -0.12108565346E+03  0.21809430829E+02  0.13319314710E+03  0.00000000000E+00 0. -1.
          3    1    6    6  503    0  0.70014410388E+02  0.61769348065E+02  0.24926292380E+02  0.96637415498E+02  0.00000000000E+00 0. -1.
         -4    1    5    5    0  502 -0.12322146890E+03 -0.36052673022E+03  0.23230607947E+03  0.44623891377E+03  0.00000000000E+00 0.  1.
         -3    1    6    6    0  503  0.10567703896E+03  0.24898427364E+03  0.48293233679E+01  0.27052565026E+03  0.00000000000E+00 0.  1.
<mgrwt>
<rscale>  0 0.13248641E+04</rscale>
<asrwt>0</asrwt>
<pdfrwt beam="1">  1        1 0.19522065E+00 0.13248641E+04</pdfrwt>
<pdfrwt beam="2">  1       -1 0.53202276E-01 0.13248641E+04</pdfrwt>
<totfact> 0.33270110E+01</totfact>
</mgrwt>
</event>
<event>
12    1  0.4403484E-008  0.2176012E+04  0.7818608E-02  0.8528479E-01
          1   -1    0    0  501    0  0.00000000000E+00  0.00000000000E+00  0.14487989760E+04  0.14487989760E+04  0.00000000000E+00 0. -1.
         -1   -1    0    0    0  501 -0.00000000000E+00 -0.00000000000E+00 -0.81706126212E+03  0.81706126212E+03  0.00000000000E+00 0.  1.
         23    2    1    2    0    0  0.17725507366E+03  0.46644801076E+03  0.10447170815E+04  0.11629235308E+04  0.10938121592E+03 0.  0.
        254    2    1    2    0    0 -0.17725507366E+03 -0.46644801076E+03 -0.41297936760E+03  0.11029367073E+04  0.89270617468E+03 0.  0.
         23    2    4    4    0    0  0.32427061909E+03 -0.11497900608E+02 -0.99413845951E+02  0.35102281062E+03  0.89723267258E+02 0.  0.
         23    2    4    4    0    0 -0.50152569275E+03 -0.45495011015E+03 -0.31356552165E+03  0.75191389665E+03  0.92431317151E+02 0.  0.
         13    1    3    3    0    0  0.37171421227E+02  0.75650506570E+02  0.98504620493E+02  0.12964518487E+03  0.00000000000E+00 0.  1.
        -13    1    3    3    0    0  0.14008365243E+03  0.39079750419E+03  0.94621246097E+03  0.10332783460E+04  0.00000000000E+00 0. -1.
          2    1    5    5  502    0  0.27582286561E+03 -0.38615599516E+01 -0.48050032717E+02  0.28000351869E+03  0.00000000000E+00 0. -1.
          4    1    6    6  503    0 -0.47438501013E+03 -0.44690672156E+03 -0.28384270779E+03  0.71086808789E+03  0.00000000000E+00 0. -1.
         -2    1    5    5    0  502  0.48447753484E+02 -0.76363406560E+01 -0.51363813234E+02  0.71019291930E+02  0.00000000000E+00 0.  1.
         -4    1    6    6    0  503 -0.27140682621E+02 -0.80433885894E+01 -0.29722813856E+02  0.41045808759E+02  0.00000000000E+00 0.  1.
<mgrwt>
<rscale>  0 0.21760124E+04</rscale>
<asrwt>0</asrwt>
<pdfrwt beam="1">  1        1 0.22289215E+00 0.21760124E+04</pdfrwt>
<pdfrwt beam="2">  1       -1 0.12570173E+00 0.21760124E+04</pdfrwt>
<totfact> 0.35804833E+00</totfact>
</mgrwt>
</event>
<event>
12    1  0.4403484E-008  0.1487711E+04  0.7818608E-02  0.8892666E-01
         -1   -1    0    0    0  501 -0.00000000000E+00  0.00000000000E+00  0.31278005934E+03  0.31278005934E+03  0.00000000000E+00 0.  1.
          1   -1    0    0  501    0  0.00000000000E+00 -0.00000000000E+00 -0.17690429013E+04  0.17690429013E+04  0.00000000000E+00 0. -1.
         23    2    1    2    0    0  0.39602201506E+03 -0.77064357597E+02 -0.81523201494E+03  0.91408687415E+03  0.90439060623E+02 0.  0.
        254    2    1    2    0    0 -0.39602201506E+03  0.77064357597E+02 -0.64103082699E+03  0.11677360865E+04  0.88877145254E+03 0.  0.
         23    2    4    4    0    0  0.27044672117E+03 -0.39132449030E+02 -0.24518809444E+03  0.37847753578E+03  0.91952519707E+02 0.  0.
         23    2    4    4    0    0 -0.66646873623E+03  0.11619680663E+03 -0.39584273254E+03  0.78925855068E+03  0.92494954836E+02 0.  0.
         13    1    3    3    0    0  0.27933992559E+03 -0.21461366552E+02 -0.61432187172E+03  0.67519089623E+03  0.00000000000E+00 0. -1.
        -13    1    3    3    0    0  0.11668208947E+03 -0.55602991045E+02 -0.20091014323E+03  0.23889597792E+03  0.00000000000E+00 0.  1.
          1    1    5    5  502    0  0.13485028764E+03 -0.48039217609E+02 -0.77974664359E+02  0.16301047447E+03  0.00000000000E+00 0. -1.
          3    1    6    6  503    0 -0.34279958762E+03  0.44934055548E+02 -0.15132875016E+03  0.37740034081E+03  0.00000000000E+00 0. -1.
         -1    1    5    5    0  502  0.13559643353E+03  0.89067685787E+01 -0.16721343008E+03  0.21546706132E+03  0.00000000000E+00 0.  1.
         -3    1    6    6    0  503 -0.32366914861E+03  0.71262751079E+02 -0.24451398238E+03  0.41185820986E+03  0.00000000000E+00 0.  1.
<mgrwt>
<rscale>  0 0.14877115E+04</rscale>
<asrwt>0</asrwt>
<pdfrwt beam="1">  1        1 0.27216044E+00 0.14877115E+04</pdfrwt>
<pdfrwt beam="2">  1       -1 0.48120010E-01 0.14877115E+04</pdfrwt>
<totfact> 0.17879779E+01</totfact>
</mgrwt>
</event>
<event>
12    1  0.4403484E-008  0.3405653E+04  0.7818608E-02  0.8136520E-01
          1   -1    0    0  501    0  0.00000000000E+00  0.00000000000E+00  0.12136021147E+04  0.12136021147E+04  0.00000000000E+00 0. -1.
         -1   -1    0    0    0  501 -0.00000000000E+00 -0.00000000000E+00 -0.23892664037E+04  0.23892664037E+04  0.00000000000E+00 0.  1.
         23    2    1    2    0    0  0.13211889198E+04 -0.47676533852E+03 -0.13317321042E+04  0.19378706174E+04  0.94798642584E+02 0.  0.
        254    2    1    2    0    0 -0.13211889198E+04  0.47676533852E+03  0.15606781526E+03  0.16649979009E+04  0.88034964485E+03 0.  0.
         23    2    4    4    0    0 -0.59720022028E+03  0.10983294604E+03  0.48693030808E+03  0.78360218956E+03  0.90663594824E+02 0.  0.
         23    2    4    4    0    0 -0.72398869952E+03  0.36693239248E+03 -0.33086249282E+03  0.88139571132E+03  0.92678978744E+02 0.  0.
         13    1    3    3    0    0  0.88233351329E+03 -0.27092009193E+03 -0.88110680374E+03  0.12760326502E+04  0.00000000000E+00 0.  1.
        -13    1    3    3    0    0  0.43885540651E+03 -0.20584524659E+03 -0.45062530051E+03  0.66183796720E+03  0.00000000000E+00 0. -1.
          1    1    6    6  502    0 -0.65165721818E+02  0.60722675405E+02 -0.20668664866E+02  0.91438549396E+02  0.00000000000E+00 0. -1.
          1    1    5    5  503    0 -0.18845089145E+03  0.22257822463E+02  0.10245626791E+03  0.21565350909E+03  0.00000000000E+00 0. -1.
         -1    1    5    5    0  503 -0.40874932883E+03  0.87575123578E+02  0.38447404017E+03  0.56794868047E+03  0.00000000000E+00 0.  1.
         -1    1    6    6    0  502 -0.65882297770E+03  0.30620971707E+03 -0.31019382795E+03  0.78995716192E+03  0.00000000000E+00 0.  1.
<mgrwt>
<rscale>  0 0.34056534E+04</rscale>
<asrwt>0</asrwt>
<pdfrwt beam="1">  1        1 0.18670802E+00 0.34056534E+04</pdfrwt>
<pdfrwt beam="2">  1       -1 0.36757945E+00 0.34056534E+04</pdfrwt>
<totfact> 0.10180665E-01</totfact>
</mgrwt>
</event>
<event>
12    1  0.4403484E-008  0.2444018E+04  0.7818608E-02  0.8423205E-01
          1   -1    0    0  501    0  0.00000000000E+00  0.00000000000E+00  0.91091240856E+03  0.91091240856E+03  0.00000000000E+00 0.  1.
         -1   -1    0    0    0  501 -0.00000000000E+00 -0.00000000000E+00 -0.16393521593E+04  0.16393521593E+04  0.00000000000E+00 0. -1.
         23    2    1    2    0    0  0.36731092766E+02 -0.10526791388E+04 -0.20346561133E+03  0.10766017564E+04  0.90501626845E+02 0.  0.
        254    2    1    2    0    0 -0.36731092766E+02  0.10526791388E+04 -0.52497413940E+03  0.14736628114E+04  0.88690568397E+03 0.  0.
         23    2    4    4    0    0  0.16842523758E+03  0.10840139063E+04 -0.27244334511E+03  0.11340222446E+04  0.91257138101E+02 0.  0.
         23    2    4    4    0    0 -0.20515633035E+03 -0.31334767473E+02 -0.25253079429E+03  0.33964056682E+03  0.92265513784E+02 0.  0.
         11    1    3    3    0    0 -0.15231397632E+02 -0.34274496144E+03 -0.99469762253E+02  0.35721189463E+03  0.00000000000E+00 0.  1.
        -11    1    3    3    0    0  0.51962490398E+02 -0.70993417739E+03 -0.10399584908E+03  0.71938986180E+03  0.00000000000E+00 0. -1.
          2    1    5    5  502    0  0.20691498672E+02  0.24067577121E+03 -0.25295015800E+02  0.24288434035E+03  0.00000000000E+00 0. -1.
          4    1    6    6  503    0 -0.16376122592E+03 -0.11061889082E+02 -0.24191598772E+03  0.29234132383E+03  0.00000000000E+00 0. -1.
         -2    1    5    5    0  502  0.14773373891E+03  0.84333813509E+03 -0.24714832931E+03  0.89113790425E+03  0.00000000000E+00 0.  1.
         -4    1    6    6    0  503 -0.41395104430E+02 -0.20272878391E+02 -0.10614806564E+02  0.47299242990E+02  0.00000000000E+00 0.  1.
<mgrwt>
<rscale>  0 0.24440182E+04</rscale>
<asrwt>0</asrwt>
<pdfrwt beam="1">  1        1 0.14014037E+00 0.24440182E+04</pdfrwt>
<pdfrwt beam="2">  1       -1 0.25220802E+00 0.24440182E+04</pdfrwt>
<totfact> 0.10731802E+00</totfact>
</mgrwt>
</event>
<event>
12    1  0.4403484E-008  0.1194487E+04  0.7818608E-02  0.9117696E-01
         -2   -1    0    0    0  501 -0.00000000000E+00  0.00000000000E+00  0.40533224808E+03  0.40533224808E+03  0.00000000000E+00 0.  1.
          2   -1    0    0  501    0  0.00000000000E+00 -0.00000000000E+00 -0.88001852116E+03  0.88001852116E+03  0.00000000000E+00 0. -1.
         23    2    1    2    0    0  0.54105728795E+02  0.15438962432E+03  0.92825505647E+02  0.20974351342E+03  0.92801836921E+02 0.  0.
        254    2    1    2    0    0 -0.54105728795E+02 -0.15438962432E+03 -0.56751177873E+03  0.10756072558E+04  0.89894258093E+03 0.  0.
         23    2    4    4    0    0 -0.31112524682E+03 -0.31309259117E+03 -0.60883941377E+03  0.75746982497E+03  0.90825184483E+02 0.  0.
         23    2    4    4    0    0  0.25701951802E+03  0.15870296685E+03  0.41327635042E+02  0.31813743086E+03  0.90872367425E+02 0.  0.
         13    1    3    3    0    0 -0.25986828275E+02  0.26416127245E+02  0.20391243488E+02  0.42295742497E+02  0.00000000000E+00 0. -1.
        -13    1    3    3    0    0  0.80092557070E+02  0.12797349707E+03  0.72434262160E+02  0.16744777092E+03  0.00000000000E+00 0.  1.
          2    1    5    5  502    0 -0.18131942764E+03 -0.23584718080E+03 -0.36836958061E+03  0.47349421902E+03  0.00000000000E+00 0.  1.
          4    1    6    6  503    0  0.15654522490E+03  0.44618127327E+02  0.31496464161E+02  0.16579870922E+03  0.00000000000E+00 0. -1.
         -2    1    5    5    0  502 -0.12980581918E+03 -0.77245410372E+02 -0.24046983316E+03  0.28397560595E+03  0.00000000000E+00 0. -1.
         -4    1    6    6    0  503  0.10047429312E+03  0.11408483953E+03  0.98311708810E+01  0.15233872163E+03  0.00000000000E+00 0.  1.
<mgrwt>
<rscale>  0 0.11944871E+04</rscale>
<asrwt>0</asrwt>
<pdfrwt beam="1">  1        2 0.13538746E+00 0.11944871E+04</pdfrwt>
<pdfrwt beam="2">  1       -2 0.62358809E-01 0.11944871E+04</pdfrwt>
<totfact> 0.71282567E+01</totfact>
</mgrwt>
</event>
<event>
12    1  0.4403484E-008  0.1521456E+04  0.7818608E-02  0.8870309E-01
          2   -1    0    0  501    0  0.00000000000E+00  0.00000000000E+00  0.19430594907E+04  0.19430594907E+04  0.00000000000E+00 0. -1.
         -2   -1    0    0    0  501 -0.00000000000E+00 -0.00000000000E+00 -0.29783288546E+03  0.29783288546E+03  0.00000000000E+00 0.  1.
         23    2    1    2    0    0 -0.34979042562E+03 -0.64645521427E+02  0.75486227660E+02  0.37521442655E+03  0.92494918950E+02 0.  0.
        254    2    1    2    0    0  0.34979042562E+03  0.64645521427E+02  0.15697403776E+04  0.18656779496E+04  0.94347070614E+03 0.  0.
         23    2    4    4    0    0  0.26139536070E+02 -0.28405920888E+03  0.12500433503E+04  0.12854815180E+04  0.92094766965E+02 0.  0.
         23    2    4    4    0    0  0.32365088955E+03  0.34870473031E+03  0.31969702735E+03  0.58019643163E+03  0.89871145184E+02 0.  0.
         13    1    3    3    0    0 -0.25992521341E+03 -0.15862776723E+02  0.26258755005E+02  0.26172937639E+03  0.00000000000E+00 0.  1.
        -13    1    3    3    0    0 -0.89865212210E+02 -0.48782744705E+02  0.49227472654E+02  0.11348505016E+03  0.00000000000E+00 0. -1.
          4    1    5    5  502    0  0.10699473187E+02 -0.24720612833E+03  0.11716465739E+04  0.11974894750E+04  0.00000000000E+00 0. -1.
          1    1    6    6  503    0  0.56863934996E+02  0.11025830398E+03  0.10775989913E+03  0.16432466815E+03  0.00000000000E+00 0.  1.
         -4    1    5    5    0  502  0.15440062883E+02 -0.36853080552E+02  0.78396776374E+02  0.87992043014E+02  0.00000000000E+00 0.  1.
         -1    1    6    6    0  503  0.26678695455E+03  0.23844642632E+03  0.21193712822E+03  0.41587176348E+03  0.00000000000E+00 0. -1.
<mgrwt>
<rscale>  0 0.15214559E+04</rscale>
<asrwt>0</asrwt>
<pdfrwt beam="1">  1        2 0.29893222E+00 0.15214559E+04</pdfrwt>
<pdfrwt beam="2">  1       -2 0.45820445E-01 0.15214559E+04</pdfrwt>
<totfact> 0.31316332E+01</totfact>
</mgrwt>
</event>
<event>
12    1  0.4403484E-008  0.2755601E+04  0.7818608E-02  0.8317187E-01
         -1   -1    0    0    0  501 -0.00000000000E+00  0.00000000000E+00  0.28226999646E+04  0.28226999646E+04  0.00000000000E+00 0.  1.
          1   -1    0    0  501    0  0.00000000000E+00 -0.00000000000E+00 -0.67252412120E+03  0.67252412120E+03  0.00000000000E+00 0. -1.
         23    2    1    2    0    0  0.13631987628E+03 -0.93558130033E+03  0.19519842250E+04  0.21708318353E+04  0.91503902931E+02 0.  0.
        254    2    1    2    0    0 -0.13631987628E+03  0.93558130033E+03  0.19819161835E+03  0.13243922505E+04  0.90600189696E+03 0.  0.
         23    2    4    4    0    0  0.26311753948E+02 -0.15162473851E+03  0.12591329070E+03  0.21920694191E+03  0.92277607699E+02 0.  0.
         23    2    4    4    0    0 -0.16263163023E+03  0.10872060388E+04  0.72278327654E+02  0.11051853086E+04  0.88002224689E+02 0.  0.
         11    1    3    3    0    0  0.48325072905E+02 -0.44009901122E+03  0.81605348789E+03  0.92842110459E+03  0.00000000000E+00 0. -1.
        -11    1    3    3    0    0  0.87994803377E+02 -0.49548228911E+03  0.11359307371E+04  0.12424107307E+04  0.00000000000E+00 0.  1.
          2    1    5    5  502    0  0.25279253806E+02 -0.92462353207E+02  0.20051538530E+02  0.97930544933E+02  0.00000000000E+00 0. -1.
          2    1    6    6  503    0 -0.93729598378E+02  0.49385120585E+03  0.72322802756E+02  0.50784332124E+03  0.00000000000E+00 0. -1.
         -2    1    5    5    0  502  0.10325001416E+01 -0.59162385304E+02  0.10586175217E+03  0.12127639698E+03  0.00000000000E+00 0.  1.
         -2    1    6    6    0  503 -0.68902031852E+02  0.59335483299E+03 -0.44475101543E-01  0.59734198731E+03  0.00000000000E+00 0.  1.
<mgrwt>
<rscale>  0 0.27556007E+04</rscale>
<asrwt>0</asrwt>
<pdfrwt beam="1">  1        1 0.10346525E+00 0.27556007E+04</pdfrwt>
<pdfrwt beam="2">  1       -1 0.43426153E+00 0.27556007E+04</pdfrwt>
<totfact> 0.10445360E-01</totfact>
</mgrwt>
</event>
<event>
12    1  0.4403484E-008  0.1771838E+04  0.7818608E-02  0.8721421E-01
         -2   -1    0    0    0  501 -0.00000000000E+00  0.00000000000E+00  0.41216333291E+03  0.41216333291E+03  0.00000000000E+00 0.  1.
          2   -1    0    0  501    0  0.00000000000E+00 -0.00000000000E+00 -0.19042261101E+04  0.19042261101E+04  0.00000000000E+00 0. -1.
         23    2    1    2    0    0  0.25634481351E+02  0.38540969603E+03 -0.12807736492E+04  0.13407517150E+04  0.89645190829E+02 0.  0.
        254    2    1    2    0    0 -0.25634481351E+02 -0.38540969603E+03 -0.21128912800E+03  0.97563772807E+03  0.87064810365E+03 0.  0.
         23    2    4    4    0    0 -0.54069098952E+02 -0.39408329743E+03  0.26730405224E+03  0.48776691994E+03  0.90774440614E+02 0.  0.
         23    2    4    4    0    0  0.28434617601E+02  0.86736013957E+01 -0.47859318025E+03  0.48787080813E+03  0.89904028875E+02 0.  0.
         11    1    3    3    0    0  0.72800077327E+01  0.19317499643E+03 -0.49031989176E+03  0.52705139599E+03  0.00000000000E+00 0.  1.
        -11    1    3    3    0    0  0.18354473619E+02  0.19223469960E+03 -0.79045375746E+03  0.81370031899E+03  0.00000000000E+00 0. -1.
          3    1    5    5  502    0  0.18336492847E+02 -0.16105235188E+03  0.12989655720E+03  0.20771904725E+03  0.00000000000E+00 0. -1.
          3    1    6    6  503    0 -0.19860431965E+02  0.23426077968E+02 -0.31909456058E+03  0.32056911342E+03  0.00000000000E+00 0. -1.
         -3    1    5    5    0  502 -0.72405591799E+02 -0.23303094554E+03  0.13740749504E+03  0.28004787269E+03  0.00000000000E+00 0.  1.
         -3    1    6    6    0  503  0.48295049566E+02 -0.14752476572E+02 -0.15949861967E+03  0.16730169471E+03  0.00000000000E+00 0.  1.
<mgrwt>
<rscale>  0 0.17718377E+04</rscale>
<asrwt>0</asrwt>
<pdfrwt beam="1">  1        2 0.29295787E+00 0.17718377E+04</pdfrwt>
<pdfrwt beam="2">  1       -2 0.63409742E-01 0.17718377E+04</pdfrwt>
<totfact> 0.16452101E+01</totfact>
</mgrwt>
</event>
<event>
12    1  0.4403484E-008  0.2732206E+04  0.7818608E-02  0.8324630E-01
          1   -1    0    0  501    0  0.00000000000E+00  0.00000000000E+00  0.25867361389E+04  0.25867361389E+04  0.00000000000E+00 0. -1.
         -1   -1    0    0    0  501 -0.00000000000E+00 -0.00000000000E+00 -0.72146419828E+03  0.72146419828E+03  0.00000000000E+00 0.  1.
         23    2    1    2    0    0  0.96499195842E+03 -0.70076073429E+03  0.10715700063E+04  0.16051500395E+04  0.77261142977E+02 0.  0.
        254    2    1    2    0    0 -0.96499195842E+03  0.70076073429E+03  0.79370193428E+03  0.17030502977E+04  0.92094650739E+03 0.  0.
         23    2    4    4    0    0 -0.78250551902E+03  0.78873637175E+02  0.66956660028E+03  0.10370276443E+04  0.92579505795E+02 0.  0.
         23    2    4    4    0    0 -0.18248643940E+03  0.62188709712E+03  0.12413533401E+03  0.66602265340E+03  0.90176114187E+02 0.  0.
         11    1    3    3    0    0  0.86395945561E+03 -0.60379044033E+03  0.96654436721E+03  0.14301037901E+04  0.00000000000E+00 0.  1.
        -11    1    3    3    0    0  0.10103250281E+03 -0.96970293963E+02  0.10502563913E+03  0.17504624935E+03  0.00000000000E+00 0. -1.
          2    1    5    5  502    0 -0.54445222446E+03  0.60247360754E+02  0.51990414812E+03  0.75522069121E+03  0.00000000000E+00 0.  1.
          4    1    6    6  503    0 -0.30583727090E+01  0.12821961337E+03  0.11111499672E+02  0.12873650733E+03  0.00000000000E+00 0. -1.
         -2    1    5    5    0  502 -0.23805329456E+03  0.18626276421E+02  0.14966245216E+03  0.28180695309E+03  0.00000000000E+00 0. -1.
         -4    1    6    6    0  503 -0.17942806669E+03  0.49366748375E+03  0.11302383433E+03  0.53728614607E+03  0.00000000000E+00 0.  1.
<mgrwt>
<rscale>  0 0.27322061E+04</rscale>
<asrwt>0</asrwt>
<pdfrwt beam="1">  1        1 0.39795940E+00 0.27322061E+04</pdfrwt>
<pdfrwt beam="2">  1       -1 0.11099449E+00 0.27322061E+04</pdfrwt>
<totfact> 0.76642890E-01</totfact>
</mgrwt>
</event>
<event>
12    1  0.4403484E-008  0.1337064E+04  0.7818608E-02  0.9000679E-01
         -1   -1    0    0    0  501 -0.00000000000E+00  0.00000000000E+00  0.23083769891E+03  0.23083769891E+03  0.00000000000E+00 0.  1.
          1   -1    0    0  501    0  0.00000000000E+00 -0.00000000000E+00 -0.19361426518E+04  0.19361426518E+04  0.00000000000E+00 0. -1.
         23    2    1    2    0    0 -0.61792396943E+00  0.23162720141E+03 -0.90383625105E+03  0.93750623454E+03  0.91358791755E+02 0.  0.
        254    2    1    2    0    0  0.61792396943E+00 -0.23162720141E+03 -0.80146870184E+03  0.12294741162E+04  0.90310740227E+03 0.  0.
         23    2    4    4    0    0  0.19015144406E+02 -0.31484221239E+03 -0.96641033054E+03  0.10206306977E+04  0.90834462777E+02 0.  0.
         23    2    4    4    0    0 -0.18397220437E+02  0.83215010980E+02  0.16494162870E+03  0.20884341850E+03  0.95638051022E+02 0.  0.
         11    1    3    3    0    0  0.19820231262E+02  0.10390137549E+03 -0.25794860882E+03  0.27879351174E+03  0.00000000000E+00 0.  1.
        -11    1    3    3    0    0 -0.20438155231E+02  0.12772582592E+03 -0.64588764223E+03  0.65871272281E+03  0.00000000000E+00 0. -1.
          1    1    5    5  502    0  0.24167880271E+02 -0.16411191326E+02 -0.70647641327E+02  0.76449348347E+02  0.00000000000E+00 0. -1.
          1    1    6    6  503    0 -0.19052426232E+02  0.96873005285E+02  0.93065315675E+02  0.13567802726E+03  0.00000000000E+00 0. -1.
         -1    1    5    5    0  502 -0.51527358652E+01 -0.29843102106E+03 -0.89576268921E+03  0.94418134932E+03  0.00000000000E+00 0.  1.
         -1    1    6    6    0  503  0.65520579516E+00 -0.13657994305E+02  0.71876313021E+02  0.73165391249E+02  0.00000000000E+00 0.  1.
<mgrwt>
<rscale>  0 0.13370635E+04</rscale>
<asrwt>0</asrwt>
<pdfrwt beam="1">  1        1 0.29786812E+00 0.13370635E+04</pdfrwt>
<pdfrwt beam="2">  1       -1 0.35513490E-01 0.13370635E+04</pdfrwt>
<totfact> 0.24409442E+01</totfact>
</mgrwt>
</event>
<event>
12    1  0.4403484E-008  0.1732036E+04  0.7818608E-02  0.8743301E-01
         -2   -1    0    0    0  501 -0.00000000000E+00  0.00000000000E+00  0.60739796851E+03  0.60739796851E+03  0.00000000000E+00 0.  1.
          2   -1    0    0  501    0  0.00000000000E+00 -0.00000000000E+00 -0.12347540888E+04  0.12347540888E+04  0.00000000000E+00 0. -1.
         23    2    1    2    0    0 -0.19296935378E+03  0.54443578388E+03  0.27954070301E+02  0.58572309755E+03  0.92965707037E+02 0.  0.
        254    2    1    2    0    0  0.19296935378E+03 -0.54443578388E+03 -0.65531019064E+03  0.12564289598E+04  0.90306964893E+03 0.  0.
         23    2    4    4    0    0  0.10663988371E+03 -0.10655619670E+03 -0.76764403877E+03  0.78723449906E+03  0.87945997050E+02 0.  0.
         23    2    4    4    0    0  0.86329470062E+02 -0.43787958718E+03  0.11233384813E+03  0.46919446074E+03  0.91286572302E+02 0.  0.
         13    1    3    3    0    0 -0.14004126374E+03  0.28653228524E+03 -0.13458098738E+02  0.31920749749E+03  0.00000000000E+00 0. -1.
        -13    1    3    3    0    0 -0.52928090036E+02  0.25790349865E+03  0.41412169038E+02  0.26651560006E+03  0.00000000000E+00 0.  1.
          4    1    6    6  502    0  0.27719345199E+02 -0.33152352162E+03  0.65662662431E+02  0.33909850003E+03  0.00000000000E+00 0. -1.
          4    1    5    5  503    0  0.11482996519E+03 -0.11403335120E+03 -0.68540222277E+03  0.70424834616E+03  0.00000000000E+00 0. -1.
         -4    1    5    5    0  503 -0.81900814776E+01  0.74771545002E+01 -0.82241816003E+02  0.82986152902E+02  0.00000000000E+00 0.  1.
         -4    1    6    6    0  502  0.58610124864E+02 -0.10635606556E+03  0.46671185703E+02  0.13009596071E+03  0.00000000000E+00 0.  1.
<mgrwt>
<rscale>  0 0.17320359E+04</rscale>
<asrwt>0</asrwt>
<pdfrwt beam="1">  1        2 0.18996217E+00 0.17320359E+04</pdfrwt>
<pdfrwt beam="2">  1       -2 0.93445842E-01 0.17320359E+04</pdfrwt>
<totfact> 0.16605302E+01</totfact>
</mgrwt>
</event>
<event>
12    1  0.4403484E-008  0.1824253E+04  0.7818608E-02  0.8693507E-01
          2   -1    0    0  501    0  0.00000000000E+00  0.00000000000E+00  0.12032295598E+04  0.12032295598E+04  0.00000000000E+00 0. -1.
         -2   -1    0    0    0  501 -0.00000000000E+00 -0.00000000000E+00 -0.69145171256E+03  0.69145171256E+03  0.00000000000E+00 0.  1.
         23    2    1    2    0    0  0.42187623633E+01  0.33249920289E+03 -0.43149836904E+03  0.55197261653E+03  0.88934858374E+02 0.  0.
        254    2    1    2    0    0 -0.42187623633E+01 -0.33249920289E+03  0.94327621624E+03  0.13427086558E+04  0.89583647858E+03 0.  0.
         23    2    4    4    0    0  0.26981422183E+03 -0.31206550122E+03  0.96381458353E+03  0.10524441734E+04  0.92279982932E+02 0.  0.
         23    2    4    4    0    0 -0.27403298419E+03 -0.20433701671E+02 -0.20538367285E+02  0.29026448245E+03  0.91214213000E+02 0.  0.
         11    1    3    3    0    0 -0.27514260960E+02  0.32856471311E+02 -0.50995483549E+02  0.66611722734E+02  0.00000000000E+00 0. -1.
        -11    1    3    3    0    0  0.31733023323E+02  0.29964273158E+03 -0.38050288549E+03  0.48536089379E+03  0.00000000000E+00 0.  1.
          3    1    6    6  502    0 -0.23747294958E+03 -0.21644857659E+02 -0.49580737206E+02  0.24355728515E+03  0.00000000000E+00 0. -1.
          3    1    5    5  503    0  0.19442500950E+03 -0.17953891898E+03  0.69052767699E+03  0.73950238704E+03  0.00000000000E+00 0. -1.
         -3    1    5    5    0  503  0.75389212330E+02 -0.13252658224E+03  0.27328690654E+03  0.31294178631E+03  0.00000000000E+00 0.  1.
         -3    1    6    6    0  502 -0.36560034609E+02  0.12111559872E+01  0.29042369920E+02  0.46707197304E+02  0.00000000000E+00 0.  1.
<mgrwt>
<rscale>  0 0.18242534E+04</rscale>
<asrwt>0</asrwt>
<pdfrwt beam="1">  1        2 0.18511224E+00 0.18242534E+04</pdfrwt>
<pdfrwt beam="2">  1       -2 0.10637719E+00 0.18242534E+04</pdfrwt>
<totfact> 0.12659863E+01</totfact>
</mgrwt>
</event>
<event>
12    1  0.4403484E-008  0.1405497E+04  0.7818608E-02  0.8949849E-01
          2   -1    0    0  501    0  0.00000000000E+00  0.00000000000E+00  0.32251187587E+04  0.32251187587E+04  0.00000000000E+00 0. -1.
         -2   -1    0    0    0  501 -0.00000000000E+00 -0.00000000000E+00 -0.15312773915E+03  0.15312773915E+03  0.00000000000E+00 0.  1.
         23    2    1    2    0    0 -0.87216177216E+02  0.30754529801E+03  0.30286200960E+03  0.44888330039E+03  0.87063474668E+02 0.  0.
        254    2    1    2    0    0  0.87216177216E+02 -0.30754529801E+03  0.27691290100E+04  0.29293631975E+04  0.90050124762E+03 0.  0.
         23    2    4    4    0    0  0.20915968728E+03 -0.34848954821E+02  0.25188418481E+04  0.25293008162E+04  0.88521969438E+02 0.  0.
         23    2    4    4    0    0 -0.12194351007E+03 -0.27269634319E+03  0.25028716193E+03  0.40006238125E+03  0.90403153868E+02 0.  0.
         13    1    3    3    0    0 -0.16366768238E+02  0.12460700253E+03  0.68095046232E+02  0.14293953793E+03  0.00000000000E+00 0.  1.
        -13    1    3    3    0    0 -0.70849408977E+02  0.18293829548E+03  0.23476696336E+03  0.30594376247E+03  0.00000000000E+00 0. -1.
          2    1    5    5  502    0  0.11788103385E+03 -0.63324203535E+02  0.13997557313E+04  0.14061372622E+04  0.00000000000E+00 0. -1.
          4    1    6    6  503    0 -0.11463565955E+02 -0.12063516022E+03  0.12547983110E+03  0.17444037158E+03  0.00000000000E+00 0.  1.
         -2    1    5    5    0  502  0.91278653434E+02  0.28475248714E+02  0.11190861168E+04  0.11231635540E+04  0.00000000000E+00 0.  1.
         -4    1    6    6    0  503 -0.11047994411E+03 -0.15206118297E+03  0.12480733083E+03  0.22562200967E+03  0.00000000000E+00 0. -1.
<mgrwt>
<rscale>  0 0.14054966E+04</rscale>
<asrwt>0</asrwt>
<pdfrwt beam="1">  1        2 0.49617207E+00 0.14054966E+04</pdfrwt>
<pdfrwt beam="2">  1       -2 0.23558116E-01 0.14054966E+04</pdfrwt>
<totfact> 0.19643269E+01</totfact>
</mgrwt>
</event>
<event>
12    1  0.4403484E-008  0.1312064E+04  0.7818608E-02  0.9020053E-01
         -2   -1    0    0    0  501 -0.00000000000E+00  0.00000000000E+00  0.23084751078E+03  0.23084751078E+03  0.00000000000E+00 0.  1.
          2   -1    0    0  501    0  0.00000000000E+00 -0.00000000000E+00 -0.18643382433E+04  0.18643382433E+04  0.00000000000E+00 0. -1.
         23    2    1    2    0    0  0.94439729068E+02  0.26506925144E+03 -0.59308777951E+03  0.66264563997E+03  0.90363485322E+02 0.  0.
        254    2    1    2    0    0 -0.94439729068E+02 -0.26506925144E+03 -0.10404029530E+04  0.14325401141E+04  0.94369078802E+03 0.  0.
         23    2    4    4    0    0  0.40099172690E+03  0.33725659417E+01 -0.40107571529E+03  0.57456350690E+03  0.91955178346E+02 0.  0.
         23    2    4    4    0    0 -0.49543145596E+03 -0.26844181738E+03 -0.63932723767E+03  0.85797660716E+03  0.99353936686E+02 0.  0.
         11    1    3    3    0    0  0.36096122432E+02  0.21660750472E+03 -0.43305162388E+03  0.48554654783E+03  0.00000000000E+00 0. -1.
        -11    1    3    3    0    0  0.58343606636E+02  0.48461746718E+02 -0.16003615563E+03  0.17709909214E+03  0.00000000000E+00 0.  1.
          2    1    5    5  502    0  0.28510237518E+03  0.11184863586E+02 -0.33822068470E+03  0.44249485541E+03  0.00000000000E+00 0. -1.
          4    1    6    6  503    0 -0.48381065482E+03 -0.24202466269E+03 -0.58729222532E+03  0.79847407284E+03  0.00000000000E+00 0. -1.
         -2    1    5    5    0  502  0.11588935171E+03 -0.78122976441E+01 -0.62855030593E+02  0.13206865149E+03  0.00000000000E+00 0.  1.
         -4    1    6    6    0  503 -0.11620801141E+02 -0.26417154691E+02 -0.52035012344E+02  0.59502534322E+02  0.00000000000E+00 0.  1.
<mgrwt>
<rscale>  0 0.13120638E+04</rscale>
<asrwt>0</asrwt>
<pdfrwt beam="1">  1        2 0.28682127E+00 0.13120638E+04</pdfrwt>
<pdfrwt beam="2">  1       -2 0.35515002E-01 0.13120638E+04</pdfrwt>
<totfact> 0.57997790E+01</totfact>
</mgrwt>
</event>
<event>
12    1  0.4403484E-008  0.2071555E+04  0.7818608E-02  0.8573878E-01
          1   -1    0    0  501    0  0.00000000000E+00  0.00000000000E+00  0.24300578382E+04  0.24300578382E+04  0.00000000000E+00 0. -1.
         -1   -1    0    0    0  501 -0.00000000000E+00 -0.00000000000E+00 -0.44148543575E+03  0.44148543575E+03  0.00000000000E+00 0.  1.
         23    2    1    2    0    0  0.77931034183E+03 -0.16988218604E+03  0.11675699626E+04  0.14168346927E+04  0.89534142831E+02 0.  0.
        254    2    1    2    0    0 -0.77931034183E+03  0.16988218604E+03  0.82100243985E+03  0.14547085813E+04  0.89774577929E+03 0.  0.
         23    2    4    4    0    0  0.53604338771E+02  0.31185534960E+03  0.11072759283E+03  0.34704957171E+03  0.89753112507E+02 0.  0.
         23    2    4    4    0    0 -0.83291468060E+03 -0.14197316356E+03  0.71027484702E+03  0.11076590096E+04  0.92276101269E+02 0.  0.
         11    1    3    3    0    0  0.27379389376E+03 -0.16295310689E+02  0.39567134803E+03  0.48143997452E+03  0.00000000000E+00 0.  1.
        -11    1    3    3    0    0  0.50551644807E+03 -0.15358687535E+03  0.77189861456E+03  0.93539471813E+03  0.00000000000E+00 0. -1.
          2    1    5    5  502    0  0.29228912018E+02  0.18659697695E+03  0.18858101326E+02  0.18981145669E+03  0.00000000000E+00 0. -1.
          3    1    6    6  503    0 -0.54495405992E+03 -0.92933309474E+02  0.52065729292E+03  0.75940473010E+03  0.00000000000E+00 0. -1.
         -2    1    5    5    0  502  0.24375426753E+02  0.12525837265E+03  0.91869491501E+02  0.15723811503E+03  0.00000000000E+00 0.  1.
         -3    1    6    6    0  503 -0.28796062068E+03 -0.49039854087E+02  0.18961755410E+03  0.34825427948E+03  0.00000000000E+00 0.  1.
<mgrwt>
<rscale>  0 0.20715551E+04</rscale>
<asrwt>0</asrwt>
<pdfrwt beam="1">  1        1 0.37385504E+00 0.20715551E+04</pdfrwt>
<pdfrwt beam="2">  1       -1 0.67920838E-01 0.20715551E+04</pdfrwt>
<totfact> 0.30653344E+00</totfact>
</mgrwt>
</event>
<event>
12    1  0.4403484E-008  0.4971869E+04  0.7818608E-02  0.7832861E-01
         -2   -1    0    0    0  501 -0.00000000000E+00  0.00000000000E+00  0.24021246040E+04  0.24021246040E+04  0.00000000000E+00 0.  1.
          2   -1    0    0  501    0  0.00000000000E+00 -0.00000000000E+00 -0.25726686520E+04  0.25726686520E+04  0.00000000000E+00 0. -1.
         23    2    1    2    0    0  0.66471664883E+03 -0.67236166778E+03 -0.22852880705E+04  0.24746454425E+04  0.86081735722E+02 0.  0.
        254    2    1    2    0    0 -0.66471664883E+03  0.67236166778E+03  0.21147440226E+04  0.25001478135E+04  0.94057342773E+03 0.  0.
         23    2    4    4    0    0 -0.45885452550E+02  0.48657863401E+02 -0.79205538048E+02  0.13470304637E+03  0.86013551351E+02 0.  0.
         23    2    4    4    0    0 -0.61883119628E+03  0.62370380438E+03  0.21939495606E+04  0.23654447671E+04  0.99778689456E+02 0.  0.
         13    1    3    3    0    0  0.30370328413E+02 -0.12967258566E+02 -0.58036540256E+02  0.66773847033E+02  0.00000000000E+00 0.  1.
        -13    1    3    3    0    0  0.63434632041E+03 -0.65939440921E+03 -0.22272515302E+04  0.24078715954E+04  0.00000000000E+00 0. -1.
          2    1    5    5  502    0 -0.62385685763E+01 -0.19195375156E+02 -0.44362241871E+02  0.48737979740E+02  0.00000000000E+00 0. -1.
          1    1    6    6  503    0 -0.10901546398E+03  0.72733731166E+02  0.39463435442E+03  0.41582549311E+03  0.00000000000E+00 0. -1.
         -2    1    5    5    0  502 -0.39646883974E+02  0.67853238557E+02 -0.34843296177E+02  0.85965066626E+02  0.00000000000E+00 0.  1.
         -1    1    6    6    0  503 -0.50981573230E+03  0.55097007321E+03  0.17993152062E+04  0.19496192740E+04  0.00000000000E+00 0.  1.
<mgrwt>
<rscale>  0 0.49718691E+04</rscale>
<asrwt>0</asrwt>
<pdfrwt beam="1">  1        2 0.39579518E+00 0.49718691E+04</pdfrwt>
<pdfrwt beam="2">  1       -2 0.36955763E+00 0.49718691E+04</pdfrwt>
<totfact> 0.26929672E-02</totfact>
</mgrwt>
</event>
<event>
12    1  0.4403484E-008  0.2702599E+04  0.7818608E-02  0.8334162E-01
          2   -1    0    0  501    0  0.00000000000E+00  0.00000000000E+00  0.21551573772E+04  0.21551573772E+04  0.00000000000E+00 0. -1.
         -2   -1    0    0    0  501 -0.00000000000E+00 -0.00000000000E+00 -0.84727470928E+03  0.84727470928E+03  0.00000000000E+00 0.  1.
         23    2    1    2    0    0 -0.50847156065E+02  0.41104010477E+03  0.18331712330E+04  0.18816187351E+04  0.91830789911E+02 0.  0.
        254    2    1    2    0    0  0.50847156065E+02 -0.41104010477E+03 -0.52528856500E+03  0.11208133514E+04  0.89930811801E+03 0.  0.
         23    2    4    4    0    0  0.44487299721E+03 -0.35830562038E+03 -0.33851355106E+03  0.67075510247E+03  0.95005694557E+02 0.  0.
         23    2    4    4    0    0 -0.39402584114E+03 -0.52734484387E+02 -0.18677501395E+03  0.45005824892E+03  0.98133746780E+02 0.  0.
         13    1    3    3    0    0 -0.40883538807E+02  0.59905571802E+02  0.34681102157E+03  0.35431345721E+03  0.00000000000E+00 0.  1.
        -13    1    3    3    0    0 -0.99636172578E+01  0.35113453296E+03  0.14863602114E+04  0.15273052779E+04  0.00000000000E+00 0. -1.
          4    1    5    5  502    0  0.43763617737E+03 -0.35141418202E+03 -0.31140834623E+03  0.64186642627E+03  0.00000000000E+00 0.  1.
          1    1    6    6  503    0 -0.21559357548E+02  0.20595994712E+02 -0.11988309611E+02  0.32135968374E+02  0.00000000000E+00 0. -1.
         -4    1    5    5    0  502  0.72368198377E+01 -0.68914383565E+01 -0.27105204821E+02  0.28888676197E+02  0.00000000000E+00 0. -1.
         -1    1    6    6    0  503 -0.37246648359E+03 -0.73330479098E+02 -0.17478670434E+03  0.41792228055E+03  0.00000000000E+00 0.  1.
<mgrwt>
<rscale>  0 0.27025990E+04</rscale>
<asrwt>0</asrwt>
<pdfrwt beam="1">  1        2 0.33156267E+00 0.27025990E+04</pdfrwt>
<pdfrwt beam="2">  1       -2 0.13034996E+00 0.27025990E+04</pdfrwt>
<totfact> 0.20703370E+00</totfact>
</mgrwt>
</event>
<event>
12    1  0.4403484E-008  0.1346153E+04  0.7818608E-02  0.8993745E-01
          1   -1    0    0  501    0  0.00000000000E+00  0.00000000000E+00  0.90244461722E+03  0.90244461722E+03  0.00000000000E+00 0. -1.
         -1   -1    0    0    0  501 -0.00000000000E+00 -0.00000000000E+00 -0.50200541645E+03  0.50200541645E+03  0.00000000000E+00 0.  1.
         23    2    1    2    0    0 -0.17267481883E+03  0.11742874353E+03  0.25677561143E+03  0.34317665399E+03  0.90721542942E+02 0.  0.
        254    2    1    2    0    0  0.17267481883E+03 -0.11742874353E+03  0.14366358934E+03  0.10612733797E+04  0.10305609427E+04 0.  0.
         23    2    4    4    0    0  0.53600027584E+03 -0.26832736761E+03  0.23031652995E+03  0.64880075123E+03  0.92740708017E+02 0.  0.
         23    2    4    4    0    0 -0.36332545701E+03  0.15089862408E+03 -0.86652940607E+02  0.41247262845E+03  0.88595454968E+02 0.  0.
         11    1    3    3    0    0 -0.12219529338E+03  0.31376957129E+02  0.16425784167E+03  0.20711552745E+03  0.00000000000E+00 0. -1.
        -11    1    3    3    0    0 -0.50479525448E+02  0.86051786404E+02  0.92517769759E+02  0.13606112653E+03  0.00000000000E+00 0.  1.
          1    1    6    6  502    0 -0.43616215222E+02  0.44930207058E+02 -0.34955936157E+02  0.71714818616E+02  0.00000000000E+00 0. -1.
          1    1    5    5  503    0  0.33201740403E+03 -0.21520100870E+03  0.15577857474E+03  0.42522228901E+03  0.00000000000E+00 0. -1.
         -1    1    5    5    0  503  0.20398287181E+03 -0.53126358915E+02  0.74537955204E+02  0.22357846222E+03  0.00000000000E+00 0.  1.
         -1    1    6    6    0  502 -0.31970924179E+03  0.10596841702E+03 -0.51697004450E+02  0.34075780983E+03  0.00000000000E+00 0.  1.
<mgrwt>
<rscale>  0 0.13461532E+04</rscale>
<asrwt>0</asrwt>
<pdfrwt beam="1">  1        1 0.13883763E+00 0.13461532E+04</pdfrwt>
<pdfrwt beam="2">  1       -1 0.77231603E-01 0.13461532E+04</pdfrwt>
<totfact> 0.29819981E+01</totfact>
</mgrwt>
</event>
<event>
12    1  0.4403484E-008  0.1255666E+04  0.7818608E-02  0.9065481E-01
          2   -1    0    0  501    0  0.00000000000E+00  0.00000000000E+00  0.87223949303E+03  0.87223949303E+03  0.00000000000E+00 0. -1.
         -2   -1    0    0    0  501 -0.00000000000E+00 -0.00000000000E+00 -0.45191033501E+03  0.45191033501E+03  0.00000000000E+00 0.  1.
         23    2    1    2    0    0  0.12080129341E+02  0.24580648211E+03 -0.81652714217E+02  0.27513707875E+03  0.92013532642E+02 0.  0.
        254    2    1    2    0    0 -0.12080129341E+02 -0.24580648211E+03  0.50198187223E+03  0.10490127493E+04  0.88762333901E+03 0.  0.
         23    2    4    4    0    0  0.41312619672E+03 -0.37870346462E+01  0.24119141512E+03  0.48697785927E+03  0.91030438021E+02 0.  0.
         23    2    4    4    0    0 -0.42520632606E+03 -0.24201944747E+03  0.26079045712E+03  0.56203489002E+03  0.92183091743E+02 0.  0.
         13    1    3    3    0    0 -0.60203643677E+01  0.10982165986E+03 -0.83254902434E+02  0.13794354113E+03  0.00000000000E+00 0.  1.
        -13    1    3    3    0    0  0.18100493709E+02  0.13598482225E+03  0.16021882166E+01  0.13719353761E+03  0.00000000000E+00 0. -1.
          2    1    5    5  502    0  0.15918899337E+03 -0.45700966524E+02  0.90403584028E+02  0.18868630569E+03  0.00000000000E+00 0. -1.
          4    1    6    6  503    0 -0.30811281676E+02 -0.43731741954E+02  0.10291234911E+02  0.54476690877E+02  0.00000000000E+00 0.  1.
         -2    1    5    5    0  502  0.25393720336E+03  0.41913931878E+02  0.15078783109E+03  0.29829155358E+03  0.00000000000E+00 0.  1.
         -4    1    6    6    0  503 -0.39439504439E+03 -0.19828770551E+03  0.25049922220E+03  0.50755819915E+03  0.00000000000E+00 0. -1.
<mgrwt>
<rscale>  0 0.12556656E+04</rscale>
<asrwt>0</asrwt>
<pdfrwt beam="1">  1        2 0.13419069E+00 0.12556656E+04</pdfrwt>
<pdfrwt beam="2">  1       -2 0.69524667E-01 0.12556656E+04</pdfrwt>
<totfact> 0.56839360E+01</totfact>
</mgrwt>
</event>
<event>
12    1  0.4403484E-008  0.1482913E+04  0.7818608E-02  0.8895896E-01
         -3   -1    0    0    0  501 -0.00000000000E+00  0.00000000000E+00  0.50769695099E+03  0.50769695099E+03  0.00000000000E+00 0.  1.
          3   -1    0    0  501    0  0.00000000000E+00 -0.00000000000E+00 -0.10828460940E+04  0.10828460940E+04  0.00000000000E+00 0. -1.
         23    2    1    2    0    0  0.15533743158E+03 -0.31098495019E+03 -0.51635437906E+03  0.62915002063E+03  0.91468829627E+02 0.  0.
        254    2    1    2    0    0 -0.15533743158E+03  0.31098495019E+03 -0.58794763970E+02  0.96139302437E+03  0.89441509723E+03 0.  0.
         23    2    4    4    0    0 -0.59620710830E+02  0.48387203754E+03 -0.34369019510E+03  0.60302448575E+03  0.88480519466E+02 0.  0.
         23    2    4    4    0    0 -0.95716720752E+02 -0.17288708735E+03  0.28489543113E+03  0.35836853863E+03  0.90614387341E+02 0.  0.
         13    1    3    3    0    0  0.87409113455E+02 -0.25426168610E+03 -0.35766732580E+03  0.44745421451E+03  0.00000000000E+00 0. -1.
        -13    1    3    3    0    0  0.67928318128E+02 -0.56723264092E+02 -0.15868705325E+03  0.18169580612E+03  0.00000000000E+00 0.  1.
          4    1    5    5  502    0 -0.34322668019E+01  0.32558055541E+02 -0.56016159778E+02  0.64881565889E+02  0.00000000000E+00 0. -1.
          3    1    6    6  503    0 -0.90191177556E+02 -0.70069730314E+02  0.15790502874E+03  0.19487999825E+03  0.00000000000E+00 0. -1.
         -4    1    5    5    0  502 -0.56188444029E+02  0.45131398200E+03 -0.28767403532E+03  0.53814291986E+03  0.00000000000E+00 0.  1.
         -3    1    6    6    0  503 -0.55255431961E+01 -0.10281735704E+03  0.12699040239E+03  0.16348854038E+03  0.00000000000E+00 0.  1.
<mgrwt>
<rscale>  0 0.14829129E+04</rscale>
<asrwt>0</asrwt>
<pdfrwt beam="1">  1        3 0.16659170E+00 0.14829129E+04</pdfrwt>
<pdfrwt beam="2">  1       -3 0.78107224E-01 0.14829129E+04</pdfrwt>
<totfact> 0.95345836E-01</totfact>
</mgrwt>
</event>
<event>
12    1  0.4403484E-008  0.1316088E+04  0.7818608E-02  0.9016904E-01
          2   -1    0    0  501    0  0.00000000000E+00  0.00000000000E+00  0.27721110112E+04  0.27721110112E+04  0.00000000000E+00 0.  1.
         -2   -1    0    0    0  501 -0.00000000000E+00 -0.00000000000E+00 -0.15620645213E+03  0.15620645213E+03  0.00000000000E+00 0. -1.
         23    2    1    2    0    0 -0.23369447956E+03  0.17789088529E+03  0.11020117238E+04  0.11440340939E+04  0.90143728780E+02 0.  0.
        254    2    1    2    0    0  0.23369447956E+03 -0.17789088529E+03  0.15138928353E+04  0.17842833694E+04  0.89751732505E+03 0.  0.
         23    2    4    4    0    0  0.35660670817E+02 -0.51137859707E+03  0.64999808963E+03  0.83287652794E+03  0.91684465805E+02 0.  0.
         23    2    4    4    0    0  0.19803380875E+03  0.33348771179E+03  0.86389474562E+03  0.95140684144E+03  0.91811780905E+02 0.  0.
         13    1    3    3    0    0 -0.14399908362E+03  0.16068534426E+03  0.75935307362E+03  0.78941282379E+03  0.00000000000E+00 0.  1.
        -13    1    3    3    0    0 -0.89695395941E+02  0.17205541024E+02  0.34265865018E+03  0.35462127014E+03  0.00000000000E+00 0. -1.
          4    1    5    5  502    0  0.30205118576E+02 -0.47754456260E+03  0.63589684400E+03  0.79581778987E+03  0.00000000000E+00 0.  1.
          3    1    6    6  503    0  0.33015725462E+02  0.72636775207E+02  0.27740774402E+03  0.28865411080E+03  0.00000000000E+00 0. -1.
         -4    1    5    5    0  502  0.54555522401E+01 -0.33834034472E+02  0.14101245635E+02  0.37058738070E+02  0.00000000000E+00 0. -1.
         -3    1    6    6    0  503  0.16501808329E+03  0.26085093658E+03  0.58648700160E+03  0.66275273064E+03  0.00000000000E+00 0.  1.
<mgrwt>
<rscale>  0 0.13160876E+04</rscale>
<asrwt>0</asrwt>
<pdfrwt beam="1">  1        2 0.42647858E+00 0.13160876E+04</pdfrwt>
<pdfrwt beam="2">  1       -2 0.24031764E-01 0.13160876E+04</pdfrwt>
<totfact> 0.36550908E+01</totfact>
</mgrwt>
</event>
<event>
12    1  0.4403484E-008  0.1796363E+04  0.7818608E-02  0.8708236E-01
          2   -1    0    0  501    0  0.00000000000E+00  0.00000000000E+00  0.76868145514E+03  0.76868145514E+03  0.00000000000E+00 0. -1.
         -2   -1    0    0    0  501 -0.00000000000E+00 -0.00000000000E+00 -0.10494982889E+04  0.10494982889E+04  0.00000000000E+00 0.  1.
         23    2    1    2    0    0  0.18780953225E+03 -0.53622734079E+03 -0.46033367034E+03  0.73718829893E+03  0.93420118925E+02 0.  0.
        254    2    1    2    0    0 -0.18780953225E+03  0.53622734079E+03  0.17951683660E+03  0.10809914451E+04  0.90194458161E+03 0.  0.
         23    2    4    4    0    0 -0.29001673881E+03 -0.16710935628E+03  0.94544521858E+02  0.35923674767E+03  0.89872846354E+02 0.  0.
         23    2    4    4    0    0  0.10220720657E+03  0.70333669707E+03  0.84972314744E+02  0.72175469741E+03  0.92632210562E+02 0.  0.
         11    1    3    3    0    0  0.18021100438E+03 -0.48043973697E+03 -0.44402949233E+03  0.67857242577E+03  0.00000000000E+00 0.  1.
        -11    1    3    3    0    0  0.75985278693E+01 -0.55787603818E+02 -0.16304178008E+02  0.58615873157E+02  0.00000000000E+00 0. -1.
          1    1    5    5  502    0 -0.23508311672E+03 -0.12590819650E+03  0.11062345425E+03  0.28871178421E+03  0.00000000000E+00 0. -1.
          3    1    6    6  503    0  0.70689920743E+02  0.59965931710E+03  0.10104268391E+03  0.61220746929E+03  0.00000000000E+00 0. -1.
         -1    1    5    5    0  502 -0.54933622098E+02 -0.41201159779E+02 -0.16078932390E+02  0.70524963458E+02  0.00000000000E+00 0.  1.
         -3    1    6    6    0  503  0.31517285825E+02  0.10367737997E+03 -0.16070369165E+02  0.10954722812E+03  0.00000000000E+00 0.  1.
<mgrwt>
<rscale>  0 0.17963628E+04</rscale>
<asrwt>0</asrwt>
<pdfrwt beam="1">  1        2 0.11825868E+00 0.17963628E+04</pdfrwt>
<pdfrwt beam="2">  1       -2 0.16146128E+00 0.17963628E+04</pdfrwt>
<totfact> 0.84220374E+00</totfact>
</mgrwt>
</event>
<event>
12    1  0.4403484E-008  0.2110013E+04  0.7818608E-02  0.8556845E-01
          2   -1    0    0  501    0  0.00000000000E+00  0.00000000000E+00  0.20931238249E+04  0.20931238249E+04  0.00000000000E+00 0. -1.
         -2   -1    0    0    0  501 -0.00000000000E+00 -0.00000000000E+00 -0.53175968082E+03  0.53175968082E+03  0.00000000000E+00 0.  1.
         23    2    1    2    0    0  0.59341083387E+03  0.25164543385E+03 -0.66141658725E+02  0.65394690275E+03  0.88374150480E+02 0.  0.
        254    2    1    2    0    0 -0.59341083387E+03 -0.25164543385E+03  0.16275058029E+04  0.19709366030E+04  0.90573401872E+03 0.  0.
         23    2    4    4    0    0 -0.17801041382E+03 -0.39240677077E+03  0.21853844620E+03  0.49252454679E+03  0.95658745299E+02 0.  0.
         23    2    4    4    0    0 -0.41540042005E+03  0.14076133692E+03  0.14089673567E+04  0.14784120562E+04  0.90232660045E+02 0.  0.
         11    1    3    3    0    0  0.14441823679E+03  0.10192264713E+03 -0.29788206588E+02  0.17925454072E+03  0.00000000000E+00 0. -1.
        -11    1    3    3    0    0  0.44899259707E+03  0.14972278671E+03 -0.36353452136E+02  0.47469236203E+03  0.00000000000E+00 0.  1.
          2    1    5    5  502    0 -0.15709850367E+03 -0.24506042234E+03  0.12535648242E+03  0.31693658378E+03  0.00000000000E+00 0. -1.
          3    1    6    6  503    0 -0.30423073239E+03  0.13339656904E+03  0.11362725706E+04  0.11838354353E+04  0.00000000000E+00 0. -1.
         -2    1    5    5    0  502 -0.20911910149E+02 -0.14734634843E+03  0.93181963778E+02  0.17558796301E+03  0.00000000000E+00 0.  1.
         -3    1    6    6    0  503 -0.11116968766E+03  0.73647678794E+01  0.27269478605E+03  0.29457662093E+03  0.00000000000E+00 0.  1.
<mgrwt>
<rscale>  0 0.21100131E+04</rscale>
<asrwt>0</asrwt>
<pdfrwt beam="1">  1        2 0.32201905E+00 0.21100131E+04</pdfrwt>
<pdfrwt beam="2">  1       -2 0.81809183E-01 0.21100131E+04</pdfrwt>
<totfact> 0.71733773E+00</totfact>
</mgrwt>
</event>
<event>
12    1  0.4403484E-008  0.2199234E+04  0.7818608E-02  0.8518747E-01
          2   -1    0    0  501    0  0.00000000000E+00  0.00000000000E+00  0.38634631908E+04  0.38634631908E+04  0.00000000000E+00 0. -1.
         -2   -1    0    0    0  501 -0.00000000000E+00 -0.00000000000E+00 -0.31297249041E+03  0.31297249041E+03  0.00000000000E+00 0.  1.
         23    2    1    2    0    0  0.47579057798E+02 -0.96011485560E+02  0.32030001599E+04  0.32060714217E+04  0.90564698973E+02 0.  0.
        254    2    1    2    0    0 -0.47579057798E+02  0.96011485560E+02  0.34749054050E+03  0.97036425950E+03  0.89965279318E+03 0.  0.
         23    2    4    4    0    0  0.13506058486E+03 -0.36296763198E+03  0.21300611595E+03  0.44932451316E+03  0.80833466120E+02 0.  0.
         23    2    4    4    0    0 -0.18263964266E+03  0.45897911754E+03  0.13448442455E+03  0.52103974634E+03  0.96836395100E+02 0.  0.
         11    1    3    3    0    0 -0.23614757615E+02 -0.23821293783E+02  0.47229309965E+03  0.47348271647E+03  0.00000000000E+00 0.  1.
        -11    1    3    3    0    0  0.71193815412E+02 -0.72190191777E+02  0.27307070602E+04  0.27325887052E+04  0.00000000000E+00 0. -1.
          2    1    5    5  502    0  0.38714568990E+02 -0.49347455027E+02  0.61868640824E+02  0.88100612297E+02  0.00000000000E+00 0. -1.
          1    1    6    6  503    0 -0.51655216706E+02  0.45119703692E+02  0.90020001536E+01  0.69174309400E+02  0.00000000000E+00 0. -1.
         -2    1    5    5    0  502  0.96346015872E+02 -0.31362017695E+03  0.15113747513E+03  0.36122390086E+03  0.00000000000E+00 0.  1.
         -1    1    6    6    0  503 -0.13098442595E+03  0.41385941385E+03  0.12548242440E+03  0.45186543695E+03  0.00000000000E+00 0.  1.
<mgrwt>
<rscale>  0 0.21992341E+04</rscale>
<asrwt>0</asrwt>
<pdfrwt beam="1">  1        2 0.59437892E+00 0.21992341E+04</pdfrwt>
<pdfrwt beam="2">  1       -2 0.48149617E-01 0.21992341E+04</pdfrwt>
<totfact> 0.16495557E+00</totfact>
</mgrwt>
</event>
<event>
12    1  0.4403484E-008  0.1502297E+04  0.7818608E-02  0.8882927E-01
         -1   -1    0    0    0  501 -0.00000000000E+00  0.00000000000E+00  0.20426426305E+03  0.20426426305E+03  0.00000000000E+00 0.  1.
          1   -1    0    0  501    0  0.00000000000E+00 -0.00000000000E+00 -0.27622267966E+04  0.27622267966E+04  0.00000000000E+00 0. -1.
         23    2    1    2    0    0 -0.20523808844E+03  0.35965060954E+03 -0.12946492752E+04  0.13624330350E+04  0.92928980228E+02 0.  0.
        254    2    1    2    0    0  0.20523808844E+03 -0.35965060954E+03 -0.12633132583E+04  0.16040580246E+04  0.89753580633E+03 0.  0.
         23    2    4    4    0    0 -0.12497089424E+03 -0.25185110749E+03 -0.12041280402E+04  0.12398851044E+04  0.91345663481E+02 0.  0.
         23    2    4    4    0    0  0.33020898269E+03 -0.10779950205E+03 -0.59185218126E+02  0.36417292014E+03  0.91980002340E+02 0.  0.
         13    1    3    3    0    0 -0.18278260550E+02  0.80058536402E+00 -0.83456475054E+02  0.85438392858E+02  0.00000000000E+00 0.  1.
        -13    1    3    3    0    0 -0.18695982789E+03  0.35885002417E+03 -0.12111928001E+04  0.12769946422E+04  0.00000000000E+00 0. -1.
          1    1    5    5  502    0 -0.99651169942E+02 -0.25108311735E+03 -0.10892160027E+04  0.11222141453E+04  0.00000000000E+00 0. -1.
          3    1    6    6  503    0  0.20428252388E+03 -0.21838852075E+02 -0.17965184342E+02  0.20623053331E+03  0.00000000000E+00 0. -1.
         -1    1    5    5    0  502 -0.25319724301E+02 -0.76799013628E+00 -0.11491203757E+03  0.11767095914E+03  0.00000000000E+00 0.  1.
         -3    1    6    6    0  503  0.12592645881E+03 -0.85960649973E+02 -0.41220033784E+02  0.15794238683E+03  0.00000000000E+00 0.  1.
<mgrwt>
<rscale>  0 0.15022972E+04</rscale>
<asrwt>0</asrwt>
<pdfrwt beam="1">  1        1 0.42495794E+00 0.15022972E+04</pdfrwt>
<pdfrwt beam="2">  1       -1 0.31425273E-01 0.15022972E+04</pdfrwt>
<totfact> 0.80972052E+00</totfact>
</mgrwt>
</event>
<event>
12    1  0.4403484E-008  0.2405672E+04  0.7818608E-02  0.8437383E-01
          2   -1    0    0  501    0  0.00000000000E+00  0.00000000000E+00  0.22560222470E+04  0.22560222470E+04  0.00000000000E+00 0.  1.
         -2   -1    0    0    0  501 -0.00000000000E+00 -0.00000000000E+00 -0.64131197429E+03  0.64131197429E+03  0.00000000000E+00 0. -1.
         23    2    1    2    0    0 -0.80448789079E+03  0.64439868798E+03  0.57503655735E+03  0.11838325739E+04  0.91335016909E+02 0.  0.
        254    2    1    2    0    0  0.80448789079E+03 -0.64439868798E+03  0.10396737154E+04  0.17135016474E+04  0.89034601453E+03 0.  0.
         23    2    4    4    0    0  0.25077387924E+03 -0.17427522260E+03 -0.12124899112E+03  0.34104474653E+03  0.91382764045E+02 0.  0.
         23    2    4    4    0    0  0.55371401154E+03 -0.47012346538E+03  0.11609227065E+04  0.13724569008E+04  0.91000741398E+02 0.  0.
         11    1    3    3    0    0 -0.65750981769E+03  0.56347520450E+03  0.50129184963E+03  0.10005583366E+04  0.00000000000E+00 0.  1.
        -11    1    3    3    0    0 -0.14697807310E+03  0.80923483475E+02  0.73744707726E+02  0.18327423733E+03  0.00000000000E+00 0. -1.
          2    1    5    5  502    0  0.86301596793E+02 -0.12085063941E+02 -0.42875961745E+02  0.97120350468E+02  0.00000000000E+00 0. -1.
          1    1    6    6  503    0  0.70175107313E+01 -0.26233079566E+02  0.32850103260E+02  0.42620994880E+02  0.00000000000E+00 0. -1.
         -2    1    5    5    0  502  0.16447228245E+03 -0.16219015866E+03 -0.78373029371E+02  0.24392439606E+03  0.00000000000E+00 0.  1.
         -1    1    6    6    0  503  0.54669650081E+03 -0.44389038581E+03  0.11280726032E+04  0.13298359060E+04  0.00000000000E+00 0.  1.
<mgrwt>
<rscale>  0 0.24056717E+04</rscale>
<asrwt>0</asrwt>
<pdfrwt beam="1">  1        2 0.34708034E+00 0.24056717E+04</pdfrwt>
<pdfrwt beam="2">  1       -2 0.98663382E-01 0.24056717E+04</pdfrwt>
<totfact> 0.36794122E+00</totfact>
</mgrwt>
</event>
<event>
12    1  0.4403484E-008  0.1308389E+04  0.7818608E-02  0.9022939E-01
          1   -1    0    0  501    0  0.00000000000E+00  0.00000000000E+00  0.13355383607E+04  0.13355383607E+04  0.00000000000E+00 0. -1.
         -1   -1    0    0    0  501 -0.00000000000E+00 -0.00000000000E+00 -0.32044795970E+03  0.32044795970E+03  0.00000000000E+00 0.  1.
         23    2    1    2    0    0  0.28052680958E+02  0.32046519998E+03  0.15520532667E+03  0.36900419942E+03  0.92684995841E+02 0.  0.
        254    2    1    2    0    0 -0.28052680958E+02 -0.32046519998E+03  0.85988507433E+03  0.12869821210E+04  0.90190672543E+03 0.  0.
         23    2    4    4    0    0 -0.18404919756E+03 -0.32382480326E+02 -0.12656045944E+03  0.24358481923E+03  0.91614857488E+02 0.  0.
         23    2    4    4    0    0  0.15599651660E+03 -0.28808271966E+03  0.98644553376E+03  0.10433973018E+04  0.90975665262E+02 0.  0.
         11    1    3    3    0    0  0.36460283942E+02  0.18139859808E+03  0.13313409069E+03  0.22794624321E+03  0.00000000000E+00 0.  1.
        -11    1    3    3    0    0 -0.84076029840E+01  0.13906660190E+03  0.22071235985E+02  0.14105795621E+03  0.00000000000E+00 0. -1.
          2    1    5    5  502    0 -0.18039897874E+03 -0.85439236697E+01 -0.12455084929E+03  0.21938483134E+03  0.00000000000E+00 0. -1.
          1    1    6    6  503    0  0.53559125387E+02 -0.18736185672E+03  0.51914289450E+03  0.55451094685E+03  0.00000000000E+00 0. -1.
         -2    1    5    5    0  502 -0.36502188170E+01 -0.23838556656E+02 -0.20096101406E+01  0.24199987888E+02  0.00000000000E+00 0.  1.
         -1    1    6    6    0  503  0.10243739121E+03 -0.10072086293E+03  0.46730263926E+03  0.48888635490E+03  0.00000000000E+00 0.  1.
<mgrwt>
<rscale>  0 0.13083892E+04</rscale>
<asrwt>0</asrwt>
<pdfrwt beam="1">  1        1 0.20546744E+00 0.13083892E+04</pdfrwt>
<pdfrwt beam="2">  1       -1 0.49299687E-01 0.13083892E+04</pdfrwt>
<totfact> 0.34538656E+01</totfact>
</mgrwt>
</event>
<event>
12    1  0.4403484E-008  0.1404306E+04  0.7818608E-02  0.8950708E-01
          2   -1    0    0  501    0  0.00000000000E+00  0.00000000000E+00  0.12503833522E+04  0.12503833522E+04  0.00000000000E+00 0. -1.
         -2   -1    0    0    0  501 -0.00000000000E+00 -0.00000000000E+00 -0.39429401865E+03  0.39429401865E+03  0.00000000000E+00 0.  1.
         23    2    1    2    0    0 -0.11205252328E+03 -0.28749064694E+03 -0.60438238402E+02  0.32656079872E+03  0.88218674598E+02 0.  0.
        254    2    1    2    0    0  0.11205252328E+03  0.28749064694E+03  0.91652757197E+03  0.13181165721E+04  0.89565722659E+03 0.  0.
         23    2    4    4    0    0 -0.37103753727E+03  0.24548340752E+03  0.43794286529E+03  0.63102997609E+03  0.92053897439E+02 0.  0.
         23    2    4    4    0    0  0.48309006055E+03  0.42007239416E+02  0.47858470668E+03  0.68708659606E+03  0.88904748147E+02 0.  0.
         11    1    3    3    0    0 -0.63305710763E+02 -0.14985679979E+03  0.12854096292E+02  0.16318670672E+03  0.00000000000E+00 0. -1.
        -11    1    3    3    0    0 -0.48746812519E+02 -0.13763384715E+03 -0.73292334694E+02  0.16337409200E+03  0.00000000000E+00 0.  1.
          1    1    5    5  502    0 -0.42655063462E+02  0.39325323053E+01  0.20259973742E+02  0.47385501847E+02  0.00000000000E+00 0. -1.
          3    1    6    6  503    0  0.16233059569E+03  0.46028014478E+02  0.12724250395E+03  0.21133020424E+03  0.00000000000E+00 0. -1.
         -1    1    5    5    0  502 -0.32838247381E+03  0.24155087522E+03  0.41768289155E+03  0.58364447424E+03  0.00000000000E+00 0.  1.
         -3    1    6    6    0  503  0.32075946486E+03 -0.40207750624E+01  0.35134220273E+03  0.47575639182E+03  0.00000000000E+00 0.  1.
<mgrwt>
<rscale>  0 0.14043058E+04</rscale>
<asrwt>0</asrwt>
<pdfrwt beam="1">  1        2 0.19236667E+00 0.14043058E+04</pdfrwt>
<pdfrwt beam="2">  1       -2 0.60660619E-01 0.14043058E+04</pdfrwt>
<totfact> 0.43526815E+01</totfact>
</mgrwt>
</event>
<event>
12    1  0.4403484E-008  0.1497702E+04  0.7818608E-02  0.8885983E-01
          3   -1    0    0  501    0  0.00000000000E+00  0.00000000000E+00  0.71653821864E+03  0.71653821864E+03  0.00000000000E+00 0. -1.
         -3   -1    0    0    0  501 -0.00000000000E+00 -0.00000000000E+00 -0.78262064802E+03  0.78262064802E+03  0.00000000000E+00 0.  1.
         23    2    1    2    0    0  0.44790919309E+03 -0.65618018113E+02  0.78328074810E+02  0.47339262855E+03  0.11417934974E+03 0.  0.
        254    2    1    2    0    0 -0.44790919309E+03  0.65618018113E+02 -0.14441050419E+03  0.10257662381E+04  0.90907294095E+03 0.  0.
         23    2    4    4    0    0 -0.61496051916E+03 -0.22102813304E+03 -0.20755875672E+02  0.66010137447E+03  0.90956816594E+02 0.  0.
         23    2    4    4    0    0  0.16705132607E+03  0.28664615115E+03 -0.12365462852E+03  0.36566486364E+03  0.91368286812E+02 0.  0.
         11    1    3    3    0    0  0.36063661503E+03 -0.94737905558E+01  0.40878275832E+02  0.36306962726E+03  0.00000000000E+00 0. -1.
        -11    1    3    3    0    0  0.87272578069E+02 -0.56144227557E+02  0.37449798978E+02  0.11032300129E+03  0.00000000000E+00 0.  1.
          1    1    5    5  502    0 -0.22968118915E+03 -0.12986322846E+03 -0.95270159296E+01  0.26402399662E+03  0.00000000000E+00 0. -1.
          3    1    6    6  503    0  0.14680785385E+03  0.28717887032E+03 -0.12363997317E+03  0.34541437792E+03  0.00000000000E+00 0. -1.
         -1    1    5    5    0  502 -0.38527933001E+03 -0.91164904579E+02 -0.11228859743E+02  0.39607737786E+03  0.00000000000E+00 0.  1.
         -3    1    6    6    0  503  0.20243472214E+02 -0.53271916374E+00 -0.14655344533E-01  0.20250485717E+02  0.00000000000E+00 0.  1.
<mgrwt>
<rscale>  0 0.14977017E+04</rscale>
<asrwt>0</asrwt>
<pdfrwt beam="1">  1        3 0.11023665E+00 0.14977017E+04</pdfrwt>
<pdfrwt beam="2">  1       -3 0.12040318E+00 0.14977017E+04</pdfrwt>
<totfact> 0.98627079E-01</totfact>
</mgrwt>
</event>
<event>
12    1  0.4403484E-008  0.1719703E+04  0.7818608E-02  0.8750206E-01
         -2   -1    0    0    0  501 -0.00000000000E+00  0.00000000000E+00  0.55219347462E+03  0.55219347462E+03  0.00000000000E+00 0.  1.
          2   -1    0    0  501    0  0.00000000000E+00 -0.00000000000E+00 -0.13389236276E+04  0.13389236276E+04  0.00000000000E+00 0. -1.
         23    2    1    2    0    0  0.57912314773E+03 -0.20598143720E+03 -0.23214131641E+03  0.66371009705E+03  0.93859093459E+02 0.  0.
        254    2    1    2    0    0 -0.57912314773E+03  0.20598143720E+03 -0.55458883660E+03  0.12274070052E+04  0.90617173099E+03 0.  0.
         23    2    4    4    0    0 -0.55527676817E+03  0.43812348771E+02  0.76655438262E+02  0.56985895257E+03  0.92797405303E+02 0.  0.
         23    2    4    4    0    0 -0.23846379558E+02  0.16216908843E+03 -0.63124427486E+03  0.65754805263E+03  0.83860860468E+02 0.  0.
         11    1    3    3    0    0  0.62907868492E+02 -0.46124439726E+02 -0.71112131644E+01  0.78329006191E+02  0.00000000000E+00 0. -1.
        -11    1    3    3    0    0  0.51621527924E+03 -0.15985699747E+03 -0.22503010325E+03  0.58538109085E+03  0.00000000000E+00 0.  1.
          2    1    5    5  502    0 -0.52950408681E+03  0.51693960246E+02  0.90333183569E+02  0.53963592127E+03  0.00000000000E+00 0. -1.
          4    1    6    6  503    0 -0.48916443802E+01  0.10695641850E+03 -0.52976676030E+03  0.54047795881E+03  0.00000000000E+00 0. -1.
         -2    1    5    5    0  502 -0.25772681363E+02 -0.78816114753E+01 -0.13677745306E+02  0.30223031297E+02  0.00000000000E+00 0.  1.
         -4    1    6    6    0  503 -0.18954735178E+02  0.55212669923E+02 -0.10147751456E+03  0.11707009382E+03  0.00000000000E+00 0.  1.
<mgrwt>
<rscale>  0 0.17197033E+04</rscale>
<asrwt>0</asrwt>
<pdfrwt beam="1">  1        2 0.20598825E+00 0.17197033E+04</pdfrwt>
<pdfrwt beam="2">  1       -2 0.84952843E-01 0.17197033E+04</pdfrwt>
<totfact> 0.17987658E+01</totfact>
</mgrwt>
</event>
<event>
12    1  0.4403484E-008  0.1941553E+04  0.7818608E-02  0.8634445E-01
          2   -1    0    0  501    0  0.00000000000E+00  0.00000000000E+00  0.21233899635E+04  0.21233899635E+04  0.00000000000E+00 0. -1.
         -2   -1    0    0    0  501 -0.00000000000E+00 -0.00000000000E+00 -0.44382175708E+03  0.44382175708E+03  0.00000000000E+00 0.  1.
         23    2    1    2    0    0  0.14931713348E+03 -0.19413817487E+03 -0.28975981341E+03  0.39024495769E+03  0.91351739104E+02 0.  0.
        254    2    1    2    0    0 -0.14931713348E+03  0.19413817487E+03  0.19693280198E+04  0.21769667629E+04  0.89495597641E+03 0.  0.
         23    2    4    4    0    0 -0.10572616884E+03 -0.34705808328E+03  0.70395292385E+03  0.79700361908E+03  0.89653298239E+02 0.  0.
         23    2    4    4    0    0 -0.43590964639E+02  0.54119625815E+03  0.12653750959E+04  0.13799631438E+04  0.91272025780E+02 0.  0.
         11    1    3    3    0    0  0.84765177438E+02 -0.16664321064E+03 -0.23999534228E+03  0.30422501422E+03  0.00000000000E+00 0.  1.
        -11    1    3    3    0    0  0.64551956046E+02 -0.27494964229E+02 -0.49764471127E+02  0.86019943466E+02  0.00000000000E+00 0. -1.
          2    1    5    5  502    0 -0.10919096814E+03 -0.29515701707E+03  0.54017162210E+03  0.62516055024E+03  0.00000000000E+00 0. -1.
          1    1    6    6  503    0  0.10909849164E+02  0.33670017891E+03  0.83408725990E+03  0.89954854922E+03  0.00000000000E+00 0. -1.
         -2    1    5    5    0  502  0.34647992933E+01 -0.51901066207E+02  0.16378130174E+03  0.17184306884E+03  0.00000000000E+00 0.  1.
         -1    1    6    6    0  503 -0.54500813803E+02  0.20449607925E+03  0.43128783605E+03  0.48041459455E+03  0.00000000000E+00 0.  1.
<mgrwt>
<rscale>  0 0.19415526E+04</rscale>
<asrwt>0</asrwt>
<pdfrwt beam="1">  1        2 0.32667537E+00 0.19415526E+04</pdfrwt>
<pdfrwt beam="2">  1       -2 0.68280272E-01 0.19415526E+04</pdfrwt>
<totfact> 0.10444665E+01</totfact>
</mgrwt>
</event>
<event>
12    1  0.4403484E-008  0.1752838E+04  0.7818608E-02  0.8731790E-01
          2   -1    0    0  501    0  0.00000000000E+00  0.00000000000E+00  0.80620784574E+03  0.80620784574E+03  0.00000000000E+00 0. -1.
         -2   -1    0    0    0  501 -0.00000000000E+00 -0.00000000000E+00 -0.95274438846E+03  0.95274438846E+03  0.00000000000E+00 0.  1.
         23    2    1    2    0    0  0.60845510773E+03  0.85336423276E+02 -0.25798006025E+03  0.67268737492E+03  0.91949277428E+02 0.  0.
        254    2    1    2    0    0 -0.60845510773E+03 -0.85336423276E+02  0.11144351753E+03  0.10862648593E+04  0.88884856058E+03 0.  0.
         23    2    4    4    0    0 -0.35243586427E+03 -0.40388617280E+03  0.30600947099E+03  0.62384926277E+03  0.90614719132E+02 0.  0.
         23    2    4    4    0    0 -0.25601924347E+03  0.31854974953E+03 -0.19456595346E+03  0.46241559651E+03  0.94617533775E+02 0.  0.
         11    1    3    3    0    0  0.91926540300E+02  0.13129245506E+02 -0.76990356434E+02  0.12062495962E+03  0.00000000000E+00 0. -1.
        -11    1    3    3    0    0  0.51652856743E+03  0.72207177770E+02 -0.18098970382E+03  0.55206241530E+03  0.00000000000E+00 0.  1.
          2    1    5    5  502    0 -0.28071061722E+03 -0.34732603506E+03  0.28608950933E+03  0.53035934290E+03  0.00000000000E+00 0. -1.
          3    1    6    6  503    0 -0.25560150150E+03  0.27353320698E+03 -0.17047816262E+03  0.41135793030E+03  0.00000000000E+00 0. -1.
         -2    1    5    5    0  502 -0.71725247045E+02 -0.56560137747E+02  0.19919961655E+02  0.93489919874E+02  0.00000000000E+00 0.  1.
         -3    1    6    6    0  503 -0.41774197092E+00  0.45016542548E+02 -0.24087790834E+02  0.51057666208E+02  0.00000000000E+00 0.  1.
<mgrwt>
<rscale>  0 0.17528377E+04</rscale>
<asrwt>0</asrwt>
<pdfrwt beam="1">  1        2 0.12403198E+00 0.17528377E+04</pdfrwt>
<pdfrwt beam="2">  1       -2 0.14657606E+00 0.17528377E+04</pdfrwt>
<totfact> 0.10285470E+01</totfact>
</mgrwt>
</event>
<event>
12    1  0.4403484E-008  0.1252489E+04  0.7818608E-02  0.9068114E-01
         -2   -1    0    0    0  501 -0.00000000000E+00  0.00000000000E+00  0.44908264354E+03  0.44908264354E+03  0.00000000000E+00 0.  1.
          2   -1    0    0  501    0  0.00000000000E+00 -0.00000000000E+00 -0.87329634320E+03  0.87329634320E+03  0.00000000000E+00 0. -1.
         23    2    1    2    0    0  0.16917902657E+02  0.25487989392E+03 -0.24106017068E+03  0.36247657176E+03  0.89606268916E+02 0.  0.
        254    2    1    2    0    0 -0.16917902657E+02 -0.25487989392E+03 -0.18315352898E+03  0.95990241498E+03  0.90698261028E+03 0.  0.
         23    2    4    4    0    0 -0.10024759563E+02 -0.59987509787E+02  0.35954971759E+03  0.37570085197E+03  0.90421975298E+02 0.  0.
         23    2    4    4    0    0 -0.68931430938E+01 -0.19489238413E+03 -0.54270324657E+03  0.58420156301E+03  0.93456383257E+02 0.  0.
         11    1    3    3    0    0  0.46218535799E+02  0.14667831033E+03 -0.10513682371E+03  0.18629125442E+03  0.00000000000E+00 0. -1.
        -11    1    3    3    0    0 -0.29300633142E+02  0.10820158359E+03 -0.13592334697E+03  0.17618531734E+03  0.00000000000E+00 0.  1.
          4    1    5    5  502    0  0.22318191681E+02 -0.41722159181E+02  0.74599019378E+02  0.88339424600E+02  0.00000000000E+00 0. -1.
          1    1    6    6  503    0  0.10077348925E+02 -0.17185352464E+02 -0.16766600072E+03  0.16884542368E+03  0.00000000000E+00 0. -1.
         -4    1    5    5    0  502 -0.32342951244E+02 -0.18265350607E+02  0.28495069821E+03  0.28736142737E+03  0.00000000000E+00 0.  1.
         -1    1    6    6    0  503 -0.16970492019E+02 -0.17770703167E+03 -0.37503724585E+03  0.41535613933E+03  0.00000000000E+00 0.  1.
<mgrwt>
<rscale>  0 0.12524891E+04</rscale>
<asrwt>0</asrwt>
<pdfrwt beam="1">  1        2 0.13435328E+00 0.12524891E+04</pdfrwt>
<pdfrwt beam="2">  1       -2 0.69089638E-01 0.12524891E+04</pdfrwt>
<totfact> 0.57538731E+01</totfact>
</mgrwt>
</event>
<event>
12    1  0.4403484E-008  0.2228007E+04  0.7818608E-02  0.8506861E-01
         -2   -1    0    0    0  501 -0.00000000000E+00  0.00000000000E+00  0.53414601538E+03  0.53414601538E+03  0.00000000000E+00 0.  1.
          2   -1    0    0  501    0  0.00000000000E+00 -0.00000000000E+00 -0.23233414131E+04  0.23233414131E+04  0.00000000000E+00 0. -1.
         23    2    1    2    0    0  0.69943678900E+03 -0.54394808485E+03 -0.48761739285E+03  0.10153534937E+04  0.89892461516E+02 0.  0.
        254    2    1    2    0    0 -0.69943678900E+03  0.54394808485E+03 -0.13015780049E+04  0.18421339347E+04  0.95616985409E+03 0.  0.
         23    2    4    4    0    0  0.19540498372E+03 -0.46864281059E+02 -0.15797979025E+03  0.27151403593E+03  0.91558118580E+02 0.  0.
         23    2    4    4    0    0 -0.89484177273E+03  0.59081236591E+03 -0.11435982146E+04  0.15706198988E+04  0.96067372595E+02 0.  0.
         11    1    3    3    0    0  0.19252276523E+03 -0.12037858503E+03 -0.16163115628E+03  0.27871248545E+03  0.00000000000E+00 0.  1.
        -11    1    3    3    0    0  0.50691402378E+03 -0.42356949981E+03 -0.32598623657E+03  0.73664100830E+03  0.00000000000E+00 0. -1.
          3    1    6    6  502    0 -0.22223207656E+03  0.14495274872E+03 -0.34579013997E+03  0.43585458138E+03  0.00000000000E+00 0. -1.
          3    1    5    5  503    0  0.52871074031E+01  0.18304381706E+02 -0.76357383339E+01  0.20525798261E+02  0.00000000000E+00 0. -1.
         -3    1    5    5    0  503  0.19011787632E+03 -0.65168662765E+02 -0.15034405192E+03  0.25098823767E+03  0.00000000000E+00 0.  1.
         -3    1    6    6    0  502 -0.67260969616E+03  0.44585961719E+03 -0.79780807464E+03  0.11347653174E+04  0.00000000000E+00 0.  1.
<mgrwt>
<rscale>  0 0.22280068E+04</rscale>
<asrwt>0</asrwt>
<pdfrwt beam="1">  1        2 0.35743714E+00 0.22280068E+04</pdfrwt>
<pdfrwt beam="2">  1       -2 0.82176310E-01 0.22280068E+04</pdfrwt>
<totfact> 0.52166167E+00</totfact>
</mgrwt>
</event>
<event>
12    1  0.4403484E-008  0.1537070E+04  0.7818608E-02  0.8860169E-01
         -1   -1    0    0    0  501 -0.00000000000E+00  0.00000000000E+00  0.54381766476E+03  0.54381766476E+03  0.00000000000E+00 0.  1.
          1   -1    0    0  501    0  0.00000000000E+00 -0.00000000000E+00 -0.10861100544E+04  0.10861100544E+04  0.00000000000E+00 0. -1.
         23    2    1    2    0    0  0.26522491526E+03 -0.40277116019E+03 -0.25456906295E+03  0.55963156493E+03  0.12575061629E+03 0.  0.
        254    2    1    2    0    0 -0.26522491526E+03  0.40277116019E+03 -0.28772332671E+03  0.10702961542E+04  0.91114229508E+03 0.  0.
         23    2    4    4    0    0 -0.25349004022E+03 -0.20793051199E+03 -0.29895049527E+03  0.45278511962E+03  0.90281047976E+02 0.  0.
         23    2    4    4    0    0 -0.11734875043E+02  0.61070167218E+03  0.11227168563E+02  0.61751103462E+03  0.89997715900E+02 0.  0.
         13    1    3    3    0    0  0.12351983260E+03 -0.25577686405E+03 -0.20276083776E+03  0.34898554492E+03  0.00000000000E+00 0. -1.
        -13    1    3    3    0    0  0.14170508267E+03 -0.14699429614E+03 -0.51808225184E+02  0.21064602001E+03  0.00000000000E+00 0.  1.
          3    1    5    5  502    0 -0.56327146064E+02 -0.57113921467E+02 -0.12914950014E+03  0.15203401197E+03  0.00000000000E+00 0. -1.
          3    1    6    6  503    0  0.67922056839E+01  0.35392100800E+03  0.48805205350E+02  0.35733480383E+03  0.00000000000E+00 0. -1.
         -3    1    5    5    0  502 -0.19716289416E+03 -0.15081659052E+03 -0.16980099513E+03  0.30075110766E+03  0.00000000000E+00 0.  1.
         -3    1    6    6    0  503 -0.18527080727E+02  0.25678066418E+03 -0.37578036788E+02  0.26017623078E+03  0.00000000000E+00 0.  1.
<mgrwt>
<rscale>  0 0.15370697E+04</rscale>
<asrwt>0</asrwt>
<pdfrwt beam="1">  1        1 0.16709385E+00 0.15370697E+04</pdfrwt>
<pdfrwt beam="2">  1       -1 0.83664257E-01 0.15370697E+04</pdfrwt>
<totfact> 0.17752897E+01</totfact>
</mgrwt>
</event>
<event>
12    1  0.4403484E-008  0.1233792E+04  0.7818608E-02  0.9083782E-01
         -2   -1    0    0    0  501 -0.00000000000E+00  0.00000000000E+00  0.46088057008E+03  0.46088057008E+03  0.00000000000E+00 0. -1.
          2   -1    0    0  501    0  0.00000000000E+00 -0.00000000000E+00 -0.82572540649E+03  0.82572540649E+03  0.00000000000E+00 0.  1.
         23    2    1    2    0    0 -0.18533255692E+03 -0.52363145544E+02  0.78773398804E+02  0.22771866325E+03  0.92522892126E+02 0.  0.
        254    2    1    2    0    0  0.18533255692E+03  0.52363145544E+02 -0.44361823521E+03  0.10588873133E+04  0.94199530149E+03 0.  0.
         23    2    4    4    0    0  0.19475821092E+03 -0.56096942566E+02  0.25939087434E+03  0.34174947610E+03  0.91822933056E+02 0.  0.
         23    2    4    4    0    0 -0.94256540006E+01  0.10846008811E+03 -0.70300910955E+03  0.71713783722E+03  0.90622490605E+02 0.  0.
         13    1    3    3    0    0 -0.18028338524E+03 -0.42485791490E+02  0.94921094245E+02  0.20812773867E+03  0.00000000000E+00 0. -1.
        -13    1    3    3    0    0 -0.50491716811E+01 -0.98773540538E+01 -0.16147695441E+02  0.19590924578E+02  0.00000000000E+00 0.  1.
          4    1    5    5  502    0  0.20904352017E+02  0.12974210999E+02  0.75586950325E+02  0.79490308489E+02  0.00000000000E+00 0.  1.
          3    1    6    6  503    0 -0.30791965550E+02  0.29608585136E+02 -0.10174113565E+03  0.11034524067E+03  0.00000000000E+00 0. -1.
         -4    1    5    5    0  502  0.17385385891E+03 -0.69071153565E+02  0.18380392401E+03  0.26225916761E+03  0.00000000000E+00 0. -1.
         -3    1    6    6    0  503  0.21366311550E+02  0.78851502975E+02 -0.60126797390E+03  0.60679259655E+03  0.00000000000E+00 0.  1.
<mgrwt>
<rscale>  0 0.12337922E+04</rscale>
<asrwt>0</asrwt>
<pdfrwt beam="1">  1        2 0.12703468E+00 0.12337922E+04</pdfrwt>
<pdfrwt beam="2">  1       -2 0.70904703E-01 0.12337922E+04</pdfrwt>
<totfact> 0.58771631E+01</totfact>
</mgrwt>
</event>
<event>
12    1  0.4403484E-008  0.3188911E+04  0.7818608E-02  0.8191752E-01
         -1   -1    0    0    0  501 -0.00000000000E+00  0.00000000000E+00  0.14332884839E+04  0.14332884839E+04  0.00000000000E+00 0.  1.
          1   -1    0    0  501    0  0.00000000000E+00 -0.00000000000E+00 -0.17737446839E+04  0.17737446839E+04  0.00000000000E+00 0. -1.
         23    2    1    2    0    0 -0.67466686600E+03  0.76075653927E+03 -0.12183364848E+04  0.15895305423E+04  0.91310801909E+02 0.  0.
        254    2    1    2    0    0  0.67466686600E+03 -0.76075653927E+03  0.87788028480E+03  0.16175026255E+04  0.90095230566E+03 0.  0.
         23    2    4    4    0    0  0.88938969986E+03 -0.62962958830E+03  0.70628004719E+03  0.13026346186E+04  0.10284934488E+03 0.  0.
         23    2    4    4    0    0 -0.21472283386E+03 -0.13112695096E+03  0.17160023761E+03  0.31486800698E+03  0.79969041644E+02 0.  0.
         11    1    3    3    0    0 -0.40821427817E+03  0.49428048847E+03 -0.82536455779E+03  0.10450735627E+04  0.00000000000E+00 0. -1.
        -11    1    3    3    0    0 -0.26645258783E+03  0.26647605080E+03 -0.39297192704E+03  0.54445697961E+03  0.00000000000E+00 0.  1.
          4    1    5    5  502    0  0.56617590220E+03 -0.43918730065E+03  0.41838522061E+03  0.82975106514E+03  0.00000000000E+00 0. -1.
          3    1    6    6  503    0 -0.16672415442E+03 -0.58682021649E+02  0.12253436595E+03  0.21507020754E+03  0.00000000000E+00 0. -1.
         -4    1    5    5    0  502  0.32321379766E+03 -0.19044228766E+03  0.28789482658E+03  0.47288355342E+03  0.00000000000E+00 0.  1.
         -3    1    6    6    0  503 -0.47998679436E+02 -0.72444929314E+02  0.49065871661E+02  0.99797799438E+02  0.00000000000E+00 0.  1.
<mgrwt>
<rscale>  0 0.31889107E+04</rscale>
<asrwt>0</asrwt>
<pdfrwt beam="1">  1        1 0.27288380E+00 0.31889107E+04</pdfrwt>
<pdfrwt beam="2">  1       -1 0.22050592E+00 0.31889107E+04</pdfrwt>
<totfact> 0.38821372E-01</totfact>
</mgrwt>
</event>
<event>
12    1  0.4403484E-008  0.1953611E+04  0.7818608E-02  0.8628622E-01
          2   -1    0    0  501    0  0.00000000000E+00  0.00000000000E+00  0.13993963229E+04  0.13993963229E+04  0.00000000000E+00 0. -1.
         -2   -1    0    0    0  501 -0.00000000000E+00 -0.00000000000E+00 -0.68182868082E+03  0.68182868082E+03  0.00000000000E+00 0.  1.
         23    2    1    2    0    0 -0.60382911890E+03 -0.40553498543E+03  0.55648591561E+03  0.91947368521E+03  0.81774410954E+02 0.  0.
        254    2    1    2    0    0  0.60382911890E+03  0.40553498543E+03  0.16108172649E+03  0.11617513185E+04  0.89143175524E+03 0.  0.
         23    2    4    4    0    0  0.49677504097E+03  0.61676191598E+03 -0.92312632556E+02  0.80282077557E+03  0.93908855875E+02 0.  0.
         23    2    4    4    0    0  0.10705407793E+03 -0.21122693055E+03  0.25339435905E+03  0.35893054296E+03  0.92439394637E+02 0.  0.
         11    1    3    3    0    0 -0.56287041877E+03 -0.38030656485E+03  0.54258924433E+03  0.86940167912E+03  0.00000000000E+00 0. -1.
        -11    1    3    3    0    0 -0.40958700136E+02 -0.25228420584E+02  0.13896671279E+02  0.50072006097E+02  0.00000000000E+00 0.  1.
          4    1    5    5  502    0  0.82506163905E+02  0.15119611782E+03 -0.43902829315E+02  0.17774980041E+03  0.00000000000E+00 0. -1.
          1    1    6    6  503    0  0.71667531444E+02 -0.12704841461E+03  0.88993562349E+02  0.17087243446E+03  0.00000000000E+00 0. -1.
         -4    1    5    5    0  502  0.41426887707E+03  0.46556579816E+03 -0.48409803242E+02  0.62507097515E+03  0.00000000000E+00 0.  1.
         -1    1    6    6    0  503  0.35386546483E+02 -0.84178515944E+02  0.16440079670E+03  0.18805810850E+03  0.00000000000E+00 0.  1.
<mgrwt>
<rscale>  0 0.19536106E+04</rscale>
<asrwt>0</asrwt>
<pdfrwt beam="1">  1        2 0.21529174E+00 0.19536106E+04</pdfrwt>
<pdfrwt beam="2">  1       -2 0.10489672E+00 0.19536106E+04</pdfrwt>
<totfact> 0.99524995E+00</totfact>
</mgrwt>
</event>
<event>
12    1  0.4403484E-008  0.2572551E+04  0.7818608E-02  0.8377585E-01
          1   -1    0    0  501    0  0.00000000000E+00  0.00000000000E+00  0.25738450145E+04  0.25738450145E+04  0.00000000000E+00 0. -1.
         -1   -1    0    0    0  501 -0.00000000000E+00 -0.00000000000E+00 -0.64281430860E+03  0.64281430860E+03  0.00000000000E+00 0.  1.
         23    2    1    2    0    0 -0.26204453892E+03 -0.75218958974E+03  0.18521001696E+04  0.20181994141E+04  0.91636880056E+02 0.  0.
        254    2    1    2    0    0  0.26204453892E+03  0.75218958974E+03  0.78930536318E+02  0.11984599089E+04  0.89197511429E+03 0.  0.
         23    2    4    4    0    0  0.46481920263E+03  0.25962475649E+03 -0.21785955255E+03  0.58233357723E+03  0.90485939304E+02 0.  0.
         23    2    4    4    0    0 -0.20277466372E+03  0.49256483324E+03  0.29679008887E+03  0.61612633172E+03  0.88258827268E+02 0.  0.
         13    1    3    3    0    0 -0.23956395147E+03 -0.65324985972E+03  0.16805035325E+04  0.18188508429E+04  0.00000000000E+00 0. -1.
        -13    1    3    3    0    0 -0.22480587453E+02 -0.98939730013E+02  0.17159663709E+03  0.19934857122E+03  0.00000000000E+00 0.  1.
          4    1    6    6  502    0 -0.20618015193E+03  0.49311430144E+03  0.28901334368E+03  0.60761886258E+03  0.00000000000E+00 0. -1.
          4    1    5    5  503    0  0.19696581064E+03  0.10123602191E+03 -0.43689264365E+02  0.22572774423E+03  0.00000000000E+00 0. -1.
         -4    1    5    5    0  503  0.26785339200E+03  0.15838873458E+03 -0.17417028819E+03  0.35660583301E+03  0.00000000000E+00 0.  1.
         -4    1    6    6    0  502  0.34054882186E+01 -0.54946820140E+00  0.77767451921E+01  0.85074691357E+01  0.00000000000E+00 0.  1.
<mgrwt>
<rscale>  0 0.25725508E+04</rscale>
<asrwt>0</asrwt>
<pdfrwt beam="1">  1        1 0.39597615E+00 0.25725508E+04</pdfrwt>
<pdfrwt beam="2">  1       -1 0.98894510E-01 0.25725508E+04</pdfrwt>
<totfact> 0.10383272E+00</totfact>
</mgrwt>
</event>
<event>
12    1  0.4403484E-008  0.5461611E+04  0.7818608E-02  0.7760994E-01
         -2   -1    0    0    0  501 -0.00000000000E+00  0.00000000000E+00  0.44149078965E+04  0.44149078965E+04  0.00000000000E+00 0. -1.
          2   -1    0    0  501    0  0.00000000000E+00 -0.00000000000E+00 -0.16891177626E+04  0.16891177626E+04  0.00000000000E+00 0.  1.
         23    2    1    2    0    0 -0.22497247924E+04  0.35903567230E+03 -0.20053905972E+03  0.22888120389E+04  0.90974609050E+02 0.  0.
        254    2    1    2    0    0  0.22497247924E+04 -0.35903567230E+03  0.29263291936E+04  0.38152136202E+04  0.89570316665E+03 0.  0.
         23    2    4    4    0    0  0.86624808844E+03 -0.48233771917E+03  0.81716790908E+03  0.12881485314E+04  0.92346203025E+02 0.  0.
         23    2    4    4    0    0  0.13834767039E+04  0.12330204688E+03  0.21091612845E+04  0.25270650888E+04  0.91024467698E+02 0.  0.
         11    1    3    3    0    0 -0.16480597077E+04  0.30335531896E+03 -0.15236046533E+03  0.16826583020E+04  0.00000000000E+00 0.  1.
        -11    1    3    3    0    0 -0.60166508467E+03  0.55680353333E+02 -0.48178594395E+02  0.60615373695E+03  0.00000000000E+00 0. -1.
          1    1    5    5  502    0  0.47544807854E+03 -0.30453387256E+03  0.42553869343E+03  0.70701834101E+03  0.00000000000E+00 0. -1.
          3    1    6    6  503    0  0.12508861518E+04  0.13591024496E+03  0.19266610235E+04  0.23011324297E+04  0.00000000000E+00 0. -1.
         -1    1    5    5    0  502  0.39080000990E+03 -0.17780384661E+03  0.39162921565E+03  0.58113019037E+03  0.00000000000E+00 0.  1.
         -3    1    6    6    0  503  0.13259055219E+03 -0.12608198083E+02  0.18250026099E+03  0.22593265911E+03  0.00000000000E+00 0.  1.
<mgrwt>
<rscale>  0 0.54616112E+04</rscale>
<asrwt>0</asrwt>
<pdfrwt beam="1">  1        2 0.25986427E+00 0.54616112E+04</pdfrwt>
<pdfrwt beam="2">  1       -2 0.67921660E+00 0.54616112E+04</pdfrwt>
<totfact> 0.19007787E-03</totfact>
</mgrwt>
</event>
<event>
12    1  0.4403484E-008  0.1592686E+04  0.7818608E-02  0.8825054E-01
         -2   -1    0    0    0  501 -0.00000000000E+00  0.00000000000E+00  0.11276444796E+04  0.11276444796E+04  0.00000000000E+00 0. -1.
          2   -1    0    0  501    0  0.00000000000E+00 -0.00000000000E+00 -0.56237763812E+03  0.56237763812E+03  0.00000000000E+00 0.  1.
         23    2    1    2    0    0  0.12755896522E+03 -0.59941967340E+01 -0.36029789811E+03  0.39275130680E+03  0.90176458193E+02 0.  0.
        254    2    1    2    0    0 -0.12755896522E+03  0.59941967340E+01  0.92556473963E+03  0.12972708109E+04  0.89996347131E+03 0.  0.
         23    2    4    4    0    0 -0.46701840972E+03  0.18295844903E+03  0.59594370613E+03  0.78416119482E+03  0.90442741512E+02 0.  0.
         23    2    4    4    0    0  0.33945944450E+03 -0.17696425230E+03  0.32962103349E+03  0.51310961612E+03  0.89902121138E+02 0.  0.
         11    1    3    3    0    0  0.55644985118E+02  0.32314271184E+02 -0.23206475586E+03  0.24082073707E+03  0.00000000000E+00 0. -1.
        -11    1    3    3    0    0  0.71913980106E+02 -0.38308467918E+02 -0.12823314225E+03  0.15193056974E+03  0.00000000000E+00 0.  1.
          2    1    5    5  502    0 -0.48642595510E+02  0.33121202423E+02  0.34829485729E+02  0.68382813806E+02  0.00000000000E+00 0.  1.
          3    1    6    6  503    0  0.22329171429E+03 -0.71841680380E+02  0.17197942986E+03  0.29085622050E+03  0.00000000000E+00 0. -1.
         -2    1    5    5    0  502 -0.41837581421E+03  0.14983724661E+03  0.56111422041E+03  0.71577838102E+03  0.00000000000E+00 0. -1.
         -3    1    6    6    0  503  0.11616773021E+03 -0.10512257192E+03  0.15764160363E+03  0.22225339562E+03  0.00000000000E+00 0.  1.
<mgrwt>
<rscale>  0 0.15926858E+04</rscale>
<asrwt>0</asrwt>
<pdfrwt beam="1">  1        2 0.86519637E-01 0.15926858E+04</pdfrwt>
<pdfrwt beam="2">  1       -2 0.17348377E+00 0.15926858E+04</pdfrwt>
<totfact> 0.10348264E+01</totfact>
</mgrwt>
</event>
<event>
12    1  0.4403484E-008  0.1876345E+04  0.7818608E-02  0.8666721E-01
          2   -1    0    0  501    0  0.00000000000E+00  0.00000000000E+00  0.20252591490E+04  0.20252591490E+04  0.00000000000E+00 0. -1.
         -2   -1    0    0    0  501 -0.00000000000E+00 -0.00000000000E+00 -0.43459508928E+03  0.43459508928E+03  0.00000000000E+00 0.  1.
         23    2    1    2    0    0  0.58248162472E+03 -0.38722083260E+03  0.40068970141E+03  0.81208783803E+03  0.98537320419E+02 0.  0.
        254    2    1    2    0    0 -0.58248162472E+03  0.38722083260E+03  0.11899743583E+04  0.16477664002E+04  0.89992795268E+03 0.  0.
         23    2    4    4    0    0 -0.70726236732E+03  0.25506813448E+03  0.12260606825E+04  0.14411551546E+04  0.91780025231E+02 0.  0.
         23    2    4    4    0    0  0.12478074260E+03  0.13215269812E+03 -0.36086324211E+02  0.20661124562E+03  0.91386074868E+02 0.  0.
         13    1    3    3    0    0  0.44651444750E+03 -0.27628916614E+03  0.34378100515E+03  0.62761153164E+03  0.00000000000E+00 0. -1.
        -13    1    3    3    0    0  0.13596717722E+03 -0.11093166646E+03  0.56908696257E+02  0.18447630638E+03  0.00000000000E+00 0.  1.
          4    1    5    5  502    0 -0.18855660711E+03  0.33182724478E+02  0.26878470708E+03  0.32999985765E+03  0.00000000000E+00 0. -1.
          3    1    6    6  503    0  0.10433992230E+02  0.42579410829E+01  0.22632040552E+02  0.25282553583E+02  0.00000000000E+00 0. -1.
         -4    1    5    5    0  502 -0.51870576022E+03  0.22188541000E+03  0.95727597544E+03  0.11111552970E+04  0.00000000000E+00 0.  1.
         -3    1    6    6    0  503  0.11434675037E+03  0.12789475703E+03 -0.58718364763E+02  0.18132869204E+03  0.00000000000E+00 0.  1.
<mgrwt>
<rscale>  0 0.18763450E+04</rscale>
<asrwt>0</asrwt>
<pdfrwt beam="1">  1        2 0.31157832E+00 0.18763450E+04</pdfrwt>
<pdfrwt beam="2">  1       -2 0.66860784E-01 0.18763450E+04</pdfrwt>
<totfact> 0.12466681E+01</totfact>
</mgrwt>
</event>
<event>
12    1  0.4403484E-008  0.1484632E+04  0.7818608E-02  0.8894737E-01
         -2   -1    0    0    0  501 -0.00000000000E+00  0.00000000000E+00  0.25239114013E+03  0.25239114013E+03  0.00000000000E+00 0.  1.
          2   -1    0    0  501    0  0.00000000000E+00 -0.00000000000E+00 -0.21832501922E+04  0.21832501922E+04  0.00000000000E+00 0. -1.
         23    2    1    2    0    0  0.39344457734E+03  0.23927789816E+03 -0.57150430869E+03  0.73956706946E+03  0.91047940024E+02 0.  0.
        254    2    1    2    0    0 -0.39344457734E+03 -0.23927789816E+03 -0.13593547434E+04  0.16960742628E+04  0.90375330640E+03 0.  0.
         23    2    4    4    0    0 -0.42431829457E+03 -0.51987142501E+03 -0.11446469194E+04  0.13301275528E+04  0.93329646989E+02 0.  0.
         23    2    4    4    0    0  0.30873717229E+02  0.28059352685E+03 -0.21470782393E+03  0.36594671002E+03  0.90175557612E+02 0.  0.
         13    1    3    3    0    0  0.89198249293E+02  0.12841925837E+02 -0.11287795481E+03  0.14443917550E+03  0.00000000000E+00 0.  1.
        -13    1    3    3    0    0  0.30424632805E+03  0.22643597232E+03 -0.45862635388E+03  0.59512789396E+03  0.00000000000E+00 0. -1.
          2    1    5    5  502    0 -0.65962128282E+02 -0.14148561028E+03 -0.27953889942E+03  0.32017366628E+03  0.00000000000E+00 0. -1.
          3    1    6    6  503    0  0.32286516611E+02  0.75177188036E+02 -0.10485066061E+03  0.13299507430E+03  0.00000000000E+00 0. -1.
         -2    1    5    5    0  502 -0.35835616629E+03 -0.37838581472E+03 -0.86510802000E+03  0.10099538866E+04  0.00000000000E+00 0.  1.
         -3    1    6    6    0  503 -0.14127993822E+01  0.20541633881E+03 -0.10985716332E+03  0.23295163572E+03  0.00000000000E+00 0.  1.
<mgrwt>
<rscale>  0 0.14846319E+04</rscale>
<asrwt>0</asrwt>
<pdfrwt beam="1">  1        2 0.33588465E+00 0.14846319E+04</pdfrwt>
<pdfrwt beam="2">  1       -2 0.38829406E-01 0.14846319E+04</pdfrwt>
<totfact> 0.32029240E+01</totfact>
</mgrwt>
</event>
<event>
12    1  0.4403484E-008  0.1734634E+04  0.7818608E-02  0.8741854E-01
         -4   -1    0    0    0  501 -0.00000000000E+00  0.00000000000E+00  0.74677028164E+03  0.74677028164E+03  0.00000000000E+00 0.  1.
          4   -1    0    0  501    0  0.00000000000E+00 -0.00000000000E+00 -0.10073230123E+04  0.10073230123E+04  0.00000000000E+00 0. -1.
         23    2    1    2    0    0 -0.95390541203E+02  0.57416422523E+03  0.13172769917E+03  0.60392925918E+03  0.92814063990E+02 0.  0.
        254    2    1    2    0    0  0.95390541203E+02 -0.57416422523E+03 -0.39228042979E+03  0.11501640347E+04  0.91116928081E+03 0.  0.
         23    2    4    4    0    0  0.52748079000E+02 -0.59329638303E+03 -0.64162173370E+03  0.88029888291E+03  0.92003892004E+02 0.  0.
         23    2    4    4    0    0  0.42642462204E+02  0.19132157802E+02  0.24934130391E+03  0.26986515181E+03  0.92041812664E+02 0.  0.
         13    1    3    3    0    0 -0.10586089290E+03  0.56411097407E+03  0.13357674733E+03  0.58929658674E+03  0.00000000000E+00 0.  1.
        -13    1    3    3    0    0  0.10470351699E+02  0.10053251157E+02 -0.18490481593E+01  0.14632672436E+02  0.00000000000E+00 0. -1.
          3    1    5    5  502    0  0.45134896047E+02 -0.10442665427E+03 -0.12289491534E+03  0.16746714657E+03  0.00000000000E+00 0. -1.
          3    1    6    6  503    0  0.41088640222E+02  0.24716779831E+02  0.46018548352E+02  0.66459779965E+02  0.00000000000E+00 0. -1.
         -3    1    5    5    0  502  0.76131829528E+01 -0.48886972876E+03 -0.51872681836E+03  0.71283173634E+03  0.00000000000E+00 0.  1.
         -3    1    6    6    0  503  0.15538219812E+01 -0.55846220289E+01  0.20332275556E+03  0.20340537184E+03  0.00000000000E+00 0.  1.
<mgrwt>
<rscale>  0 0.17346341E+04</rscale>
<asrwt>0</asrwt>
<pdfrwt beam="1">  1        4 0.15497277E+00 0.17346341E+04</pdfrwt>
<pdfrwt beam="2">  1       -4 0.11488774E+00 0.17346341E+04</pdfrwt>
<totfact> 0.30555103E-01</totfact>
</mgrwt>
</event>
<event>
12    1  0.4403484E-008  0.1468741E+04  0.7818608E-02  0.8905510E-01
         -2   -1    0    0    0  501 -0.00000000000E+00  0.00000000000E+00  0.21620504649E+03  0.21620504649E+03  0.00000000000E+00 0.  1.
          2   -1    0    0  501    0  0.00000000000E+00 -0.00000000000E+00 -0.24943917512E+04  0.24943917512E+04  0.00000000000E+00 0. -1.
         23    2    1    2    0    0 -0.33054119557E+03  0.14095941003E+03 -0.29384941285E+03  0.47330815225E+03  0.92445077266E+02 0.  0.
        254    2    1    2    0    0  0.33054119557E+03 -0.14095941003E+03 -0.19843372918E+04  0.22372886454E+04  0.96888542042E+03 0.  0.
         23    2    4    4    0    0  0.69842072477E+01  0.17316105488E+03 -0.16663160606E+04  0.16780397824E+04  0.95785006739E+02 0.  0.
         23    2    4    4    0    0  0.32355698832E+03 -0.31412046491E+03 -0.31802123126E+03  0.55924886301E+03  0.90890021900E+02 0.  0.
         11    1    3    3    0    0 -0.53985958363E+02  0.44577341720E+02 -0.10008939030E+03  0.12214544259E+03  0.00000000000E+00 0. -1.
        -11    1    3    3    0    0 -0.27655523720E+03  0.96382068314E+02 -0.19376002255E+03  0.35116270966E+03  0.00000000000E+00 0.  1.
          1    1    5    5  502    0 -0.22953089307E+02  0.16553159048E+03 -0.14041291386E+04  0.14140389633E+04  0.00000000000E+00 0. -1.
          3    1    6    6  503    0  0.30484766774E+03 -0.30962903545E+03 -0.32038968983E+03  0.53986275429E+03  0.00000000000E+00 0. -1.
         -1    1    5    5    0  502  0.29937296555E+02  0.76294643939E+01 -0.26218692197E+03  0.26400081913E+03  0.00000000000E+00 0.  1.
         -3    1    6    6    0  503  0.18709320581E+02 -0.44914294585E+01  0.23684585756E+01  0.19386108717E+02  0.00000000000E+00 0.  1.
<mgrwt>
<rscale>  0 0.14687411E+04</rscale>
<asrwt>0</asrwt>
<pdfrwt beam="1">  1        2 0.38375255E+00 0.14687411E+04</pdfrwt>
<pdfrwt beam="2">  1       -2 0.33262317E-01 0.14687411E+04</pdfrwt>
<totfact> 0.28761667E+01</totfact>
</mgrwt>
</event>
<event>
12    1  0.4403484E-008  0.1737531E+04  0.7818608E-02  0.8740244E-01
         -1   -1    0    0    0  501 -0.00000000000E+00  0.00000000000E+00  0.81839151529E+03  0.81839151529E+03  0.00000000000E+00 0.  1.
          1   -1    0    0  501    0  0.00000000000E+00 -0.00000000000E+00 -0.92223981257E+03  0.92223981257E+03  0.00000000000E+00 0. -1.
         23    2    1    2    0    0  0.25860322260E+03  0.35546068633E+03  0.41803807251E+03  0.61347550784E+03  0.91479191010E+02 0.  0.
        254    2    1    2    0    0 -0.25860322260E+03 -0.35546068633E+03 -0.52188636979E+03  0.11271558200E+04  0.89715491047E+03 0.  0.
         23    2    4    4    0    0 -0.47997059953E+03 -0.22104494163E+03  0.38696092233E+00  0.53668852921E+03  0.93817828885E+02 0.  0.
         23    2    4    4    0    0  0.22136737693E+03 -0.13441574470E+03 -0.52227333071E+03  0.59046729081E+03  0.93867361492E+02 0.  0.
         11    1    3    3    0    0  0.24068262542E+03  0.27437835905E+03  0.35570233522E+03  0.50964277820E+03  0.00000000000E+00 0.  1.
        -11    1    3    3    0    0  0.17920597180E+02  0.81082327281E+02  0.62335737291E+02  0.10383272964E+03  0.00000000000E+00 0. -1.
          4    1    5    5  502    0 -0.29342459555E+03 -0.18041280231E+03  0.18252194007E+02  0.34493465337E+03  0.00000000000E+00 0. -1.
          1    1    6    6  503    0  0.79300534522E+02 -0.84037056521E+01 -0.21426183596E+03  0.22862049644E+03  0.00000000000E+00 0. -1.
         -4    1    5    5    0  502 -0.18654600398E+03 -0.40632139321E+02 -0.17865233085E+02  0.19175387584E+03  0.00000000000E+00 0.  1.
         -1    1    6    6    0  503  0.14206684240E+03 -0.12601203905E+03 -0.30801149475E+03  0.36184679437E+03  0.00000000000E+00 0.  1.
<mgrwt>
<rscale>  0 0.17375307E+04</rscale>
<asrwt>0</asrwt>
<pdfrwt beam="1">  1        1 0.14188305E+00 0.17375307E+04</pdfrwt>
<pdfrwt beam="2">  1       -1 0.12590639E+00 0.17375307E+04</pdfrwt>
<totfact> 0.91006013E+00</totfact>
</mgrwt>
</event>
<event>
12    1  0.4403484E-008  0.1501828E+04  0.7818608E-02  0.8883238E-01
         -2   -1    0    0    0  501 -0.00000000000E+00  0.00000000000E+00  0.23499499405E+03  0.23499499405E+03  0.00000000000E+00 0.  1.
          2   -1    0    0  501    0  0.00000000000E+00 -0.00000000000E+00 -0.23995050718E+04  0.23995050718E+04  0.00000000000E+00 0. -1.
         23    2    1    2    0    0  0.90671134011E+02  0.29326425361E+03 -0.13379091690E+04  0.13755540357E+04  0.89010020454E+02 0.  0.
        254    2    1    2    0    0 -0.90671134011E+02 -0.29326425361E+03 -0.82660090877E+03  0.12589460301E+04  0.89858269926E+03 0.  0.
         23    2    4    4    0    0 -0.40384213971E+03  0.84894819405E+02 -0.23004602194E+03  0.48121210605E+03  0.91369112041E+02 0.  0.
         23    2    4    4    0    0  0.31317100570E+03 -0.37815907302E+03 -0.59655488683E+03  0.77773392408E+03  0.88949200949E+02 0.  0.
         11    1    3    3    0    0 -0.87744821823E+01  0.47637580448E+02 -0.12551075245E+03  0.13453356306E+03  0.00000000000E+00 0.  1.
        -11    1    3    3    0    0  0.99445616193E+02  0.24562667317E+03 -0.12123984165E+04  0.12410204726E+04  0.00000000000E+00 0. -1.
          2    1    5    5  502    0 -0.30327592838E+02  0.24503835321E+02 -0.46482802204E+02  0.60670023352E+02  0.00000000000E+00 0. -1.
          1    1    6    6  503    0  0.28005020134E+02 -0.21346313019E+02 -0.84591546980E+02  0.91627921796E+02  0.00000000000E+00 0. -1.
         -2    1    5    5    0  502 -0.37351454687E+03  0.60390984084E+02 -0.18356321974E+03  0.42054208270E+03  0.00000000000E+00 0.  1.
         -1    1    6    6    0  503  0.28516598556E+03 -0.35681276000E+03 -0.51196333985E+03  0.68610600228E+03  0.00000000000E+00 0.  1.
<mgrwt>
<rscale>  0 0.15018278E+04</rscale>
<asrwt>0</asrwt>
<pdfrwt beam="1">  1        2 0.36915461E+00 0.15018278E+04</pdfrwt>
<pdfrwt beam="2">  1       -2 0.36153077E-01 0.15018278E+04</pdfrwt>
<totfact> 0.27722723E+01</totfact>
</mgrwt>
</event>
<event>
12    1  0.4403484E-008  0.2356804E+04  0.7818608E-02  0.8455855E-01
         -1   -1    0    0    0  501 -0.00000000000E+00  0.00000000000E+00  0.71533531946E+03  0.71533531946E+03  0.00000000000E+00 0.  1.
          1   -1    0    0  501    0  0.00000000000E+00 -0.00000000000E+00 -0.19412315764E+04  0.19412315764E+04  0.00000000000E+00 0. -1.
         23    2    1    2    0    0  0.69755630311E+03 -0.35168641439E+03  0.19356062141E+03  0.80990558899E+03  0.90626810761E+02 0.  0.
        254    2    1    2    0    0 -0.69755630311E+03  0.35168641439E+03 -0.14194568783E+04  0.18466613068E+04  0.88602032861E+03 0.  0.
         23    2    4    4    0    0 -0.58081157687E+03  0.51289547689E+03 -0.14292994628E+04  0.16283231028E+04  0.90195980245E+02 0.  0.
         23    2    4    4    0    0 -0.11674472624E+03 -0.16120906250E+03  0.98425844539E+01  0.21833820402E+03  0.89202028733E+02 0.  0.
         13    1    3    3    0    0  0.19981618939E+03 -0.81268077486E+02  0.16131549421E+02  0.21631282174E+03  0.00000000000E+00 0. -1.
        -13    1    3    3    0    0  0.49774011372E+03 -0.27041833690E+03  0.17742907199E+03  0.59359276725E+03  0.00000000000E+00 0.  1.
          4    1    5    5  502    0 -0.18608769270E+03  0.15327789829E+03 -0.53357178981E+03  0.58550969109E+03  0.00000000000E+00 0. -1.
          3    1    6    6  503    0 -0.63272775692E+02 -0.87208121173E+02  0.49779111545E+02  0.11868723810E+03  0.00000000000E+00 0. -1.
         -4    1    5    5    0  502 -0.39472388417E+03  0.35961757860E+03 -0.89572767296E+03  0.10428134117E+04  0.00000000000E+00 0.  1.
         -3    1    6    6    0  503 -0.53471950550E+02 -0.74000941326E+02 -0.39936527091E+02  0.99650965920E+02  0.00000000000E+00 0.  1.
<mgrwt>
<rscale>  0 0.23568042E+04</rscale>
<asrwt>0</asrwt>
<pdfrwt beam="1">  1        1 0.29865101E+00 0.23568042E+04</pdfrwt>
<pdfrwt beam="2">  1       -1 0.11005159E+00 0.23568042E+04</pdfrwt>
<totfact> 0.22395566E+00</totfact>
</mgrwt>
</event>
<event>
12    1  0.4403484E-008  0.2669902E+04  0.7818608E-02  0.8344837E-01
         -1   -1    0    0    0  501 -0.00000000000E+00  0.00000000000E+00  0.12004395479E+04  0.12004395479E+04  0.00000000000E+00 0.  1.
          1   -1    0    0  501    0  0.00000000000E+00 -0.00000000000E+00 -0.14845341712E+04  0.14845341712E+04  0.00000000000E+00 0. -1.
         23    2    1    2    0    0 -0.14075540098E+03 -0.63174505294E+03  0.86635950366E+03  0.10851984316E+04  0.90349054118E+02 0.  0.
        254    2    1    2    0    0  0.14075540098E+03  0.63174505294E+03 -0.11504541270E+04  0.15997752874E+04  0.90378226199E+03 0.  0.
         23    2    4    4    0    0  0.10252263230E+02  0.33972598207E+02  0.13825347483E+03  0.16990082860E+03  0.92157592872E+02 0.  0.
         23    2    4    4    0    0  0.13050313775E+03  0.59777245474E+03 -0.12887076018E+04  0.14298744588E+04  0.97008805630E+02 0.  0.
         13    1    3    3    0    0 -0.34986317760E+01 -0.19993969548E+03  0.24703954339E+03  0.31783117886E+03  0.00000000000E+00 0.  1.
        -13    1    3    3    0    0 -0.13725676920E+03 -0.43180535746E+03  0.61931996027E+03  0.76736725276E+03  0.00000000000E+00 0. -1.
          2    1    5    5  502    0  0.35595669451E+02  0.22411734870E+02  0.16800745630E+02  0.45294619959E+02  0.00000000000E+00 0. -1.
          2    1    6    6  503    0  0.12153151729E+03  0.57642819846E+03 -0.11818042070E+04  0.13204925450E+04  0.00000000000E+00 0.  1.
         -2    1    5    5    0  502 -0.25343406220E+02  0.11560863337E+02  0.12145272920E+03  0.12460620864E+03  0.00000000000E+00 0.  1.
         -2    1    6    6    0  503  0.89716204563E+01  0.21344256279E+02 -0.10690339477E+03  0.10938191379E+03  0.00000000000E+00 0. -1.
<mgrwt>
<rscale>  0 0.26699015E+04</rscale>
<asrwt>0</asrwt>
<pdfrwt beam="1">  1        1 0.22838987E+00 0.26699015E+04</pdfrwt>
<pdfrwt beam="2">  1       -1 0.18468301E+00 0.26699015E+04</pdfrwt>
<totfact> 0.11310504E+00</totfact>
</mgrwt>
</event>
<event>
12    1  0.4403484E-008  0.1509301E+04  0.7818608E-02  0.8878291E-01
         -1   -1    0    0    0  501 -0.00000000000E+00  0.00000000000E+00  0.37177126050E+03  0.37177126050E+03  0.00000000000E+00 0.  1.
          1   -1    0    0  501    0  0.00000000000E+00 -0.00000000000E+00 -0.15318495261E+04  0.15318495261E+04  0.00000000000E+00 0. -1.
         23    2    1    2    0    0 -0.38246247240E+03  0.21293561100E+03 -0.11346894217E+03  0.46135459214E+03  0.91398805383E+02 0.  0.
        254    2    1    2    0    0  0.38246247240E+03 -0.21293561100E+03 -0.10466093234E+04  0.14422661944E+04  0.89057373784E+03 0.  0.
         23    2    4    4    0    0  0.16734620982E+03  0.34120151519E+03 -0.42625664914E+03  0.57827878350E+03  0.91040609594E+02 0.  0.
         23    2    4    4    0    0  0.21511626258E+03 -0.55413712620E+03 -0.62035267428E+03  0.86398741095E+03  0.91070548078E+02 0.  0.
         13    1    3    3    0    0 -0.19103677035E+03  0.57764384875E+02 -0.34110076774E+02  0.20247288491E+03  0.00000000000E+00 0.  1.
        -13    1    3    3    0    0 -0.19142570205E+03  0.15517122613E+03 -0.79358865393E+02  0.25888170724E+03  0.00000000000E+00 0. -1.
          1    1    5    5  502    0  0.90912307874E+01 -0.46641259010E+01 -0.83071386852E+01  0.13168640810E+02  0.00000000000E+00 0. -1.
          1    1    6    6  503    0  0.11468325915E+03 -0.20656759262E+03 -0.20155297211E+03  0.31055759661E+03  0.00000000000E+00 0. -1.
         -1    1    5    5    0  502  0.15825497903E+03  0.34586564109E+03 -0.41794951046E+03  0.56511014269E+03  0.00000000000E+00 0.  1.
         -1    1    6    6    0  503  0.10043300344E+03 -0.34756953357E+03 -0.41879970218E+03  0.55342981433E+03  0.00000000000E+00 0.  1.
<mgrwt>
<rscale>  0 0.15093013E+04</rscale>
<asrwt>0</asrwt>
<pdfrwt beam="1">  1        1 0.23566915E+00 0.15093013E+04</pdfrwt>
<pdfrwt beam="2">  1       -1 0.57195580E-01 0.15093013E+04</pdfrwt>
<totfact> 0.18602401E+01</totfact>
</mgrwt>
</event>
<event>
12    1  0.4403484E-008  0.1518388E+04  0.7818608E-02  0.8872317E-01
         -2   -1    0    0    0  501 -0.00000000000E+00  0.00000000000E+00  0.23179310802E+03  0.23179310802E+03  0.00000000000E+00 0.  1.
          2   -1    0    0  501    0  0.00000000000E+00 -0.00000000000E+00 -0.24865931590E+04  0.24865931590E+04  0.00000000000E+00 0. -1.
         23    2    1    2    0    0 -0.23322684010E+03  0.28211947410E+03 -0.15806959917E+03  0.40884188388E+03  0.90440760850E+02 0.  0.
        254    2    1    2    0    0  0.23322684010E+03 -0.28211947410E+03 -0.20967304518E+04  0.23095443831E+04  0.89651018595E+03 0.  0.
         23    2    4    4    0    0 -0.20710709140E+03 -0.29480638465E+03 -0.36208316501E+03  0.51717576773E+03  0.81008669984E+02 0.  0.
         23    2    4    4    0    0  0.44033393150E+03  0.12686910554E+02 -0.17346472868E+04  0.17923686154E+04  0.97617185576E+02 0.  0.
         13    1    3    3    0    0 -0.80462992417E+02  0.10336146366E+03 -0.10477527315E+03  0.16773712523E+03  0.00000000000E+00 0. -1.
        -13    1    3    3    0    0 -0.15276384768E+03  0.17875801044E+03 -0.53294326020E+02  0.24110475864E+03  0.00000000000E+00 0.  1.
          2    1    5    5  502    0 -0.10912880574E+03 -0.22069021486E+03 -0.25002786752E+03  0.35089485848E+03  0.00000000000E+00 0. -1.
          1    1    6    6  503    0  0.12546205315E+03  0.27868441323E+01 -0.33569566999E+03  0.35838537377E+03  0.00000000000E+00 0. -1.
         -2    1    5    5    0  502 -0.97978285661E+02 -0.74116169795E+02 -0.11205529749E+03  0.16628090925E+03  0.00000000000E+00 0.  1.
         -1    1    6    6    0  503  0.31487187835E+03  0.99000664221E+01 -0.13989516168E+04  0.14339832416E+04  0.00000000000E+00 0.  1.
<mgrwt>
<rscale>  0 0.15183875E+04</rscale>
<asrwt>0</asrwt>
<pdfrwt beam="1">  1        2 0.38255281E+00 0.15183875E+04</pdfrwt>
<pdfrwt beam="2">  1       -2 0.35660476E-01 0.15183875E+04</pdfrwt>
<totfact> 0.25337537E+01</totfact>
</mgrwt>
</event>
<event>
12    1  0.4403484E-008  0.1224178E+04  0.7818608E-02  0.9091953E-01
          2   -1    0    0  501    0  0.00000000000E+00  0.00000000000E+00  0.23266555383E+04  0.23266555383E+04  0.00000000000E+00 0. -1.
         -2   -1    0    0    0  501 -0.00000000000E+00 -0.00000000000E+00 -0.16102649261E+03  0.16102649261E+03  0.00000000000E+00 0.  1.
         23    2    1    2    0    0 -0.13298018328E+03  0.10915529346E+02  0.98468973399E+03  0.99776409668E+03  0.90091300791E+02 0.  0.
        254    2    1    2    0    0  0.13298018328E+03 -0.10915529346E+02  0.11809393117E+04  0.14899179342E+04  0.89857382272E+03 0.  0.
         23    2    4    4    0    0 -0.89530293465E+02 -0.91163328568E+02  0.12221578885E+04  0.12315842581E+04  0.82483056094E+02 0.  0.
         23    2    4    4    0    0  0.22251047675E+03  0.80247799222E+02 -0.41218576738E+02  0.25833367615E+03  0.95324160735E+02 0.  0.
         13    1    3    3    0    0 -0.47809573056E+02 -0.20122181301E+02  0.61256589801E+03  0.61475819381E+03  0.00000000000E+00 0. -1.
        -13    1    3    3    0    0 -0.85170610228E+02  0.31037710647E+02  0.37212383598E+03  0.38300590287E+03  0.00000000000E+00 0.  1.
          4    1    5    5  502    0 -0.25288445764E+01  0.13156289563E+01  0.20944284826E-02  0.28506032395E+01  0.00000000000E+00 0. -1.
          1    1    6    6  503    0  0.56324924232E+01  0.99305296382E+00  0.18886585103E+02  0.19733581072E+02  0.00000000000E+00 0. -1.
         -4    1    5    5    0  502 -0.87001448888E+02 -0.92478957524E+02  0.12221557940E+04  0.12287336548E+04  0.00000000000E+00 0.  1.
         -1    1    6    6    0  503  0.21687798432E+03  0.79254746258E+02 -0.60105161840E+02  0.23860009507E+03  0.00000000000E+00 0.  1.
<mgrwt>
<rscale>  0 0.12241784E+04</rscale>
<asrwt>0</asrwt>
<pdfrwt beam="1">  1        2 0.35794698E+00 0.12241784E+04</pdfrwt>
<pdfrwt beam="2">  1       -2 0.24773308E-01 0.12241784E+04</pdfrwt>
<totfact> 0.63159863E+01</totfact>
</mgrwt>
</event>
<event>
12    1  0.4403484E-008  0.2333589E+04  0.7818608E-02  0.8464794E-01
         -2   -1    0    0    0  501 -0.00000000000E+00  0.00000000000E+00  0.80630350968E+03  0.80630350968E+03  0.00000000000E+00 0. -1.
          2   -1    0    0  501    0  0.00000000000E+00 -0.00000000000E+00 -0.16884574785E+04  0.16884574785E+04  0.00000000000E+00 0.  1.
         23    2    1    2    0    0  0.98645676884E+03 -0.97398888927E+02 -0.36728262761E+03  0.10612737768E+04  0.93925505036E+02 0.  0.
        254    2    1    2    0    0 -0.98645676884E+03  0.97398888927E+02 -0.51487134117E+03  0.14334872113E+04  0.89844843294E+03 0.  0.
         23    2    4    4    0    0 -0.12678599172E+03  0.27888170217E+03  0.12425696423E+03  0.34333240414E+03  0.92669601684E+02 0.  0.
         23    2    4    4    0    0 -0.85967077712E+03 -0.18148281324E+03 -0.63912830540E+03  0.10901548072E+04  0.89345712134E+02 0.  0.
         13    1    3    3    0    0  0.89330818371E+03 -0.96193959183E+02 -0.35973194627E+03  0.96781189393E+03  0.00000000000E+00 0. -1.
        -13    1    3    3    0    0  0.93148585129E+02 -0.12049297440E+01 -0.75506813462E+01  0.93461882904E+02  0.00000000000E+00 0.  1.
          2    1    5    5  502    0 -0.50197127387E+02  0.17558096462E+03  0.32816747603E+02  0.18554073854E+03  0.00000000000E+00 0. -1.
          2    1    6    6  503    0 -0.44398632112E+03 -0.11894059116E+03 -0.28781780779E+03  0.54231891729E+03  0.00000000000E+00 0. -1.
         -2    1    5    5    0  502 -0.76588864332E+02  0.10330073755E+03  0.91440216625E+02  0.15779166560E+03  0.00000000000E+00 0.  1.
         -2    1    6    6    0  503 -0.41568445600E+03 -0.62542222080E+02 -0.35131049760E+03  0.54783588987E+03  0.00000000000E+00 0.  1.
<mgrwt>
<rscale>  0 0.23335888E+04</rscale>
<asrwt>0</asrwt>
<pdfrwt beam="1">  1        2 0.25976269E+00 0.23335888E+04</pdfrwt>
<pdfrwt beam="2">  1       -2 0.12404669E+00 0.23335888E+04</pdfrwt>
<totfact> 0.43990873E+00</totfact>
</mgrwt>
</event>
<event>
12    1  0.4403484E-008  0.4549938E+04  0.7818608E-02  0.7901952E-01
         -1   -1    0    0    0  501 -0.00000000000E+00  0.00000000000E+00  0.14769674733E+04  0.14769674733E+04  0.00000000000E+00 0.  1.
          1   -1    0    0  501    0  0.00000000000E+00 -0.00000000000E+00 -0.35041282577E+04  0.35041282577E+04  0.00000000000E+00 0. -1.
         23    2    1    2    0    0 -0.26165305384E+02 -0.78543173545E+02 -0.33639512116E+04  0.33662076620E+04  0.91283165581E+02 0.  0.
        254    2    1    2    0    0  0.26165305384E+02  0.78543173545E+02  0.13367904271E+04  0.16148880690E+04  0.90222013728E+03 0.  0.
         23    2    4    4    0    0  0.22813846912E+03  0.19360523614E+03  0.13296196717E+04  0.13657680606E+04  0.88903179644E+02 0.  0.
         23    2    4    4    0    0 -0.20197316373E+03 -0.11506206260E+03  0.71707553855E+01  0.24912000842E+03  0.89313614557E+02 0.  0.
         13    1    3    3    0    0 -0.46067760334E+02 -0.69613078036E+02 -0.31582568264E+04  0.31593598087E+04  0.00000000000E+00 0. -1.
        -13    1    3    3    0    0  0.19902454950E+02 -0.89300955081E+01 -0.20569438513E+03  0.20684785325E+03  0.00000000000E+00 0.  1.
          2    1    5    5  502    0  0.19636008538E+03  0.13120488453E+03  0.11242996580E+04  0.11488349428E+04  0.00000000000E+00 0. -1.
          3    1    6    6  503    0 -0.82810578102E+02 -0.98110154561E+02  0.94704986782E+01  0.12873571617E+03  0.00000000000E+00 0.  1.
         -2    1    5    5    0  502  0.31778383735E+02  0.62400351611E+02  0.20532001378E+03  0.21693311783E+03  0.00000000000E+00 0.  1.
         -3    1    6    6    0  503 -0.11916258563E+03 -0.16951908034E+02 -0.22997432927E+01  0.12038429225E+03  0.00000000000E+00 0. -1.
<mgrwt>
<rscale>  0 0.45499378E+04</rscale>
<asrwt>0</asrwt>
<pdfrwt beam="1">  1        1 0.53909665E+00 0.45499378E+04</pdfrwt>
<pdfrwt beam="2">  1       -1 0.22722577E+00 0.45499378E+04</pdfrwt>
<totfact> 0.18256066E-02</totfact>
</mgrwt>
</event>
<event>
12    1  0.4403484E-008  0.1682771E+04  0.7818608E-02  0.8771252E-01
          2   -1    0    0  501    0  0.00000000000E+00  0.00000000000E+00  0.86248963660E+03  0.86248963660E+03  0.00000000000E+00 0. -1.
         -2   -1    0    0    0  501 -0.00000000000E+00 -0.00000000000E+00 -0.82079756743E+03  0.82079756743E+03  0.00000000000E+00 0.  1.
         23    2    1    2    0    0 -0.21834938935E+03  0.36589279666E+03  0.44181924387E+03  0.62031106195E+03  0.89596734557E+02 0.  0.
        254    2    1    2    0    0  0.21834938935E+03 -0.36589279666E+03 -0.40012717471E+03  0.10629761421E+04  0.88784149948E+03 0.  0.
         23    2    4    4    0    0  0.28820875411E+03 -0.46937850366E+03 -0.59447709800E+03  0.81542869676E+03  0.90224574353E+02 0.  0.
         23    2    4    4    0    0 -0.69859364763E+02  0.10348570699E+03  0.19434992329E+03  0.24754744531E+03  0.88984395268E+02 0.  0.
         11    1    3    3    0    0 -0.78971973269E+02  0.10001602594E+03  0.18840372546E+03  0.22745492251E+03  0.00000000000E+00 0. -1.
        -11    1    3    3    0    0 -0.13937741608E+03  0.26587677073E+03  0.25341551842E+03  0.39285613944E+03  0.00000000000E+00 0.  1.
          4    1    5    5  502    0  0.20841079116E+03 -0.37215565546E+03 -0.40624745138E+03  0.58904319155E+03  0.00000000000E+00 0. -1.
          1    1    6    6  503    0 -0.19245976842E+02  0.76214999782E+02  0.52602159057E+02  0.94583936025E+02  0.00000000000E+00 0. -1.
         -4    1    5    5    0  502  0.79797962954E+02 -0.97222848198E+02 -0.18822964662E+03  0.22638550521E+03  0.00000000000E+00 0.  1.
         -1    1    6    6    0  503 -0.50613387921E+02  0.27270707209E+02  0.14174776423E+03  0.15296350929E+03  0.00000000000E+00 0.  1.
<mgrwt>
<rscale>  0 0.16827708E+04</rscale>
<asrwt>0</asrwt>
<pdfrwt beam="1">  1        2 0.13269071E+00 0.16827708E+04</pdfrwt>
<pdfrwt beam="2">  1       -2 0.12627655E+00 0.16827708E+04</pdfrwt>
<totfact> 0.13853114E+01</totfact>
</mgrwt>
</event>
<event>
12    1  0.4403484E-008  0.2322256E+04  0.7818608E-02  0.8469197E-01
         -2   -1    0    0    0  501 -0.00000000000E+00  0.00000000000E+00  0.46216361192E+03  0.46216361192E+03  0.00000000000E+00 0.  1.
          2   -1    0    0  501    0  0.00000000000E+00 -0.00000000000E+00 -0.29171887097E+04  0.29171887097E+04  0.00000000000E+00 0. -1.
         23    2    1    2    0    0 -0.50954650207E+02 -0.53556832570E+03  0.15551335916E+03  0.56741547294E+03  0.91357025959E+02 0.  0.
        254    2    1    2    0    0  0.50954650207E+02  0.53556832570E+03 -0.26105384569E+04  0.28119368487E+04  0.89590624395E+03 0.  0.
         23    2    4    4    0    0  0.19188097340E+03  0.41998232940E+03 -0.25582667651E+04  0.26011455230E+04  0.89586411737E+02 0.  0.
         23    2    4    4    0    0 -0.14092632320E+03  0.11558599629E+03 -0.52271691817E+02  0.21079132571E+03  0.92088555870E+02 0.  0.
         13    1    3    3    0    0 -0.67792050646E+02 -0.23993296212E+03  0.62575898571E+02  0.25705900398E+03  0.00000000000E+00 0. -1.
        -13    1    3    3    0    0  0.16837400439E+02 -0.29563536357E+03  0.92937460584E+02  0.31035646896E+03  0.00000000000E+00 0.  1.
          4    1    5    5  502    0  0.13634484638E+03  0.35014653633E+03 -0.22048471890E+04  0.22366366806E+04  0.00000000000E+00 0. -1.
          3    1    6    6  503    0 -0.91279519520E+02  0.12385550739E+03 -0.40625538803E+02  0.15913067522E+03  0.00000000000E+00 0. -1.
         -4    1    5    5    0  502  0.55536127025E+02  0.69835793069E+02 -0.35341957609E+03  0.36450884236E+03  0.00000000000E+00 0.  1.
         -3    1    6    6    0  503 -0.49646803676E+02 -0.82695110954E+01 -0.11646153015E+02  0.51660650490E+02  0.00000000000E+00 0.  1.
<mgrwt>
<rscale>  0 0.23222562E+04</rscale>
<asrwt>0</asrwt>
<pdfrwt beam="1">  1        2 0.44879825E+00 0.23222562E+04</pdfrwt>
<pdfrwt beam="2">  1       -2 0.71102097E-01 0.23222562E+04</pdfrwt>
<totfact> 0.31890174E+00</totfact>
</mgrwt>
</event>
<event>
12    1  0.4403484E-008  0.1239013E+04  0.7818608E-02  0.9079378E-01
         -2   -1    0    0    0  501 -0.00000000000E+00  0.00000000000E+00  0.20657642057E+03  0.20657642057E+03  0.00000000000E+00 0.  1.
          2   -1    0    0  501    0  0.00000000000E+00 -0.00000000000E+00 -0.18578509095E+04  0.18578509095E+04  0.00000000000E+00 0. -1.
         23    2    1    2    0    0  0.82416094523E+02 -0.22802109656E+03 -0.61660988328E+03  0.66926876929E+03  0.94482296069E+02 0.  0.
        254    2    1    2    0    0 -0.82416094523E+02  0.22802109656E+03 -0.10346646057E+04  0.13951585608E+04  0.90396378824E+03 0.  0.
         23    2    4    4    0    0 -0.41570999568E+03 -0.10576535601E+03 -0.61408590997E+03  0.75497553118E+03  0.94262594988E+02 0.  0.
         23    2    4    4    0    0  0.33329390115E+03  0.33378645257E+03 -0.42057869569E+03  0.64018302962E+03  0.10222353779E+03 0.  0.
         13    1    3    3    0    0  0.47874694087E+02 -0.72773112845E+02 -0.12338696410E+03  0.15103726427E+03  0.00000000000E+00 0. -1.
        -13    1    3    3    0    0  0.34541400435E+02 -0.15524798372E+03 -0.49322291918E+03  0.51823150502E+03  0.00000000000E+00 0.  1.
          4    1    5    5  502    0 -0.35740429933E+03 -0.88963567863E+02 -0.45939175853E+03  0.58880653647E+03  0.00000000000E+00 0. -1.
          1    1    6    6  503    0  0.19191733912E+03  0.18619292144E+03 -0.17014862571E+03  0.31693946407E+03  0.00000000000E+00 0. -1.
         -4    1    5    5    0  502 -0.58305696347E+02 -0.16801788144E+02 -0.15469415144E+03  0.16616899470E+03  0.00000000000E+00 0.  1.
         -1    1    6    6    0  503  0.14137656203E+03  0.14759353113E+03 -0.25043006997E+03  0.32324356555E+03  0.00000000000E+00 0.  1.
<mgrwt>
<rscale>  0 0.12390128E+04</rscale>
<asrwt>0</asrwt>
<pdfrwt beam="1">  1        2 0.28582323E+00 0.12390128E+04</pdfrwt>
<pdfrwt beam="2">  1       -2 0.31780987E-01 0.12390128E+04</pdfrwt>
<totfact> 0.72611846E+01</totfact>
</mgrwt>
</event>
<event>
12    1  0.4403484E-008  0.1719673E+04  0.7818608E-02  0.8750223E-01
          2   -1    0    0  501    0  0.00000000000E+00  0.00000000000E+00  0.16115312781E+04  0.16115312781E+04  0.00000000000E+00 0. -1.
         -2   -1    0    0    0  501 -0.00000000000E+00 -0.00000000000E+00 -0.45876809158E+03  0.45876809158E+03  0.00000000000E+00 0.  1.
         23    2    1    2    0    0  0.51857092807E+03  0.31512893993E+02  0.81416115097E+03  0.96996329802E+03  0.89786133876E+02 0.  0.
        254    2    1    2    0    0 -0.51857092807E+03 -0.31512893993E+02  0.33860203559E+03  0.11003360717E+04  0.90894403692E+03 0.  0.
         23    2    4    4    0    0 -0.20024812225E+03  0.42590678992E+03  0.19865391863E+03  0.51857239432E+03  0.89207872984E+02 0.  0.
         23    2    4    4    0    0 -0.31832280582E+03 -0.45741968391E+03  0.13994811696E+03  0.58176367738E+03  0.91111607079E+02 0.  0.
         13    1    3    3    0    0  0.19633570033E+03 -0.14254905393E+02  0.37271931285E+03  0.42150989991E+03  0.00000000000E+00 0. -1.
        -13    1    3    3    0    0  0.32223522774E+03  0.45767799385E+02  0.44144183811E+03  0.54845339811E+03  0.00000000000E+00 0.  1.
          4    1    5    5  502    0 -0.19101305917E+03  0.40458702550E+03  0.16332763255E+03  0.47629042141E+03  0.00000000000E+00 0. -1.
          4    1    6    6  503    0 -0.31483321956E+03 -0.45631552148E+03  0.12759516588E+03  0.56887989738E+03  0.00000000000E+00 0. -1.
         -4    1    5    5    0  502 -0.92350630851E+01  0.21319764418E+02  0.35326286077E+02  0.42281972909E+02  0.00000000000E+00 0.  1.
         -4    1    6    6    0  503 -0.34895862543E+01 -0.11041624344E+01  0.12352951076E+02  0.12883780004E+02  0.00000000000E+00 0.  1.
<mgrwt>
<rscale>  0 0.17196734E+04</rscale>
<asrwt>0</asrwt>
<pdfrwt beam="1">  1        2 0.24792789E+00 0.17196734E+04</pdfrwt>
<pdfrwt beam="2">  1       -2 0.70579707E-01 0.17196734E+04</pdfrwt>
<totfact> 0.19056349E+01</totfact>
</mgrwt>
</event>
<event>
12    1  0.4403484E-008  0.1769004E+04  0.7818608E-02  0.8722958E-01
          2   -1    0    0  501    0  0.00000000000E+00  0.00000000000E+00  0.91714710495E+03  0.91714710495E+03  0.00000000000E+00 0.  1.
         -2   -1    0    0    0  501 -0.00000000000E+00 -0.00000000000E+00 -0.85301919264E+03  0.85301919264E+03  0.00000000000E+00 0. -1.
         23    2    1    2    0    0  0.97453766980E+02  0.23726917143E+03 -0.57577011690E+03  0.63728281615E+03  0.93937552881E+02 0.  0.
        254    2    1    2    0    0 -0.97453766980E+02 -0.23726917143E+03  0.63989802920E+03  0.11328834814E+04  0.89897808558E+03 0.  0.
         23    2    4    4    0    0  0.47011652254E+02 -0.31293049767E+01  0.79693499970E+03  0.80366091396E+03  0.92442321883E+02 0.  0.
         23    2    4    4    0    0 -0.14446541923E+03 -0.23413986645E+03 -0.15703697050E+03  0.32922256749E+03  0.89639022892E+02 0.  0.
         11    1    3    3    0    0  0.58743989991E+02  0.18966678336E+03 -0.51024550923E+03  0.54751696299E+03  0.00000000000E+00 0. -1.
        -11    1    3    3    0    0  0.38709776989E+02  0.47602388061E+02 -0.65524607664E+02  0.89765853158E+02  0.00000000000E+00 0.  1.
          1    1    5    5  502    0  0.99067383856E+01  0.21282138536E+02  0.48229231640E+02  0.53638900723E+02  0.00000000000E+00 0. -1.
          3    1    6    6  503    0 -0.36508727236E+01 -0.94996893656E+01  0.11270470617E+02  0.15185403439E+02  0.00000000000E+00 0. -1.
         -1    1    5    5    0  502  0.37104913869E+02 -0.24411443513E+02  0.74870576806E+03  0.75002201324E+03  0.00000000000E+00 0.  1.
         -3    1    6    6    0  503 -0.14081454651E+03 -0.22464017708E+03 -0.16830744112E+03  0.31403716405E+03  0.00000000000E+00 0.  1.
<mgrwt>
<rscale>  0 0.17690043E+04</rscale>
<asrwt>0</asrwt>
<pdfrwt beam="1">  1        2 0.14109956E+00 0.17690043E+04</pdfrwt>
<pdfrwt beam="2">  1       -2 0.13123372E+00 0.17690043E+04</pdfrwt>
<totfact> 0.11456281E+01</totfact>
</mgrwt>
</event>
<event>
12    1  0.4403484E-008  0.2138726E+04  0.7818608E-02  0.8544373E-01
         -1   -1    0    0    0  501 -0.00000000000E+00  0.00000000000E+00  0.86446310997E+03  0.86446310997E+03  0.00000000000E+00 0.  1.
          1   -1    0    0  501    0  0.00000000000E+00 -0.00000000000E+00 -0.13228295236E+04  0.13228295236E+04  0.00000000000E+00 0. -1.
         23    2    1    2    0    0  0.78348381108E+02  0.83428299007E+03 -0.44140720756E+03  0.95180859693E+03  0.94512993643E+02 0.  0.
        254    2    1    2    0    0 -0.78348381108E+02 -0.83428299007E+03 -0.16959206041E+02  0.12354840366E+04  0.90772606755E+03 0.  0.
         23    2    4    4    0    0  0.28081372346E+03 -0.36223118616E+03  0.30058841394E+03  0.55607498063E+03  0.93798773881E+02 0.  0.
         23    2    4    4    0    0 -0.35916210457E+03 -0.47205180391E+03 -0.31754761998E+03  0.67940905597E+03  0.94497891281E+02 0.  0.
         11    1    3    3    0    0  0.69975950578E+02  0.64082005177E+03 -0.38173654978E+03  0.74917939497E+03  0.00000000000E+00 0.  1.
        -11    1    3    3    0    0  0.83724305295E+01  0.19346293830E+03 -0.59670657785E+02  0.20262920197E+03  0.00000000000E+00 0. -1.
          2    1    5    5  502    0  0.23873639310E+03 -0.34880682273E+03  0.28221576991E+03  0.50823912262E+03  0.00000000000E+00 0. -1.
          2    1    6    6  503    0 -0.13055325517E+03 -0.10270350530E+03 -0.81063817036E+02  0.18483372222E+03  0.00000000000E+00 0. -1.
         -2    1    5    5    0  502  0.42077330357E+02 -0.13424363435E+02  0.18372644026E+02  0.47835858016E+02  0.00000000000E+00 0.  1.
         -2    1    6    6    0  503 -0.22860884940E+03 -0.36934829860E+03 -0.23648380294E+03  0.49457533375E+03  0.00000000000E+00 0.  1.
<mgrwt>
<rscale>  0 0.21387261E+04</rscale>
<asrwt>0</asrwt>
<pdfrwt beam="1">  1        1 0.20351224E+00 0.21387261E+04</pdfrwt>
<pdfrwt beam="2">  1       -1 0.13299432E+00 0.21387261E+04</pdfrwt>
<totfact> 0.38224747E+00</totfact>
</mgrwt>
</event>
<event>
12    1  0.4403484E-008  0.1169506E+04  0.7818608E-02  0.9139975E-01
          2   -1    0    0  501    0  0.00000000000E+00  0.00000000000E+00  0.19936945030E+03  0.19936945030E+03  0.00000000000E+00 0. -1.
         -2   -1    0    0    0  501 -0.00000000000E+00 -0.00000000000E+00 -0.17150873443E+04  0.17150873443E+04  0.00000000000E+00 0.  1.
         23    2    1    2    0    0  0.82814939623E+02  0.11537241558E+03 -0.58421946769E+03  0.60805288288E+03  0.90811967538E+02 0.  0.
        254    2    1    2    0    0 -0.82814939623E+02 -0.11537241558E+03 -0.93149842627E+03  0.13064039117E+04  0.90489378040E+03 0.  0.
         23    2    4    4    0    0 -0.44761631587E+03 -0.24074321727E+03 -0.52539992945E+03  0.73735320754E+03  0.96576414861E+02 0.  0.
         23    2    4    4    0    0  0.36480137624E+03  0.12537080170E+03 -0.40609849681E+03  0.56905070414E+03  0.10052279712E+03 0.  0.
         13    1    3    3    0    0  0.84767437055E+02  0.63283401803E+02 -0.27834636128E+03  0.29777005250E+03  0.00000000000E+00 0. -1.
        -13    1    3    3    0    0 -0.19524974323E+01  0.52089013773E+02 -0.30587310641E+03  0.31028283038E+03  0.00000000000E+00 0.  1.
          3    1    5    5  502    0 -0.34668175863E+03 -0.19469480847E+03 -0.46212789329E+03  0.60963636700E+03  0.00000000000E+00 0. -1.
          3    1    6    6  503    0  0.27073679063E+03  0.87529350386E+02 -0.23008084873E+03  0.36591938174E+03  0.00000000000E+00 0. -1.
         -3    1    5    5    0  502 -0.10093455723E+03 -0.46048408798E+02 -0.63272036165E+02  0.12771684054E+03  0.00000000000E+00 0.  1.
         -3    1    6    6    0  503  0.94064585613E+02  0.37841451309E+02 -0.17601764808E+03  0.20313132240E+03  0.00000000000E+00 0.  1.
<mgrwt>
<rscale>  0 0.11695059E+04</rscale>
<asrwt>0</asrwt>
<pdfrwt beam="1">  1        2 0.30672224E-01 0.11695059E+04</pdfrwt>
<pdfrwt beam="2">  1       -2 0.26385958E+00 0.11695059E+04</pdfrwt>
<totfact> 0.91156387E+00</totfact>
</mgrwt>
</event>
<event>
12    1  0.4403484E-008  0.1739047E+04  0.7818608E-02  0.8739403E-01
          1   -1    0    0  501    0  0.00000000000E+00  0.00000000000E+00  0.19713958509E+04  0.19713958509E+04  0.00000000000E+00 0. -1.
         -1   -1    0    0    0  501 -0.00000000000E+00 -0.00000000000E+00 -0.38352055190E+03  0.38352055190E+03  0.00000000000E+00 0.  1.
         23    2    1    2    0    0  0.32914840342E+02  0.60168466722E+03  0.86869550932E+03  0.10606850784E+04  0.85516795106E+02 0.  0.
        254    2    1    2    0    0 -0.32914840342E+02 -0.60168466722E+03  0.71917978974E+03  0.12942313244E+04  0.89146358626E+03 0.  0.
         23    2    4    4    0    0  0.13745966253E+01 -0.79939356873E+03  0.70982144760E+03  0.10729288010E+04  0.91092026285E+02 0.  0.
         23    2    4    4    0    0 -0.34289436967E+02  0.19770890152E+03  0.93583421352E+01  0.22130252342E+03  0.92858241852E+02 0.  0.
         13    1    3    3    0    0  0.37188916649E+02  0.10136311667E+03  0.14148412676E+03  0.17797543389E+03  0.00000000000E+00 0.  1.
        -13    1    3    3    0    0 -0.42740763068E+01  0.50032155054E+03  0.72721138255E+03  0.88270964455E+03  0.00000000000E+00 0. -1.
          2    1    5    5  502    0 -0.36269168091E+02 -0.56749867139E+03  0.47784464681E+03  0.74276894191E+03  0.00000000000E+00 0. -1.
          4    1    6    6  503    0  0.17372455927E+02  0.14210016141E+03  0.20386463580E+02  0.14460244118E+03  0.00000000000E+00 0. -1.
         -2    1    5    5    0  502  0.37643764716E+02 -0.23189489735E+03  0.23197680079E+03  0.33015985908E+03  0.00000000000E+00 0.  1.
         -4    1    6    6    0  503 -0.51661892894E+02  0.55608740104E+02 -0.11028121445E+02  0.76700082242E+02  0.00000000000E+00 0.  1.
<mgrwt>
<rscale>  0 0.17390467E+04</rscale>
<asrwt>0</asrwt>
<pdfrwt beam="1">  1        1 0.30329166E+00 0.17390467E+04</pdfrwt>
<pdfrwt beam="2">  1       -1 0.59003163E-01 0.17390467E+04</pdfrwt>
<totfact> 0.86070162E+00</totfact>
</mgrwt>
</event>
<event>
12    1  0.4403484E-008  0.1487655E+04  0.7818608E-02  0.8892704E-01
         -1   -1    0    0    0  501 -0.00000000000E+00  0.00000000000E+00  0.61878544765E+03  0.61878544765E+03  0.00000000000E+00 0.  1.
          1   -1    0    0  501    0  0.00000000000E+00 -0.00000000000E+00 -0.89413737799E+03  0.89413737799E+03  0.00000000000E+00 0. -1.
         23    2    1    2    0    0 -0.44977521947E+03 -0.10424784816E+03 -0.42346335220E+02  0.47264605354E+03  0.91846164448E+02 0.  0.
        254    2    1    2    0    0  0.44977521947E+03  0.10424784816E+03 -0.23300559511E+03  0.10402767721E+04  0.90261774485E+03 0.  0.
         23    2    4    4    0    0 -0.15924785484E+03 -0.18512636489E+02  0.20430117622E+03  0.27527142181E+03  0.91284106407E+02 0.  0.
         23    2    4    4    0    0  0.60902307431E+03  0.12276048464E+03 -0.43730677133E+03  0.76500535029E+03  0.89536205415E+02 0.  0.
         11    1    3    3    0    0 -0.72658636861E+02 -0.49830305459E+02  0.72843123447E+01  0.88404740025E+02  0.00000000000E+00 0.  1.
        -11    1    3    3    0    0 -0.37711658261E+03 -0.54417542697E+02 -0.49630647564E+02  0.38424131352E+03  0.00000000000E+00 0. -1.
          2    1    5    5  502    0 -0.57727841360E+02  0.27973879198E+02  0.11739925472E+03  0.13378201148E+03  0.00000000000E+00 0. -1.
          3    1    6    6  503    0  0.24224469643E+03  0.46335906316E+02 -0.22784450309E+03  0.33577168843E+03  0.00000000000E+00 0. -1.
         -2    1    5    5    0  502 -0.10152001348E+03 -0.46486515687E+02  0.86901921494E+02  0.14148941034E+03  0.00000000000E+00 0.  1.
         -3    1    6    6    0  503  0.36677837788E+03  0.76424578328E+02 -0.20946226824E+03  0.42923366186E+03  0.00000000000E+00 0.  1.
<mgrwt>
<rscale>  0 0.14876548E+04</rscale>
<asrwt>0</asrwt>
<pdfrwt beam="1">  1        1 0.13755960E+00 0.14876548E+04</pdfrwt>
<pdfrwt beam="2">  1       -1 0.95197761E-01 0.14876548E+04</pdfrwt>
<totfact> 0.18994696E+01</totfact>
</mgrwt>
</event>
<event>
12    1  0.4403484E-008  0.1252046E+04  0.7818608E-02  0.9068482E-01
          2   -1    0    0  501    0  0.00000000000E+00  0.00000000000E+00  0.15855595969E+04  0.15855595969E+04  0.00000000000E+00 0. -1.
         -2   -1    0    0    0  501 -0.00000000000E+00 -0.00000000000E+00 -0.24717139108E+03  0.24717139108E+03  0.00000000000E+00 0.  1.
         23    2    1    2    0    0  0.25233775012E+03  0.50900562135E+02  0.45963601637E+03  0.53472224288E+03  0.91637340252E+02 0.  0.
        254    2    1    2    0    0 -0.25233775012E+03 -0.50900562135E+02  0.87875218948E+03  0.12980087451E+04  0.91997613259E+03 0.  0.
         23    2    4    4    0    0 -0.47316634979E+03  0.33836899493E+02  0.11908770273E+03  0.49694159059E+03  0.87964385874E+02 0.  0.
         23    2    4    4    0    0  0.22082859967E+03 -0.84737461628E+02  0.75966448676E+03  0.80106715454E+03  0.93127578092E+02 0.  0.
         13    1    3    3    0    0  0.22835499082E+03  0.40408513029E+02  0.45104868328E+03  0.50717232224E+03  0.00000000000E+00 0. -1.
        -13    1    3    3    0    0  0.23982759298E+02  0.10492049106E+02  0.85873330953E+01  0.27549920647E+02  0.00000000000E+00 0.  1.
          1    1    5    5  502    0 -0.33866164277E+03 -0.43628913699E+01  0.54985656574E+02  0.34312412555E+03  0.00000000000E+00 0. -1.
          1    1    6    6  503    0  0.22880082989E+03 -0.87873867672E+02  0.74206108079E+03  0.78148978496E+03  0.00000000000E+00 0. -1.
         -1    1    5    5    0  502 -0.13450470702E+03  0.38199790863E+02  0.64102046152E+02  0.15381746505E+03  0.00000000000E+00 0.  1.
         -1    1    6    6    0  503 -0.79722302280E+01  0.31364060443E+01  0.17603405971E+02  0.19577369575E+02  0.00000000000E+00 0.  1.
<mgrwt>
<rscale>  0 0.12520463E+04</rscale>
<asrwt>0</asrwt>
<pdfrwt beam="1">  1        2 0.24393224E+00 0.12520463E+04</pdfrwt>
<pdfrwt beam="2">  1       -2 0.38026369E-01 0.12520463E+04</pdfrwt>
<totfact> 0.72907972E+01</totfact>
</mgrwt>
</event>
<event>
12    1  0.4403484E-008  0.1275736E+04  0.7818608E-02  0.9049031E-01
         -2   -1    0    0    0  501 -0.00000000000E+00  0.00000000000E+00  0.20344698596E+03  0.20344698596E+03  0.00000000000E+00 0.  1.
          2   -1    0    0  501    0  0.00000000000E+00 -0.00000000000E+00 -0.19999099852E+04  0.19999099852E+04  0.00000000000E+00 0. -1.
         23    2    1    2    0    0 -0.23842940849E+03 -0.28906573970E+02 -0.81294574042E+03  0.85230818825E+03  0.88680877544E+02 0.  0.
        254    2    1    2    0    0  0.23842940849E+03  0.28906573970E+02 -0.98351725877E+03  0.13510487829E+04  0.89461860170E+03 0.  0.
         23    2    4    4    0    0  0.15573311767E+02 -0.13237896575E+02  0.15809635709E+03  0.18361403647E+03  0.91114687717E+02 0.  0.
         23    2    4    4    0    0  0.22285609672E+03  0.42144470544E+02 -0.11416136159E+04  0.11674347464E+04  0.90450223348E+02 0.  0.
         11    1    3    3    0    0 -0.20351757715E+03 -0.48768699391E+02 -0.74012833906E+03  0.76914741664E+03  0.00000000000E+00 0. -1.
        -11    1    3    3    0    0 -0.34911831337E+02  0.19862125421E+02 -0.72817401363E+02  0.83160771611E+02  0.00000000000E+00 0.  1.
          1    1    5    5  502    0  0.13309182846E+02  0.12603962542E+02  0.15655820708E+03  0.15762761948E+03  0.00000000000E+00 0. -1.
          3    1    6    6  503    0  0.17538824340E+03  0.46010265973E+02 -0.69406073340E+03  0.71735506002E+03  0.00000000000E+00 0. -1.
         -1    1    5    5    0  502  0.22641289208E+01 -0.25841859117E+02  0.15381500134E+01  0.25986416988E+02  0.00000000000E+00 0.  1.
         -3    1    6    6    0  503  0.47467853322E+02 -0.38657954282E+01 -0.44755288247E+03  0.45007968636E+03  0.00000000000E+00 0.  1.
<mgrwt>
<rscale>  0 0.12757361E+04</rscale>
<asrwt>0</asrwt>
<pdfrwt beam="1">  1        2 0.30767846E+00 0.12757361E+04</pdfrwt>
<pdfrwt beam="2">  1       -2 0.31299537E-01 0.12757361E+04</pdfrwt>
<totfact> 0.62192922E+01</totfact>
</mgrwt>
</event>
<event>
12    1  0.4403484E-008  0.1533818E+04  0.7818608E-02  0.8862271E-01
          2   -1    0    0  501    0  0.00000000000E+00  0.00000000000E+00  0.30060266322E+04  0.30060266322E+04  0.00000000000E+00 0. -1.
         -2   -1    0    0    0  501 -0.00000000000E+00 -0.00000000000E+00 -0.19565667877E+03  0.19565667877E+03  0.00000000000E+00 0.  1.
         23    2    1    2    0    0  0.48907737074E+03  0.92851163029E+02  0.97830108869E+03  0.11015568761E+04  0.92393279855E+02 0.  0.
        254    2    1    2    0    0 -0.48907737074E+03 -0.92851163029E+02  0.18320688648E+04  0.21001264349E+04  0.89790684601E+03 0.  0.
         23    2    4    4    0    0 -0.57318259067E+03  0.22756063244E+02  0.52996078257E+03  0.78633729273E+03  0.91715790409E+02 0.  0.
         23    2    4    4    0    0  0.84105219924E+02 -0.11560722627E+03  0.13021080822E+04  0.13137891422E+04  0.10058694489E+03 0.  0.
         13    1    3    3    0    0  0.46742917418E+03  0.67104729121E+02  0.92415057290E+03  0.10378089222E+04  0.00000000000E+00 0. -1.
        -13    1    3    3    0    0  0.21648196564E+02  0.25746433907E+02  0.54150515788E+02  0.63747953956E+02  0.00000000000E+00 0.  1.
          2    1    5    5  502    0 -0.11294739971E+03 -0.19297341537E+02  0.14532158408E+03  0.18506178777E+03  0.00000000000E+00 0. -1.
          3    1    6    6  503    0  0.33553289113E+02  0.78528783277E+01  0.44816381784E+03  0.44948670562E+03  0.00000000000E+00 0. -1.
         -2    1    5    5    0  502 -0.46023519096E+03  0.42053404781E+02  0.38463919849E+03  0.60127550496E+03  0.00000000000E+00 0.  1.
         -3    1    6    6    0  503  0.50551930811E+02 -0.12346010460E+03  0.85394426437E+03  0.86430243653E+03  0.00000000000E+00 0.  1.
<mgrwt>
<rscale>  0 0.15338177E+04</rscale>
<asrwt>0</asrwt>
<pdfrwt beam="1">  1        2 0.46246560E+00 0.15338177E+04</pdfrwt>
<pdfrwt beam="2">  1       -2 0.30101030E-01 0.15338177E+04</pdfrwt>
<totfact> 0.17068326E+01</totfact>
</mgrwt>
</event>
<event>
12    1  0.4403484E-008  0.2517587E+04  0.7818608E-02  0.8396747E-01
         -1   -1    0    0    0  501 -0.00000000000E+00  0.00000000000E+00  0.84449163211E+03  0.84449163211E+03  0.00000000000E+00 0.  1.
          1   -1    0    0  501    0  0.00000000000E+00 -0.00000000000E+00 -0.18763494357E+04  0.18763494357E+04  0.00000000000E+00 0. -1.
         23    2    1    2    0    0 -0.49477930551E+03 -0.19893297835E+03 -0.14851417933E+04  0.15804034667E+04  0.87453302206E+02 0.  0.
        254    2    1    2    0    0  0.49477930551E+03  0.19893297835E+03  0.45328398975E+03  0.11404376011E+04  0.90041693438E+03 0.  0.
         23    2    4    4    0    0 -0.92814406344E+02  0.39822850088E+03  0.15565226718E+03  0.44686288475E+03  0.90875500293E+02 0.  0.
         23    2    4    4    0    0  0.58759371185E+03 -0.19929552253E+03  0.29763172257E+03  0.69357471640E+03  0.86464845060E+02 0.  0.
         11    1    3    3    0    0 -0.31721236420E+03 -0.13376474561E+03 -0.10742868003E+04  0.11280996500E+04  0.00000000000E+00 0. -1.
        -11    1    3    3    0    0 -0.17756694130E+03 -0.65168232733E+02 -0.41085499307E+03  0.45230381662E+03  0.00000000000E+00 0.  1.
          4    1    5    5  502    0 -0.83067340613E+02  0.38401816919E+03  0.12607473208E+03  0.41263176734E+03  0.00000000000E+00 0. -1.
          1    1    6    6  503    0  0.20878163032E+03 -0.10062658441E+03  0.76967199025E+02  0.24421185142E+03  0.00000000000E+00 0. -1.
         -4    1    5    5    0  502 -0.97470657312E+01  0.14210331685E+02  0.29577535096E+02  0.34231117412E+02  0.00000000000E+00 0.  1.
         -1    1    6    6    0  503  0.37881208154E+03 -0.98668938126E+02  0.22066452355E+03  0.44936286498E+03  0.00000000000E+00 0.  1.
<mgrwt>
<rscale>  0 0.25175873E+04</rscale>
<asrwt>0</asrwt>
<pdfrwt beam="1">  1        1 0.28866915E+00 0.25175873E+04</pdfrwt>
<pdfrwt beam="2">  1       -1 0.12992179E+00 0.25175873E+04</pdfrwt>
<totfact> 0.16287017E+00</totfact>
</mgrwt>
</event>
<event>
12    1  0.4403484E-008  0.1674172E+04  0.7818608E-02  0.8776234E-01
         -1   -1    0    0    0  501 -0.00000000000E+00  0.00000000000E+00  0.64146667086E+03  0.64146667086E+03  0.00000000000E+00 0.  1.
          1   -1    0    0  501    0  0.00000000000E+00 -0.00000000000E+00 -0.10923604980E+04  0.10923604980E+04  0.00000000000E+00 0. -1.
         23    2    1    2    0    0 -0.26499714472E+03  0.20536278229E+03  0.33529792657E+03  0.48054454239E+03  0.78108889389E+02 0.  0.
        254    2    1    2    0    0  0.26499714472E+03 -0.20536278229E+03 -0.78619175372E+03  0.12532826265E+04  0.91663651965E+03 0.  0.
         23    2    4    4    0    0  0.33853048861E+03 -0.37317462120E+03 -0.88759892214E+03  0.10245952710E+04  0.90007960996E+02 0.  0.
         23    2    4    4    0    0 -0.73533343894E+02  0.16781183891E+03  0.10140716842E+03  0.22868735553E+03  0.91904988068E+02 0.  0.
         11    1    3    3    0    0 -0.13022696193E+01 -0.28330764982E+01 -0.25861247409E+01  0.40509591188E+01  0.00000000000E+00 0. -1.
        -11    1    3    3    0    0 -0.26369487510E+03  0.20819585879E+03  0.33788405131E+03  0.47649358327E+03  0.00000000000E+00 0.  1.
          4    1    6    6  502    0 -0.84772721679E+02  0.99629213828E+02  0.41520607145E+02  0.13724560250E+03  0.00000000000E+00 0. -1.
          4    1    5    5  503    0  0.25743878053E+03 -0.29207997789E+03 -0.60313598815E+03  0.71788471178E+03  0.00000000000E+00 0. -1.
         -4    1    5    5    0  503  0.81091708085E+02 -0.81094643309E+02 -0.28446293399E+03  0.30671055917E+03  0.00000000000E+00 0.  1.
         -4    1    6    6    0  502  0.11239377785E+02  0.68182625081E+02  0.59886561274E+02  0.91441753029E+02  0.00000000000E+00 0.  1.
<mgrwt>
<rscale>  0 0.16741719E+04</rscale>
<asrwt>0</asrwt>
<pdfrwt beam="1">  1        1 0.16805546E+00 0.16741719E+04</pdfrwt>
<pdfrwt beam="2">  1       -1 0.98687180E-01 0.16741719E+04</pdfrwt>
<totfact> 0.12038537E+01</totfact>
</mgrwt>
</event>
<event>
12    1  0.4403484E-008  0.4291344E+04  0.7818608E-02  0.7948221E-01
         -2   -1    0    0    0  501 -0.00000000000E+00  0.00000000000E+00  0.22522238069E+04  0.22522238069E+04  0.00000000000E+00 0.  1.
          2   -1    0    0  501    0  0.00000000000E+00 -0.00000000000E+00 -0.20441608340E+04  0.20441608340E+04  0.00000000000E+00 0. -1.
         23    2    1    2    0    0 -0.12007148610E+04 -0.16612101929E+04  0.16748365634E+03  0.20586684931E+04  0.93432900345E+02 0.  0.
        254    2    1    2    0    0  0.12007148610E+04  0.16612101929E+04  0.40579316505E+02  0.22377161478E+04  0.89687869579E+03 0.  0.
         23    2    4    4    0    0 -0.82247932459E+02 -0.15240756676E+02  0.21377277140E+02  0.12460894050E+03  0.89852084093E+02 0.  0.
         23    2    4    4    0    0  0.12829627934E+04  0.16764509496E+04  0.19202039364E+02  0.21131072073E+04  0.91498828922E+02 0.  0.
         13    1    3    3    0    0 -0.59578490624E+03 -0.84796794989E+03  0.12942400515E+03  0.10443945000E+04  0.00000000000E+00 0.  1.
        -13    1    3    3    0    0 -0.60492995475E+03 -0.81324224300E+03  0.38059651189E+02  0.10142739931E+04  0.00000000000E+00 0. -1.
          2    1    5    5  502    0 -0.63172498880E+02 -0.51675897501E+02  0.15250336438E+02  0.83028523766E+02  0.00000000000E+00 0. -1.
          4    1    6    6  503    0  0.10129039889E+04  0.13439751528E+04 -0.19361947193E+02  0.16830384984E+04  0.00000000000E+00 0. -1.
         -2    1    5    5    0  502 -0.19075433578E+02  0.36435140824E+02  0.61269407018E+01  0.41580416730E+02  0.00000000000E+00 0.  1.
         -4    1    6    6    0  503  0.27005880458E+03  0.33247579675E+03  0.38563986557E+02  0.43006870895E+03  0.00000000000E+00 0.  1.
<mgrwt>
<rscale>  0 0.42913437E+04</rscale>
<asrwt>0</asrwt>
<pdfrwt beam="1">  1        2 0.31448628E+00 0.42913437E+04</pdfrwt>
<pdfrwt beam="2">  1       -2 0.34649597E+00 0.42913437E+04</pdfrwt>
<totfact> 0.79626179E-02</totfact>
</mgrwt>
</event>
<event>
12    1  0.4403484E-008  0.2070371E+04  0.7818608E-02  0.8574409E-01
          1   -1    0    0  501    0  0.00000000000E+00  0.00000000000E+00  0.16766436220E+04  0.16766436220E+04  0.00000000000E+00 0. -1.
         -1   -1    0    0    0  501 -0.00000000000E+00 -0.00000000000E+00 -0.63913922896E+03  0.63913922896E+03  0.00000000000E+00 0.  1.
         23    2    1    2    0    0  0.76492147783E+03 -0.24124854270E+03  0.14683482481E+03  0.82048287834E+03  0.91246705506E+02 0.  0.
        254    2    1    2    0    0 -0.76492147783E+03  0.24124854270E+03  0.89066956827E+03  0.14952999727E+04  0.89404921665E+03 0.  0.
         23    2    4    4    0    0 -0.28982545814E+03  0.14601791809E+03  0.94121370532E+03  0.99956341195E+03  0.89015430256E+02 0.  0.
         23    2    4    4    0    0 -0.47509601969E+03  0.95230624611E+02 -0.50544137055E+02  0.49573656071E+03  0.91732916914E+02 0.  0.
         13    1    3    3    0    0  0.83017539207E+02 -0.33844756510E+02  0.45598819147E+02  0.10058146781E+03  0.00000000000E+00 0. -1.
        -13    1    3    3    0    0  0.68190393862E+03 -0.20740378619E+03  0.10123600566E+03  0.71990141053E+03  0.00000000000E+00 0.  1.
          1    1    5    5  502    0 -0.16646628249E+03  0.94820383532E+02  0.67592946142E+03  0.70255431474E+03  0.00000000000E+00 0. -1.
          3    1    6    6  503    0 -0.40595651644E+03  0.46670347228E+02 -0.39693109039E+02  0.41055372055E+03  0.00000000000E+00 0. -1.
         -1    1    5    5    0  502 -0.12335917565E+03  0.51197534561E+02  0.26528424390E+03  0.29700909721E+03  0.00000000000E+00 0.  1.
         -3    1    6    6    0  503 -0.69139503249E+02  0.48560277383E+02 -0.10851028016E+02  0.85182840162E+02  0.00000000000E+00 0.  1.
<mgrwt>
<rscale>  0 0.20703707E+04</rscale>
<asrwt>0</asrwt>
<pdfrwt beam="1">  1        1 0.25794517E+00 0.20703707E+04</pdfrwt>
<pdfrwt beam="2">  1       -1 0.98329113E-01 0.20703707E+04</pdfrwt>
<totfact> 0.45151473E+00</totfact>
</mgrwt>
</event>
<event>
12    1  0.4403484E-008  0.1620369E+04  0.7818608E-02  0.8808131E-01
         -2   -1    0    0    0  501 -0.00000000000E+00  0.00000000000E+00  0.31537636475E+03  0.31537636475E+03  0.00000000000E+00 0.  1.
          2   -1    0    0  501    0  0.00000000000E+00 -0.00000000000E+00 -0.20813205635E+04  0.20813205635E+04  0.00000000000E+00 0. -1.
         23    2    1    2    0    0  0.35388604037E+03 -0.31264072636E+03 -0.10360440688E+04  0.11421789271E+04  0.90586067858E+02 0.  0.
        254    2    1    2    0    0 -0.35388604037E+03  0.31264072636E+03 -0.72990012996E+03  0.12545180012E+04  0.90447866871E+03 0.  0.
         23    2    4    4    0    0 -0.45617691167E+03  0.52447581115E+03 -0.31414383120E+03  0.76827398753E+03  0.91576863955E+02 0.  0.
         23    2    4    4    0    0  0.10229087131E+03 -0.21183508479E+03 -0.41575629876E+03  0.48624401362E+03  0.90787748718E+02 0.  0.
         13    1    3    3    0    0  0.34232561840E+03 -0.27155382495E+03 -0.91885443414E+03  0.10174584905E+04  0.00000000000E+00 0.  1.
        -13    1    3    3    0    0  0.11560421969E+02 -0.41086901404E+02 -0.11718963463E+03  0.12472043653E+03  0.00000000000E+00 0. -1.
          4    1    5    5  502    0 -0.29331995939E+03  0.38012574418E+03 -0.18081013539E+03  0.51305407612E+03  0.00000000000E+00 0. -1.
          1    1    6    6  503    0  0.32002008391E+02 -0.14617104487E+03 -0.30373090466E+03  0.33858908037E+03  0.00000000000E+00 0. -1.
         -4    1    5    5    0  502 -0.16285695228E+03  0.14435006697E+03 -0.13333369582E+03  0.25521991141E+03  0.00000000000E+00 0.  1.
         -1    1    6    6    0  503  0.70288862915E+02 -0.65664039927E+02 -0.11202539410E+03  0.14765493325E+03  0.00000000000E+00 0.  1.
<mgrwt>
<rscale>  0 0.16203695E+04</rscale>
<asrwt>0</asrwt>
<pdfrwt beam="1">  1        2 0.32020316E+00 0.16203695E+04</pdfrwt>
<pdfrwt beam="2">  1       -2 0.48519442E-01 0.16203695E+04</pdfrwt>
<totfact> 0.23193285E+01</totfact>
</mgrwt>
</event>
<event>
12    1  0.4403484E-008  0.2621262E+04  0.7818608E-02  0.8361015E-01
         -2   -1    0    0    0  501 -0.00000000000E+00  0.00000000000E+00  0.61526466809E+03  0.61526466809E+03  0.00000000000E+00 0.  1.
          2   -1    0    0  501    0  0.00000000000E+00 -0.00000000000E+00 -0.27918942524E+04  0.27918942524E+04  0.00000000000E+00 0. -1.
         23    2    1    2    0    0  0.11365041769E+03  0.18622650397E+03 -0.24338823601E+04  0.24453372053E+04  0.91071274162E+02 0.  0.
        254    2    1    2    0    0 -0.11365041769E+03 -0.18622650397E+03  0.25725277573E+03  0.96182171517E+03  0.90073597293E+03 0.  0.
         23    2    4    4    0    0 -0.41557441799E+03 -0.23480888844E+03  0.38319969976E+03  0.61890726932E+03  0.91470690103E+02 0.  0.
         23    2    4    4    0    0  0.30192400029E+03  0.48582384470E+02 -0.12594692403E+03  0.34291444585E+03  0.90605405285E+02 0.  0.
         13    1    3    3    0    0  0.11891893052E+03  0.14636931975E+03 -0.21958475434E+04  0.22039310614E+04  0.00000000000E+00 0. -1.
        -13    1    3    3    0    0 -0.52685128253E+01  0.39857184219E+02 -0.23803481668E+03  0.24140614390E+03  0.00000000000E+00 0.  1.
          4    1    5    5  502    0 -0.59663906329E+02 -0.62053390917E+02  0.10232589276E+03  0.13371983163E+03  0.00000000000E+00 0. -1.
          3    1    6    6  503    0 -0.20803332878E+01  0.30466361494E+01  0.70688845993E+01  0.79736383097E+01  0.00000000000E+00 0. -1.
         -4    1    5    5    0  502 -0.35591051166E+03 -0.17275549752E+03  0.28087380700E+03  0.48518743769E+03  0.00000000000E+00 0.  1.
         -3    1    6    6    0  503  0.30400433358E+03  0.45535748320E+02 -0.13301580863E+03  0.33494080754E+03  0.00000000000E+00 0.  1.
<mgrwt>
<rscale>  0 0.26212622E+04</rscale>
<asrwt>0</asrwt>
<pdfrwt beam="1">  1        2 0.42952218E+00 0.26212622E+04</pdfrwt>
<pdfrwt beam="2">  1       -2 0.94656106E-01 0.26212622E+04</pdfrwt>
<totfact> 0.19406128E+00</totfact>
</mgrwt>
</event>
<event>
12    1  0.4403484E-008  0.1377321E+04  0.7818608E-02  0.8970401E-01
          2   -1    0    0  501    0  0.00000000000E+00  0.00000000000E+00  0.29549282383E+04  0.29549282383E+04  0.00000000000E+00 0. -1.
         -2   -1    0    0    0  501 -0.00000000000E+00 -0.00000000000E+00 -0.16049559766E+03  0.16049559766E+03  0.00000000000E+00 0.  1.
         23    2    1    2    0    0  0.15969364667E+03 -0.36686550994E+02  0.15825555159E+04  0.15935975897E+04  0.90682705500E+02 0.  0.
        254    2    1    2    0    0 -0.15969364667E+03  0.36686550994E+02  0.12118771247E+04  0.15218262463E+04  0.90579301973E+03 0.  0.
         23    2    4    4    0    0  0.32900175135E+02  0.40124212075E+03  0.27983354606E+03  0.49863341677E+03  0.90833968492E+02 0.  0.
         23    2    4    4    0    0 -0.19259382181E+03 -0.36455556975E+03  0.93204357864E+03  0.10231928295E+04  0.90692834240E+02 0.  0.
         11    1    3    3    0    0  0.74225609811E+02 -0.17780975912E+02  0.36474860560E+03  0.37264882872E+03  0.00000000000E+00 0. -1.
        -11    1    3    3    0    0  0.85468036859E+02 -0.18905575082E+02  0.12178069103E+04  0.12209487610E+04  0.00000000000E+00 0.  1.
          2    1    5    5  502    0  0.13920121669E+02  0.80475207601E+02  0.16808705401E+02  0.83382020862E+02  0.00000000000E+00 0. -1.
          1    1    6    6  503    0 -0.79584308685E+02 -0.15344775560E+03  0.50270673890E+03  0.53159565576E+03  0.00000000000E+00 0. -1.
         -2    1    5    5    0  502  0.18980053467E+02  0.32076691315E+03  0.26302484066E+03  0.41525139591E+03  0.00000000000E+00 0.  1.
         -1    1    6    6    0  503 -0.11300951312E+03 -0.21110781416E+03  0.42933683974E+03  0.49159717372E+03  0.00000000000E+00 0.  1.
<mgrwt>
<rscale>  0 0.13773205E+04</rscale>
<asrwt>0</asrwt>
<pdfrwt beam="1">  1        2 0.45460431E+00 0.13773205E+04</pdfrwt>
<pdfrwt beam="2">  1       -2 0.24691633E-01 0.13773205E+04</pdfrwt>
<totfact> 0.26814545E+01</totfact>
</mgrwt>
</event>
<event>
12    1  0.4403484E-008  0.1424557E+04  0.7818608E-02  0.8936232E-01
         -2   -1    0    0    0  501 -0.00000000000E+00  0.00000000000E+00  0.22850521949E+03  0.22850521949E+03  0.00000000000E+00 0.  1.
          2   -1    0    0  501    0  0.00000000000E+00 -0.00000000000E+00 -0.22202583055E+04  0.22202583055E+04  0.00000000000E+00 0. -1.
         23    2    1    2    0    0 -0.25988527388E+03 -0.12494610484E+03 -0.11218956798E+04  0.11619707703E+04  0.91511038017E+02 0.  0.
        254    2    1    2    0    0  0.25988527388E+03  0.12494610484E+03 -0.86985740623E+03  0.12867927547E+04  0.90334478555E+03 0.  0.
         23    2    4    4    0    0  0.39523521410E+03  0.28567189401E+03 -0.12839155242E+03  0.51059525301E+03  0.80023847530E+02 0.  0.
         23    2    4    4    0    0 -0.13534994022E+03 -0.16072578917E+03 -0.74146585381E+03  0.77619750165E+03  0.92512504971E+02 0.  0.
         13    1    3    3    0    0 -0.22226557494E+03 -0.64846216868E+02 -0.84615545130E+03  0.87726054591E+03  0.00000000000E+00 0. -1.
        -13    1    3    3    0    0 -0.37619698943E+02 -0.60099887974E+02 -0.27574022848E+03  0.28471022441E+03  0.00000000000E+00 0.  1.
          1    1    5    5  502    0  0.24814412399E+03  0.18650880297E+03 -0.12061338207E+03  0.33302946985E+03  0.00000000000E+00 0. -1.
          3    1    6    6  503    0 -0.95731441586E+02 -0.15033616159E+03 -0.67492780081E+03  0.69806375546E+03  0.00000000000E+00 0. -1.
         -1    1    5    5    0  502  0.14709109011E+03  0.99163091040E+02 -0.77781703434E+01  0.17756578316E+03  0.00000000000E+00 0.  1.
         -3    1    6    6    0  503 -0.39618498636E+02 -0.10389627577E+02 -0.66538053007E+02  0.78133746187E+02  0.00000000000E+00 0.  1.
<mgrwt>
<rscale>  0 0.14245569E+04</rscale>
<asrwt>0</asrwt>
<pdfrwt beam="1">  1        2 0.34157819E+00 0.14245569E+04</pdfrwt>
<pdfrwt beam="2">  1       -2 0.35154650E-01 0.14245569E+04</pdfrwt>
<totfact> 0.37179796E+01</totfact>
</mgrwt>
</event>
<event>
12    1  0.4403484E-008  0.1476993E+04  0.7818608E-02  0.8899898E-01
          2   -1    0    0  501    0  0.00000000000E+00  0.00000000000E+00  0.36939290587E+04  0.36939290587E+04  0.00000000000E+00 0.  1.
         -2   -1    0    0    0  501 -0.00000000000E+00 -0.00000000000E+00 -0.14764153277E+03  0.14764153277E+03  0.00000000000E+00 0. -1.
         23    2    1    2    0    0 -0.27506674546E+03 -0.27160052758E+03  0.18543150935E+04  0.18963778262E+04  0.91300782100E+02 0.  0.
        254    2    1    2    0    0  0.27506674546E+03  0.27160052758E+03  0.16919724325E+04  0.19451927652E+04  0.87839377317E+03 0.  0.
         23    2    4    4    0    0  0.35142843136E+03 -0.17774779511E+03  0.12087231175E+04  0.12746383011E+04  0.92709238061E+02 0.  0.
         23    2    4    4    0    0 -0.76361685899E+02  0.44934832269E+03  0.48324931496E+03  0.67055446415E+03  0.91478777927E+02 0.  0.
         11    1    3    3    0    0 -0.21522456669E+03 -0.21162993966E+03  0.12379262453E+04  0.12741939547E+04  0.00000000000E+00 0. -1.
        -11    1    3    3    0    0 -0.59842178777E+02 -0.59970587915E+02  0.61638884819E+03  0.62218387149E+03  0.00000000000E+00 0.  1.
          2    1    5    5  502    0  0.12885226538E+03 -0.24397177078E+02  0.47273312762E+03  0.49058611731E+03  0.00000000000E+00 0. -1.
          1    1    6    6  503    0 -0.60879122279E+02  0.34789178099E+03  0.31379102372E+03  0.47244022413E+03  0.00000000000E+00 0. -1.
         -2    1    5    5    0  502  0.22257616598E+03 -0.15335061803E+03  0.73598998987E+03  0.78405218379E+03  0.00000000000E+00 0.  1.
         -1    1    6    6    0  503 -0.15482563621E+02  0.10145654169E+03  0.16945829124E+03  0.19811424002E+03  0.00000000000E+00 0.  1.
<mgrwt>
<rscale>  0 0.14769934E+04</rscale>
<asrwt>0</asrwt>
<pdfrwt beam="1">  1        2 0.56829671E+00 0.14769934E+04</pdfrwt>
<pdfrwt beam="2">  1       -2 0.22714085E-01 0.14769934E+04</pdfrwt>
<totfact> 0.99145349E+00</totfact>
</mgrwt>
</event>
<event>
12    1  0.4403484E-008  0.1603782E+04  0.7818608E-02  0.8818228E-01
         -2   -1    0    0    0  501 -0.00000000000E+00  0.00000000000E+00  0.49490951196E+03  0.49490951196E+03  0.00000000000E+00 0. -1.
          2   -1    0    0  501    0  0.00000000000E+00 -0.00000000000E+00 -0.12992861869E+04  0.12992861869E+04  0.00000000000E+00 0.  1.
         23    2    1    2    0    0 -0.54169597566E+02  0.12925071047E+03  0.31652572529E+03  0.35711278114E+03  0.87754841595E+02 0.  0.
        254    2    1    2    0    0  0.54169597566E+02 -0.12925071047E+03 -0.11209024003E+04  0.14370829178E+04  0.88833835340E+03 0.  0.
         23    2    4    4    0    0  0.16613964417E+03 -0.26329674386E+03 -0.26774450327E+02  0.32539279204E+03  0.90752637591E+02 0.  0.
         23    2    4    4    0    0 -0.11197004660E+03  0.13404603339E+03 -0.10941279500E+04  0.11116901257E+04  0.90737722936E+02 0.  0.
         11    1    3    3    0    0 -0.18956546074E+02  0.86730197123E+01  0.53238235756E+01  0.21515459731E+02  0.00000000000E+00 0.  1.
        -11    1    3    3    0    0 -0.35213051493E+02  0.12057769076E+03  0.31120190172E+03  0.33559732141E+03  0.00000000000E+00 0. -1.
          2    1    5    5  502    0  0.15138338435E+03 -0.26801584919E+03 -0.19938047888E+02  0.30845899278E+03  0.00000000000E+00 0. -1.
          4    1    6    6  503    0 -0.71854805550E+02  0.13892548419E+03 -0.87212675729E+03  0.88604090426E+03  0.00000000000E+00 0. -1.
         -2    1    5    5    0  502  0.14756259821E+02  0.47191053310E+01 -0.68364024387E+01  0.16933799259E+02  0.00000000000E+00 0.  1.
         -4    1    6    6    0  503 -0.40115241050E+02 -0.48794508016E+01 -0.22200119266E+03  0.22564922147E+03  0.00000000000E+00 0.  1.
<mgrwt>
<rscale>  0 0.16037819E+04</rscale>
<asrwt>0</asrwt>
<pdfrwt beam="1">  1        2 0.19989018E+00 0.16037819E+04</pdfrwt>
<pdfrwt beam="2">  1       -2 0.76139926E-01 0.16037819E+04</pdfrwt>
<totfact> 0.24496480E+01</totfact>
</mgrwt>
</event>
<event>
12    1  0.4403484E-008  0.2846782E+04  0.7818608E-02  0.8288890E-01
          2   -1    0    0  501    0  0.00000000000E+00  0.00000000000E+00  0.36071932769E+04  0.36071932769E+04  0.00000000000E+00 0. -1.
         -2   -1    0    0    0  501 -0.00000000000E+00 -0.00000000000E+00 -0.56166702014E+03  0.56166702014E+03  0.00000000000E+00 0.  1.
         23    2    1    2    0    0  0.10963659988E+04 -0.15943961867E+03  0.45570002970E+03  0.12012656201E+04  0.89090840129E+02 0.  0.
        254    2    1    2    0    0 -0.10963659988E+04  0.15943961867E+03  0.25898262271E+04  0.29675946769E+04  0.93379809632E+03 0.  0.
         23    2    4    4    0    0 -0.52996926836E+03  0.53811718750E+03  0.13080377181E+04  0.15129643821E+04  0.87527233443E+02 0.  0.
         23    2    4    4    0    0 -0.56639673042E+03 -0.37867756883E+03  0.12817885090E+04  0.14546302948E+04  0.93624545455E+02 0.  0.
         13    1    3    3    0    0  0.11049891366E+03 -0.42860931534E+02  0.56031620481E+02  0.13109771877E+03  0.00000000000E+00 0. -1.
        -13    1    3    3    0    0  0.98586708512E+03 -0.11657868714E+03  0.39966840922E+03  0.10701679014E+04  0.00000000000E+00 0.  1.
          2    1    5    5  502    0 -0.16654050906E+03  0.17964097964E+03  0.34683674068E+03  0.42462023905E+03  0.00000000000E+00 0. -1.
          4    1    6    6  503    0 -0.16729166471E+03 -0.14456347616E+03  0.34439439225E+03  0.40925859446E+03  0.00000000000E+00 0.  1.
         -2    1    5    5    0  502 -0.36342875930E+03  0.35847620786E+03  0.96120097741E+03  0.10883441430E+04  0.00000000000E+00 0.  1.
         -4    1    6    6    0  503 -0.39910506571E+03 -0.23411409267E+03  0.93739411675E+03  0.10453717004E+04  0.00000000000E+00 0. -1.
<mgrwt>
<rscale>  0 0.28467817E+04</rscale>
<asrwt>0</asrwt>
<pdfrwt beam="1">  1        2 0.55495280E+00 0.28467817E+04</pdfrwt>
<pdfrwt beam="2">  1       -2 0.86410313E-01 0.28467817E+04</pdfrwt>
<totfact> 0.68610325E-01</totfact>
</mgrwt>
</event>
<event>
12    1  0.4403484E-008  0.1900305E+04  0.7818608E-02  0.8654704E-01
          1   -1    0    0  501    0  0.00000000000E+00  0.00000000000E+00  0.19273611458E+04  0.19273611458E+04  0.00000000000E+00 0. -1.
         -1   -1    0    0    0  501 -0.00000000000E+00 -0.00000000000E+00 -0.46840729842E+03  0.46840729842E+03  0.00000000000E+00 0.  1.
         23    2    1    2    0    0  0.21283448686E+03  0.39790847140E+03 -0.15973038634E+03  0.48725645803E+03  0.90969165999E+02 0.  0.
        254    2    1    2    0    0 -0.21283448686E+03 -0.39790847140E+03  0.16186842337E+04  0.19085119862E+04  0.90479261854E+03 0.  0.
         23    2    4    4    0    0 -0.39998044855E+03 -0.27829220914E+03  0.15913602053E+04  0.16666881383E+04  0.89393145276E+02 0.  0.
         23    2    4    4    0    0  0.18714596169E+03 -0.11961626225E+03  0.27324028384E+02  0.24182384787E+03  0.91654294505E+02 0.  0.
         11    1    3    3    0    0  0.32056616025E+02  0.36746093285E+02  0.89302597110E+01  0.49574706668E+02  0.00000000000E+00 0. -1.
        -11    1    3    3    0    0  0.18077787084E+03  0.36116237811E+03 -0.16866064605E+03  0.43768175136E+03  0.00000000000E+00 0.  1.
          2    1    5    5  502    0 -0.18228599031E+03 -0.10172070206E+03  0.55058846408E+03  0.58883184379E+03  0.00000000000E+00 0. -1.
          3    1    6    6  503    0  0.13112078325E+03 -0.71772612415E+02  0.60202086809E+02  0.16114670009E+03  0.00000000000E+00 0. -1.
         -2    1    5    5    0  502 -0.21769445824E+03 -0.17657150708E+03  0.10407717413E+04  0.10778562945E+04  0.00000000000E+00 0.  1.
         -3    1    6    6    0  503  0.56025178438E+02 -0.47843649839E+02 -0.32878058425E+02  0.80677147785E+02  0.00000000000E+00 0.  1.
<mgrwt>
<rscale>  0 0.19003053E+04</rscale>
<asrwt>0</asrwt>
<pdfrwt beam="1">  1        1 0.29651710E+00 0.19003053E+04</pdfrwt>
<pdfrwt beam="2">  1       -1 0.72062662E-01 0.19003053E+04</pdfrwt>
<totfact> 0.60686287E+00</totfact>
</mgrwt>
</event>
<event>
12    1  0.4403484E-008  0.1081953E+04  0.7818608E-02  0.9222962E-01
          1   -1    0    0  501    0  0.00000000000E+00  0.00000000000E+00  0.18862654782E+04  0.18862654782E+04  0.00000000000E+00 0. -1.
         -1   -1    0    0    0  501 -0.00000000000E+00 -0.00000000000E+00 -0.15515076984E+03  0.15515076984E+03  0.00000000000E+00 0.  1.
         23    2    1    2    0    0  0.74588628869E+02 -0.70832428707E+02  0.67668669954E+02  0.15271572928E+03  0.90345716901E+02 0.  0.
        254    2    1    2    0    0 -0.74588628869E+02  0.70832428707E+02  0.16634460384E+04  0.18887005188E+04  0.88856976675E+03 0.  0.
         23    2    4    4    0    0 -0.45322305438E+03  0.10578216800E+03  0.66910055777E+03  0.82026695227E+03  0.92419221414E+02 0.  0.
         23    2    4    4    0    0  0.37863442551E+03 -0.34949739293E+02  0.99434548064E+03  0.10684335665E+04  0.90784573048E+02 0.  0.
         13    1    3    3    0    0 -0.14374132084E+02  0.21541764689E+01 -0.63847922598E+01  0.15875192019E+02  0.00000000000E+00 0.  1.
        -13    1    3    3    0    0  0.88962760953E+02 -0.72986605175E+02  0.74053462214E+02  0.13684053726E+03  0.00000000000E+00 0. -1.
          1    1    5    5  502    0 -0.37447029639E+03  0.88085582180E+02  0.60609805525E+03  0.71787319580E+03  0.00000000000E+00 0. -1.
          1    1    6    6  503    0  0.28653437759E+03 -0.42440602966E+02  0.84002136798E+03  0.88856010095E+03  0.00000000000E+00 0. -1.
         -1    1    5    5    0  502 -0.78752757985E+02  0.17696585820E+02  0.63002502522E+02  0.10239375647E+03  0.00000000000E+00 0.  1.
         -1    1    6    6    0  503  0.92100047912E+02  0.74908636727E+01  0.15432411265E+03  0.17987346555E+03  0.00000000000E+00 0.  1.
<mgrwt>
<rscale>  0 0.10819529E+04</rscale>
<asrwt>0</asrwt>
<pdfrwt beam="1">  1        1 0.29019467E+00 0.10819529E+04</pdfrwt>
<pdfrwt beam="2">  1       -1 0.23869351E-01 0.10819529E+04</pdfrwt>
<totfact> 0.53964743E+01</totfact>
</mgrwt>
</event>
<event>
12    1  0.4403484E-008  0.1692171E+04  0.7818608E-02  0.8765842E-01
          1   -1    0    0  501    0  0.00000000000E+00  0.00000000000E+00  0.97276647879E+03  0.97276647879E+03  0.00000000000E+00 0. -1.
         -1   -1    0    0    0  501 -0.00000000000E+00 -0.00000000000E+00 -0.73590223022E+03  0.73590223022E+03  0.00000000000E+00 0.  1.
         23    2    1    2    0    0 -0.17610192983E+03 -0.49060840463E+03  0.38052429570E+03  0.65155645864E+03  0.89546539815E+02 0.  0.
        254    2    1    2    0    0  0.17610192983E+03  0.49060840463E+03 -0.14366004713E+03  0.10571122504E+04  0.90837195265E+03 0.  0.
         23    2    4    4    0    0  0.41107613354E+03 -0.62880304108E+02  0.25555825710E+02  0.42646947552E+03  0.91025233408E+02 0.  0.
         23    2    4    4    0    0 -0.23497420371E+03  0.55348870874E+03 -0.16921587284E+03  0.63064277485E+03  0.86681432485E+02 0.  0.
         11    1    3    3    0    0 -0.13682181146E+02 -0.21480433630E+02  0.47061644320E+02  0.53510835127E+02  0.00000000000E+00 0.  1.
        -11    1    3    3    0    0 -0.16241974868E+03 -0.46912797100E+03  0.33346265138E+03  0.59804562351E+03  0.00000000000E+00 0. -1.
          4    1    6    6  502    0 -0.13971433107E+03  0.28098382220E+03 -0.47585325295E+02  0.31738992710E+03  0.00000000000E+00 0.  1.
          4    1    5    5  503    0  0.39702302805E+03 -0.55816564913E+02  0.42710212998E+02  0.40319590277E+03  0.00000000000E+00 0. -1.
         -4    1    5    5    0  503  0.14053105488E+02 -0.70637391946E+01 -0.17154387288E+02  0.23273572749E+02  0.00000000000E+00 0.  1.
         -4    1    6    6    0  502 -0.95259872636E+02  0.27250488654E+03 -0.12163054755E+03  0.31325284774E+03  0.00000000000E+00 0. -1.
<mgrwt>
<rscale>  0 0.16921714E+04</rscale>
<asrwt>0</asrwt>
<pdfrwt beam="1">  1        1 0.14965638E+00 0.16921714E+04</pdfrwt>
<pdfrwt beam="2">  1       -1 0.11321573E+00 0.16921714E+04</pdfrwt>
<totfact> 0.10789642E+01</totfact>
</mgrwt>
</event>
<event>
12    1  0.4403484E-008  0.2058999E+04  0.7818608E-02  0.8579523E-01
         -2   -1    0    0    0  501 -0.00000000000E+00  0.00000000000E+00  0.34413738188E+03  0.34413738188E+03  0.00000000000E+00 0.  1.
          2   -1    0    0  501    0  0.00000000000E+00 -0.00000000000E+00 -0.30797863879E+04  0.30797863879E+04  0.00000000000E+00 0. -1.
         23    2    1    2    0    0  0.31525357624E+03  0.73927202479E+03 -0.15345896130E+04  0.17346767699E+04  0.90720845659E+02 0.  0.
        254    2    1    2    0    0 -0.31525357624E+03 -0.73927202479E+03 -0.12010593931E+04  0.16892469999E+04  0.87470213043E+03 0.  0.
         23    2    4    4    0    0 -0.46781279631E+03 -0.70822713819E+02 -0.62349441897E+03  0.78811366474E+03  0.92266943599E+02 0.  0.
         23    2    4    4    0    0  0.15255922006E+03 -0.66844931097E+03 -0.57756497408E+03  0.90113333514E+03  0.91439550762E+02 0.  0.
         13    1    3    3    0    0  0.17837152449E+03  0.47179333940E+03 -0.87713653334E+03  0.10118171050E+04  0.00000000000E+00 0.  1.
        -13    1    3    3    0    0  0.13688205176E+03  0.26747868539E+03 -0.65745307962E+03  0.72285966490E+03  0.00000000000E+00 0. -1.
          2    1    5    5  502    0 -0.82267756218E+02 -0.42576327587E+02 -0.88889936686E+02  0.12838281905E+03  0.00000000000E+00 0. -1.
          1    1    6    6  503    0  0.50830569920E+02 -0.33918039818E+03 -0.33716522045E+03  0.48094435773E+03  0.00000000000E+00 0. -1.
         -2    1    5    5    0  502 -0.38554504009E+03 -0.28246386233E+02 -0.53460448228E+03  0.65973084569E+03  0.00000000000E+00 0.  1.
         -1    1    6    6    0  503  0.10172865014E+03 -0.32926891279E+03 -0.24039975364E+03  0.42018897741E+03  0.00000000000E+00 0.  1.
<mgrwt>
<rscale>  0 0.20589994E+04</rscale>
<asrwt>0</asrwt>
<pdfrwt beam="1">  1        2 0.47381327E+00 0.20589994E+04</pdfrwt>
<pdfrwt beam="2">  1       -2 0.52944215E-01 0.20589994E+04</pdfrwt>
<totfact> 0.48343527E+00</totfact>
</mgrwt>
</event>
<event>
12    1  0.4403484E-008  0.1471569E+04  0.7818608E-02  0.8903582E-01
          2   -1    0    0  501    0  0.00000000000E+00  0.00000000000E+00  0.12122663009E+04  0.12122663009E+04  0.00000000000E+00 0. -1.
         -2   -1    0    0    0  501 -0.00000000000E+00 -0.00000000000E+00 -0.44658415878E+03  0.44658415878E+03  0.00000000000E+00 0.  1.
         23    2    1    2    0    0  0.42215698276E+03  0.91002248577E+02  0.43049912235E+03  0.61659637733E+03  0.91453107392E+02 0.  0.
        254    2    1    2    0    0 -0.42215698276E+03 -0.91002248577E+02  0.33518301978E+03  0.10422540824E+04  0.88738266161E+03 0.  0.
         23    2    4    4    0    0 -0.60705343564E+03  0.32077699896E+02 -0.17549122516E+02  0.61497291142E+03  0.91328295308E+02 0.  0.
         23    2    4    4    0    0  0.18489645288E+03 -0.12307994847E+03  0.35273214230E+03  0.42728117095E+03  0.93882175301E+02 0.  0.
         13    1    3    3    0    0  0.36748360322E+03  0.91989251358E+02  0.40995048197E+03  0.55818063265E+03  0.00000000000E+00 0. -1.
        -13    1    3    3    0    0  0.54673379540E+02 -0.98700278047E+00  0.20548640385E+02  0.58415744679E+02  0.00000000000E+00 0.  1.
          1    1    5    5  502    0 -0.18782525255E+03 -0.15625200677E+02  0.28178155415E+02  0.19056883490E+03  0.00000000000E+00 0. -1.
          3    1    6    6  503    0  0.13384168252E+03 -0.44156125432E+02  0.16257615661E+03  0.21516125602E+03  0.00000000000E+00 0. -1.
         -1    1    5    5    0  502 -0.41922818309E+03  0.47702900573E+02 -0.45727277931E+02  0.42440407652E+03  0.00000000000E+00 0.  1.
         -3    1    6    6    0  503  0.51054770355E+02 -0.78923823041E+02  0.19015598568E+03  0.21211991493E+03  0.00000000000E+00 0.  1.
<mgrwt>
<rscale>  0 0.14715691E+04</rscale>
<asrwt>0</asrwt>
<pdfrwt beam="1">  1        2 0.18650251E+00 0.14715691E+04</pdfrwt>
<pdfrwt beam="2">  1       -2 0.68705256E-01 0.14715691E+04</pdfrwt>
<totfact> 0.34916947E+01</totfact>
</mgrwt>
</event>
<event>
12    1  0.4403484E-008  0.1394013E+04  0.7818608E-02  0.8958163E-01
          2   -1    0    0  501    0  0.00000000000E+00  0.00000000000E+00  0.16663846151E+04  0.16663846151E+04  0.00000000000E+00 0. -1.
         -2   -1    0    0    0  501 -0.00000000000E+00 -0.00000000000E+00 -0.29154029995E+03  0.29154029995E+03  0.00000000000E+00 0.  1.
         23    2    1    2    0    0  0.27031044286E+03  0.26402998355E+03  0.58831677841E+03  0.70592386608E+03  0.97120055710E+02 0.  0.
        254    2    1    2    0    0 -0.27031044286E+03 -0.26402998355E+03  0.78652753672E+03  0.12520010489E+04  0.89783155035E+03 0.  0.
         23    2    4    4    0    0 -0.58119543356E+03 -0.17938473705E+03  0.63524207246E+03  0.88425289047E+03  0.91671521273E+02 0.  0.
         23    2    4    4    0    0  0.31088499070E+03 -0.84645246496E+02  0.15128546426E+03  0.36774815847E+03  0.92396543036E+02 0.  0.
         13    1    3    3    0    0  0.39478319328E+02  0.92444500614E+02  0.12247402608E+03  0.15844371384E+03  0.00000000000E+00 0.  1.
        -13    1    3    3    0    0  0.23083212353E+03  0.17158548293E+03  0.46584275232E+03  0.54748015224E+03  0.00000000000E+00 0. -1.
          2    1    5    5  502    0 -0.23629031762E+02 -0.57941658519E+01  0.45953066035E+01  0.24759247620E+02  0.00000000000E+00 0. -1.
          1    1    6    6  503    0  0.14961758047E+03 -0.15435422150E+02  0.11299958911E+03  0.18812915718E+03  0.00000000000E+00 0. -1.
         -2    1    5    5    0  502 -0.55756640179E+03 -0.17359057120E+03  0.63064676586E+03  0.85949364285E+03  0.00000000000E+00 0.  1.
         -1    1    6    6    0  503  0.16126741023E+03 -0.69209824345E+02  0.38285875151E+02  0.17961900129E+03  0.00000000000E+00 0.  1.
<mgrwt>
<rscale>  0 0.13940133E+04</rscale>
<asrwt>0</asrwt>
<pdfrwt beam="1">  1        2 0.25636686E+00 0.13940133E+04</pdfrwt>
<pdfrwt beam="2">  1       -2 0.44852355E-01 0.13940133E+04</pdfrwt>
<totfact> 0.46992038E+01</totfact>
</mgrwt>
</event>
<event>
12    1  0.4403484E-008  0.1712503E+04  0.7818608E-02  0.8754265E-01
         -2   -1    0    0    0  501 -0.00000000000E+00  0.00000000000E+00  0.20585813116E+04  0.20585813116E+04  0.00000000000E+00 0.  1.
          2   -1    0    0  501    0  0.00000000000E+00 -0.00000000000E+00 -0.35615161356E+03  0.35615161356E+03  0.00000000000E+00 0. -1.
         23    2    1    2    0    0 -0.35169539257E+03  0.37607203153E+03  0.14516120379E+03  0.54275605848E+03  0.91610817465E+02 0.  0.
        254    2    1    2    0    0  0.35169539257E+03 -0.37607203153E+03  0.15572684942E+04  0.18719768667E+04  0.90227069341E+03 0.  0.
         23    2    4    4    0    0  0.23330431392E+02  0.13374457454E+03 -0.33973106930E+02  0.16664286782E+03  0.90464098692E+02 0.  0.
         23    2    4    4    0    0  0.32836496117E+03 -0.50981660607E+03  0.15912416011E+04  0.17053339988E+04  0.91529748436E+02 0.  0.
         13    1    3    3    0    0 -0.26938769657E+03  0.32172489507E+03  0.14549741095E+03  0.44412400945E+03  0.00000000000E+00 0. -1.
        -13    1    3    3    0    0 -0.82307695992E+02  0.54347136454E+02 -0.33620715512E+00  0.98632049028E+02  0.00000000000E+00 0.  1.
          2    1    5    5  502    0  0.27321915693E+02  0.77660271671E+02  0.24129338012E+02  0.85789450552E+02  0.00000000000E+00 0. -1.
          3    1    6    6  503    0  0.21541455993E+03 -0.30473737545E+03  0.10898454571E+04  0.11519684983E+04  0.00000000000E+00 0.  1.
         -2    1    5    5    0  502 -0.39914843014E+01  0.56084302866E+02 -0.58102444942E+02  0.80853417263E+02  0.00000000000E+00 0.  1.
         -3    1    6    6    0  503  0.11295040124E+03 -0.20507923061E+03  0.50139614405E+03  0.55336550059E+03  0.00000000000E+00 0. -1.
<mgrwt>
<rscale>  0 0.17125035E+04</rscale>
<asrwt>0</asrwt>
<pdfrwt beam="1">  1        2 0.54792557E-01 0.17125035E+04</pdfrwt>
<pdfrwt beam="2">  1       -2 0.31670481E+00 0.17125035E+04</pdfrwt>
<totfact> 0.21680837E+00</totfact>
</mgrwt>
</event>
<event>
12    1  0.4403484E-008  0.2758911E+04  0.7818608E-02  0.8316139E-01
          2   -1    0    0  501    0  0.00000000000E+00  0.00000000000E+00  0.18145278042E+04  0.18145278042E+04  0.00000000000E+00 0. -1.
         -2   -1    0    0    0  501 -0.00000000000E+00 -0.00000000000E+00 -0.10487014645E+04  0.10487014645E+04  0.00000000000E+00 0.  1.
         23    2    1    2    0    0  0.34054834378E+03 -0.62663595633E+03  0.13840406729E+04  0.15596959862E+04  0.91854171529E+02 0.  0.
        254    2    1    2    0    0 -0.34054834378E+03  0.62663595633E+03 -0.61821433313E+03  0.13035332826E+04  0.89909079676E+03 0.  0.
         23    2    4    4    0    0 -0.50011016419E+03  0.23559711226E+03 -0.66418707354E+03  0.86899245574E+03  0.91581896878E+02 0.  0.
         23    2    4    4    0    0  0.15956182041E+03  0.39103884408E+03  0.45972740410E+02  0.43454082682E+03  0.91328446844E+02 0.  0.
         13    1    3    3    0    0  0.75033098587E+02 -0.87557148183E+02  0.27775428243E+03  0.30073852678E+03  0.00000000000E+00 0.  1.
        -13    1    3    3    0    0  0.26551524519E+03 -0.53907880815E+03  0.11062863904E+04  0.12589574594E+04  0.00000000000E+00 0. -1.
          2    1    5    5  502    0 -0.31513121321E+03  0.11689920116E+03 -0.34697824115E+03  0.48308074336E+03  0.00000000000E+00 0. -1.
          3    1    6    6  503    0  0.76090431197E+02  0.23169601055E+03 -0.15712117600E+02  0.24437607425E+03  0.00000000000E+00 0. -1.
         -2    1    5    5    0  502 -0.18497895098E+03  0.11869791110E+03 -0.31720883239E+03  0.38591171238E+03  0.00000000000E+00 0.  1.
         -3    1    6    6    0  503  0.83471389214E+02  0.15934283353E+03  0.61684858011E+02  0.19016475257E+03  0.00000000000E+00 0.  1.
<mgrwt>
<rscale>  0 0.27589114E+04</rscale>
<asrwt>0</asrwt>
<pdfrwt beam="1">  1        2 0.27915812E+00 0.27589114E+04</pdfrwt>
<pdfrwt beam="2">  1       -2 0.16133869E+00 0.27589114E+04</pdfrwt>
<totfact> 0.18211194E+00</totfact>
</mgrwt>
</event>
<event>
12    1  0.4403484E-008  0.1226245E+04  0.7818608E-02  0.9090189E-01
         -1   -1    0    0    0  501 -0.00000000000E+00  0.00000000000E+00  0.11840517956E+03  0.11840517956E+03  0.00000000000E+00 0.  1.
          1   -1    0    0  501    0  0.00000000000E+00 -0.00000000000E+00 -0.31748548511E+04  0.31748548511E+04  0.00000000000E+00 0. -1.
         23    2    1    2    0    0  0.35131905215E+02  0.11139756700E+03 -0.50306682551E+02  0.15142851632E+03  0.82195891302E+02 0.  0.
        254    2    1    2    0    0 -0.35131905215E+02 -0.11139756700E+03 -0.30061429889E+04  0.31418315143E+04  0.90585094001E+03 0.  0.
         23    2    4    4    0    0  0.19095463631E+03 -0.42511425232E+03 -0.20903130714E+04  0.21435871529E+04  0.91495054459E+02 0.  0.
         23    2    4    4    0    0 -0.22608654153E+03  0.31371668532E+03 -0.91582991754E+03  0.99824436138E+03  0.90631585313E+02 0.  0.
         13    1    3    3    0    0 -0.14360931257E+01  0.13037565530E+02  0.20855694671E+02  0.24637379703E+02  0.00000000000E+00 0.  1.
        -13    1    3    3    0    0  0.36567998341E+02  0.98360001471E+02 -0.71162377222E+02  0.12679113661E+03  0.00000000000E+00 0. -1.
          1    1    5    5  502    0  0.15424009107E+03 -0.38135592567E+03 -0.19313369839E+04  0.19746607033E+04  0.00000000000E+00 0. -1.
          3    1    6    6  503    0 -0.18342376996E+03  0.29731705535E+03 -0.77289299367E+03  0.84817762907E+03  0.00000000000E+00 0. -1.
         -1    1    5    5    0  502  0.36714545243E+02 -0.43758326648E+02 -0.15897608749E+03  0.16892644960E+03  0.00000000000E+00 0.  1.
         -3    1    6    6    0  503 -0.42662771565E+02  0.16399629968E+02 -0.14293692387E+03  0.15006673231E+03  0.00000000000E+00 0.  1.
<mgrwt>
<rscale>  0 0.12262451E+04</rscale>
<asrwt>0</asrwt>
<pdfrwt beam="1">  1        1 0.48843922E+00 0.12262451E+04</pdfrwt>
<pdfrwt beam="2">  1       -1 0.18216181E-01 0.12262451E+04</pdfrwt>
<totfact> 0.10642181E+01</totfact>
</mgrwt>
</event>
<event>
12    1  0.4403484E-008  0.1799800E+04  0.7818608E-02  0.8706406E-01
          2   -1    0    0  501    0  0.00000000000E+00  0.00000000000E+00  0.16694773117E+04  0.16694773117E+04  0.00000000000E+00 0. -1.
         -2   -1    0    0    0  501 -0.00000000000E+00 -0.00000000000E+00 -0.48507380101E+03  0.48507380101E+03  0.00000000000E+00 0.  1.
         23    2    1    2    0    0  0.36516120131E+03  0.51917232329E+03  0.71498514816E+03  0.96044807117E+03  0.91510278709E+02 0.  0.
        254    2    1    2    0    0 -0.36516120131E+03 -0.51917232329E+03  0.46941836257E+03  0.11941030416E+04  0.89590505669E+03 0.  0.
         23    2    4    4    0    0 -0.95196127323E+01 -0.52295719406E+02 -0.24455791637E+03  0.26533191237E+03  0.88130493995E+02 0.  0.
         23    2    4    4    0    0 -0.35564158858E+03 -0.46687660388E+03  0.71397627894E+03  0.92877112921E+03  0.91645953500E+02 0.  0.
         13    1    3    3    0    0  0.49012468998E+02  0.12669759946E+03  0.12609749285E+03  0.18535123828E+03  0.00000000000E+00 0.  1.
        -13    1    3    3    0    0  0.31614873231E+03  0.39247472382E+03  0.58888765531E+03  0.77509683289E+03  0.00000000000E+00 0. -1.
          2    1    5    5  502    0 -0.25368168143E+02 -0.55154115575E+01 -0.13905617079E+02  0.29450465292E+02  0.00000000000E+00 0. -1.
          1    1    6    6  503    0 -0.79035289066E+02 -0.15592123782E+03  0.16987986396E+03  0.24375638966E+03  0.00000000000E+00 0. -1.
         -2    1    5    5    0  502  0.15848555410E+02 -0.46780307848E+02 -0.23065229929E+03  0.23588144708E+03  0.00000000000E+00 0.  1.
         -1    1    6    6    0  503 -0.27660629951E+03 -0.31095536606E+03  0.54409641497E+03  0.68501473955E+03  0.00000000000E+00 0.  1.
<mgrwt>
<rscale>  0 0.17997997E+04</rscale>
<asrwt>0</asrwt>
<pdfrwt beam="1">  1        2 0.25684266E+00 0.17997997E+04</pdfrwt>
<pdfrwt beam="2">  1       -2 0.74626740E-01 0.17997997E+04</pdfrwt>
<totfact> 0.15544199E+01</totfact>
</mgrwt>
</event>
<event>
12    1  0.4403484E-008  0.5063198E+04  0.7818608E-02  0.7818832E-01
          2   -1    0    0  501    0  0.00000000000E+00  0.00000000000E+00  0.42510452534E+04  0.42510452534E+04  0.00000000000E+00 0. -1.
         -2   -1    0    0    0  501 -0.00000000000E+00 -0.00000000000E+00 -0.15076274995E+04  0.15076274995E+04  0.00000000000E+00 0.  1.
         23    2    1    2    0    0 -0.13365373320E+04 -0.20534378699E+04  0.13919397785E+04  0.28193784862E+04  0.91975954332E+02 0.  0.
        254    2    1    2    0    0  0.13365373320E+04  0.20534378699E+04  0.13514779754E+04  0.29392942668E+04  0.90001052411E+03 0.  0.
         23    2    4    4    0    0 -0.11277371541E+03  0.24577721250E+03  0.21108876442E+03  0.35491647008E+03  0.91010357647E+02 0.  0.
         23    2    4    4    0    0  0.14493110475E+04  0.18076606574E+04  0.11403892110E+04  0.25843777967E+04  0.10188954423E+03 0.  0.
         11    1    3    3    0    0 -0.38796826482E+03 -0.56147678693E+03  0.34585469908E+03  0.76510850842E+03  0.00000000000E+00 0. -1.
        -11    1    3    3    0    0 -0.94856906722E+03 -0.14919610829E+04  0.10460850794E+04  0.20542699778E+04  0.00000000000E+00 0.  1.
          3    1    6    6  502    0  0.97959344634E+03  0.12955702713E+04  0.80644453053E+03  0.18134107171E+04  0.00000000000E+00 0. -1.
          3    1    5    5  503    0 -0.98693214543E+02  0.13930627515E+03  0.16699946410E+03  0.23882087410E+03  0.00000000000E+00 0. -1.
         -3    1    5    5    0  503 -0.14080500863E+02  0.10647093734E+03  0.44089300312E+02  0.11609559598E+03  0.00000000000E+00 0.  1.
         -3    1    6    6    0  502  0.46971760111E+03  0.51209038603E+03  0.33394468045E+03  0.77096707962E+03  0.00000000000E+00 0.  1.
<mgrwt>
<rscale>  0 0.50631977E+04</rscale>
<asrwt>0</asrwt>
<pdfrwt beam="1">  1        2 0.65400696E+00 0.50631977E+04</pdfrwt>
<pdfrwt beam="2">  1       -2 0.23194269E+00 0.50631977E+04</pdfrwt>
<totfact> 0.12545969E-02</totfact>
</mgrwt>
</event>
<event>
12    1  0.4403484E-008  0.2249504E+04  0.7818608E-02  0.8498102E-01
          2   -1    0    0  501    0  0.00000000000E+00  0.00000000000E+00  0.16627179995E+04  0.16627179995E+04  0.00000000000E+00 0.  1.
         -2   -1    0    0    0  501 -0.00000000000E+00 -0.00000000000E+00 -0.76084258057E+03  0.76084258057E+03  0.00000000000E+00 0. -1.
         23    2    1    2    0    0  0.55160338340E+03 -0.75324540384E+03  0.35399260695E+03  0.10026267186E+04  0.91129798380E+02 0.  0.
        254    2    1    2    0    0 -0.55160338340E+03  0.75324540384E+03  0.54788281202E+03  0.14209338615E+04  0.92045235186E+03 0.  0.
         23    2    4    4    0    0 -0.61818024552E+03  0.22272776145E+03  0.57503467035E+03  0.87770705343E+03  0.89164611051E+02 0.  0.
         23    2    4    4    0    0  0.66576862125E+02  0.53051764238E+03 -0.27151858331E+02  0.54322680806E+03  0.92068963993E+02 0.  0.
         13    1    3    3    0    0  0.27692768282E+02 -0.47591314015E+02 -0.19412631675E+00  0.55062330770E+02  0.00000000000E+00 0. -1.
        -13    1    3    3    0    0  0.52391061511E+03 -0.70565408982E+03  0.35418673327E+03  0.94756438786E+03  0.00000000000E+00 0.  1.
          2    1    5    5  502    0 -0.13292616669E+03  0.72453032457E+02  0.94615378270E+02  0.17852416505E+03  0.00000000000E+00 0. -1.
          1    1    6    6  503    0 -0.75745504562E+01  0.75044761692E+02  0.23460085929E+02  0.78990288668E+02  0.00000000000E+00 0. -1.
         -2    1    5    5    0  502 -0.48525407884E+03  0.15027472900E+03  0.48041929208E+03  0.69918288838E+03  0.00000000000E+00 0.  1.
         -1    1    6    6    0  503  0.74151412581E+02  0.45547288069E+03 -0.50611944260E+02  0.46423651939E+03  0.00000000000E+00 0.  1.
<mgrwt>
<rscale>  0 0.22495036E+04</rscale>
<asrwt>0</asrwt>
<pdfrwt beam="1">  1        2 0.25580277E+00 0.22495036E+04</pdfrwt>
<pdfrwt beam="2">  1       -2 0.11705270E+00 0.22495036E+04</pdfrwt>
<totfact> 0.52886926E+00</totfact>
</mgrwt>
</event>
<event>
12    1  0.4403484E-008  0.1390080E+04  0.7818608E-02  0.8961031E-01
          1   -1    0    0  501    0  0.00000000000E+00  0.00000000000E+00  0.14848126124E+04  0.14848126124E+04  0.00000000000E+00 0.  1.
         -1   -1    0    0    0  501 -0.00000000000E+00 -0.00000000000E+00 -0.32534783335E+03  0.32534783335E+03  0.00000000000E+00 0. -1.
         23    2    1    2    0    0  0.54134963235E+02 -0.34087517697E+03  0.60192609876E+03  0.70013171513E+03  0.93503527463E+02 0.  0.
        254    2    1    2    0    0 -0.54134963235E+02  0.34087517697E+03  0.55753868033E+03  0.11100287307E+04  0.89564944165E+03 0.  0.
         23    2    4    4    0    0 -0.44079010411E+03  0.73063723068E+02  0.14559908035E+03  0.47836684852E+03  0.89451249607E+02 0.  0.
         23    2    4    4    0    0  0.38665514087E+03  0.26781145390E+03  0.41193959999E+03  0.63166188215E+03  0.89873947970E+02 0.  0.
         11    1    3    3    0    0  0.58310761033E-01 -0.57987877663E+02  0.45953233892E+02  0.73988492762E+02  0.00000000000E+00 0. -1.
        -11    1    3    3    0    0  0.54076652474E+02 -0.28288729930E+03  0.55597286487E+03  0.62614322237E+03  0.00000000000E+00 0.  1.
          2    1    5    5  502    0 -0.39836565712E+03  0.73845654606E+02  0.15687411367E+03  0.43446273145E+03  0.00000000000E+00 0. -1.
          3    1    6    6  503    0  0.36392767535E+03  0.22007191528E+03  0.35529070212E+03  0.55417189011E+03  0.00000000000E+00 0. -1.
         -2    1    5    5    0  502 -0.42424446991E+02 -0.78193153809E+00 -0.11275033328E+02  0.43904117073E+02  0.00000000000E+00 0.  1.
         -3    1    6    6    0  503  0.22727465525E+02  0.47739538614E+02  0.56648897868E+02  0.77489992038E+02  0.00000000000E+00 0.  1.
<mgrwt>
<rscale>  0 0.13900799E+04</rscale>
<asrwt>0</asrwt>
<pdfrwt beam="1">  1        1 0.22843271E+00 0.13900799E+04</pdfrwt>
<pdfrwt beam="2">  1       -1 0.50053514E-01 0.13900799E+04</pdfrwt>
<totfact> 0.26196424E+01</totfact>
</mgrwt>
</event>
<event>
12    1  0.4403484E-008  0.1925474E+04  0.7818608E-02  0.8642279E-01
         -1   -1    0    0    0  501 -0.00000000000E+00  0.00000000000E+00  0.27928452655E+03  0.27928452655E+03  0.00000000000E+00 0.  1.
          1   -1    0    0  501    0  0.00000000000E+00 -0.00000000000E+00 -0.33187033282E+04  0.33187033282E+04  0.00000000000E+00 0. -1.
         23    2    1    2    0    0  0.73589013035E+03 -0.13533747952E+03 -0.99370738612E+03  0.12473732106E+04  0.92924915863E+02 0.  0.
        254    2    1    2    0    0 -0.73589013035E+03  0.13533747952E+03 -0.20457114155E+04  0.23506146441E+04  0.88351768082E+03 0.  0.
         23    2    4    4    0    0 -0.33162859288E+02 -0.30270885902E+03 -0.44715105072E+03  0.54800682261E+03  0.87378412095E+02 0.  0.
         23    2    4    4    0    0 -0.70272727107E+03  0.43804633854E+03 -0.15985603648E+04  0.18026078215E+04  0.91046724965E+02 0.  0.
         11    1    3    3    0    0  0.59602223968E+03 -0.76647117716E+02 -0.76221236334E+03  0.97061062104E+03  0.00000000000E+00 0.  1.
        -11    1    3    3    0    0  0.13986789068E+03 -0.58690361806E+02 -0.23149502278E+03  0.27676258957E+03  0.00000000000E+00 0. -1.
          4    1    5    5  502    0 -0.34714641697E+02 -0.29075274104E+03 -0.37973691221E+03  0.47952308105E+03  0.00000000000E+00 0. -1.
          1    1    6    6  503    0 -0.61466675812E+03  0.36030437750E+03 -0.13135324319E+04  0.14943232306E+04  0.00000000000E+00 0. -1.
         -4    1    5    5    0  502  0.15517824090E+01 -0.11956117977E+02 -0.67414138513E+02  0.68483741554E+02  0.00000000000E+00 0.  1.
         -1    1    6    6    0  503 -0.88060512944E+02  0.77741961042E+02 -0.28502793287E+03  0.30828459087E+03  0.00000000000E+00 0.  1.
<mgrwt>
<rscale>  0 0.19254740E+04</rscale>
<asrwt>0</asrwt>
<pdfrwt beam="1">  1        1 0.51056976E+00 0.19254740E+04</pdfrwt>
<pdfrwt beam="2">  1       -1 0.42966849E-01 0.19254740E+04</pdfrwt>
<totfact> 0.17289793E+00</totfact>
</mgrwt>
</event>
<event>
12    1  0.4403484E-008  0.1899938E+04  0.7818608E-02  0.8654887E-01
          2   -1    0    0  501    0  0.00000000000E+00  0.00000000000E+00  0.19975992665E+04  0.19975992665E+04  0.00000000000E+00 0. -1.
         -2   -1    0    0    0  501 -0.00000000000E+00 -0.00000000000E+00 -0.45176305568E+03  0.45176305568E+03  0.00000000000E+00 0.  1.
         23    2    1    2    0    0 -0.22723158215E+03 -0.58162022581E+03  0.10515165407E+03  0.63980054834E+03  0.91496405958E+02 0.  0.
        254    2    1    2    0    0  0.22723158215E+03  0.58162022581E+03  0.14406845567E+04  0.18095617738E+04  0.89945847169E+03 0.  0.
         23    2    4    4    0    0  0.51735250356E+03  0.58929916998E+03  0.99806533766E+03  0.12727815024E+04  0.94399204756E+02 0.  0.
         23    2    4    4    0    0 -0.29012092141E+03 -0.76789441680E+01  0.44261921908E+03  0.53678027147E+03  0.89398945798E+02 0.  0.
         11    1    3    3    0    0 -0.78848281278E+02 -0.10672744926E+03  0.85108173313E+01  0.13296704065E+03  0.00000000000E+00 0. -1.
        -11    1    3    3    0    0 -0.14838330088E+03 -0.47489277655E+03  0.96640836739E+02  0.50683350770E+03  0.00000000000E+00 0.  1.
          1    1    5    5  502    0  0.69862779365E+02  0.83198585695E+02  0.19621069610E+03  0.22427984721E+03  0.00000000000E+00 0. -1.
          1    1    6    6  503    0  0.11458898587E+01  0.18276760420E+00  0.38794410613E+02  0.38811760620E+02  0.00000000000E+00 0. -1.
         -1    1    5    5    0  502  0.44748972420E+03  0.50610058429E+03  0.80185464156E+03  0.10485016552E+04  0.00000000000E+00 0.  1.
         -1    1    6    6    0  503 -0.29126681127E+03 -0.78617117722E+01  0.40382480847E+03  0.49796851085E+03  0.00000000000E+00 0.  1.
<mgrwt>
<rscale>  0 0.18999385E+04</rscale>
<asrwt>0</asrwt>
<pdfrwt beam="1">  1        2 0.30732296E+00 0.18999385E+04</pdfrwt>
<pdfrwt beam="2">  1       -2 0.69502010E-01 0.18999385E+04</pdfrwt>
<totfact> 0.11850585E+01</totfact>
</mgrwt>
</event>
<event>
12    1  0.5001411E-008  0.2300069E+04  0.7818608E-02  0.8477894E-01
         -2   -1    0    0    0  501 -0.00000000000E+00  0.00000000000E+00  0.38079913980E+03  0.38079913980E+03  0.00000000000E+00 0.  1.
          2   -1    0    0  501    0  0.00000000000E+00 -0.00000000000E+00 -0.34731688472E+04  0.34731688472E+04  0.00000000000E+00 0. -1.
         23    2    1    2    0    0  0.21175575915E+03 -0.66494241796E+03 -0.24114871534E+04  0.25121492502E+04  0.92922782551E+02 0.  0.
        254    2    1    2    0    0 -0.21175575915E+03  0.66494241796E+03 -0.68088255401E+03  0.13418187368E+04  0.92189345881E+03 0.  0.
         23    2    4    4    0    0 -0.49617756841E+03  0.97785515271E+02 -0.27035677300E+03  0.58087441192E+03  0.92564093094E+02 0.  0.
         23    2    4    4    0    0  0.28442180926E+03  0.56715690269E+03 -0.41052578101E+03  0.76094432490E+03  0.89118633675E+02 0.  0.
         13    1    3    3    0    0  0.92800039471E+01 -0.13925963334E+03 -0.42485032101E+03  0.44718805800E+03  0.00000000000E+00 0.  1.
        -13    1    3    3    0    0  0.20247575520E+03 -0.52568278462E+03 -0.19866368324E+04  0.20649611922E+04  0.00000000000E+00 0. -1.
          1    1    5    5  502    0 -0.49752703430E+03  0.90742765551E+02 -0.27083254038E+03  0.57368777596E+03  0.00000000000E+00 0. -1.
          3    1    6    6  503    0  0.23703767618E+03  0.50342913161E+03 -0.32573446242E+03  0.64477181273E+03  0.00000000000E+00 0. -1.
         -1    1    5    5    0  502  0.13494658934E+01  0.70427497204E+01  0.47576737789E+00  0.71866359598E+01  0.00000000000E+00 0.  1.
         -3    1    6    6    0  503  0.47384133080E+02  0.63727771073E+02 -0.84791318596E+02  0.11617251217E+03  0.00000000000E+00 0.  1.
<mgrwt>
<rscale>  0 0.23000693E+04</rscale>
<asrwt>0</asrwt>
<pdfrwt beam="1">  1        2 0.53433364E+00 0.23000693E+04</pdfrwt>
<pdfrwt beam="2">  1       -2 0.58584486E-01 0.23000693E+04</pdfrwt>
<totfact> 0.21015253E+00</totfact>
</mgrwt>
</event>
<event>
12    1  0.4403484E-008  0.1365551E+04  0.7818608E-02  0.8979139E-01
          1   -1    0    0  501    0  0.00000000000E+00  0.00000000000E+00  0.71441744258E+03  0.71441744258E+03  0.00000000000E+00 0. -1.
         -1   -1    0    0    0  501 -0.00000000000E+00 -0.00000000000E+00 -0.65253493895E+03  0.65253493895E+03  0.00000000000E+00 0.  1.
         23    2    1    2    0    0  0.26442504452E+03  0.12953273666E+03 -0.25899841916E+03  0.40294779961E+03  0.92668301203E+02 0.  0.
        254    2    1    2    0    0 -0.26442504452E+03 -0.12953273666E+03  0.32088092279E+03  0.96400458193E+03  0.86002379812E+03 0.  0.
         23    2    4    4    0    0  0.19819633383E+03  0.96373816803E+02  0.36782849660E+03  0.43836084621E+03  0.91064423742E+02 0.  0.
         23    2    4    4    0    0 -0.46262137834E+03 -0.22590655346E+03 -0.46947573810E+02  0.52564373572E+03  0.95104950524E+02 0.  0.
         13    1    3    3    0    0  0.20834259151E+03  0.11363819602E+03 -0.24868590474E+03  0.34375129709E+03  0.00000000000E+00 0.  1.
        -13    1    3    3    0    0  0.56082453004E+02  0.15894540636E+02 -0.10312514421E+02  0.59196502521E+02  0.00000000000E+00 0. -1.
          1    1    5    5  502    0  0.10964889249E+03  0.92702274426E+02  0.27370342258E+03  0.30907952834E+03  0.00000000000E+00 0.  1.
          3    1    6    6  503    0 -0.38488050213E+03 -0.18182383781E+03 -0.21456086068E+01  0.42567301130E+03  0.00000000000E+00 0. -1.
         -1    1    5    5    0  502  0.88547441334E+02  0.36715423773E+01  0.94125074018E+02  0.12928131787E+03  0.00000000000E+00 0. -1.
         -3    1    6    6    0  503 -0.77740876216E+02 -0.44082715657E+02 -0.44801965203E+02  0.99970724418E+02  0.00000000000E+00 0.  1.
<mgrwt>
<rscale>  0 0.13655509E+04</rscale>
<asrwt>0</asrwt>
<pdfrwt beam="1">  1        1 0.10991038E+00 0.13655509E+04</pdfrwt>
<pdfrwt beam="2">  1       -1 0.10038999E+00 0.13655509E+04</pdfrwt>
<totfact> 0.24400102E+01</totfact>
</mgrwt>
</event>
<event>
12    1  0.4403484E-008  0.2222392E+04  0.7818608E-02  0.8509165E-01
          2   -1    0    0  501    0  0.00000000000E+00  0.00000000000E+00  0.14230588763E+04  0.14230588763E+04  0.00000000000E+00 0. -1.
         -2   -1    0    0    0  501 -0.00000000000E+00 -0.00000000000E+00 -0.86767800065E+03  0.86767800065E+03  0.00000000000E+00 0.  1.
         23    2    1    2    0    0 -0.43417450312E+03 -0.17927622062E+03  0.10512169092E+04  0.11549575713E+04  0.90678216059E+02 0.  0.
        254    2    1    2    0    0  0.43417450312E+03  0.17927622062E+03 -0.49583603359E+03  0.11357793056E+04  0.90746558967E+03 0.  0.
         23    2    4    4    0    0  0.34698842187E+03  0.18800456740E+03  0.18407145095E+03  0.44394208133E+03  0.86345759859E+02 0.  0.
         23    2    4    4    0    0  0.87186081251E+02 -0.87283467796E+01 -0.67990748454E+03  0.69183722429E+03  0.93203865705E+02 0.  0.
         13    1    3    3    0    0 -0.79665376268E+02 -0.73648872299E+02  0.23837789196E+03  0.26190599066E+03  0.00000000000E+00 0.  1.
        -13    1    3    3    0    0 -0.35450912686E+03 -0.10562734833E+03  0.81283901723E+03  0.89305158063E+03  0.00000000000E+00 0. -1.
          4    1    5    5  502    0  0.22690057531E+03  0.15264660269E+03  0.15880123676E+03  0.31623201796E+03  0.00000000000E+00 0. -1.
          1    1    6    6  503    0  0.46481920469E+02 -0.25481982770E+02 -0.58295958399E+03  0.58536465296E+03  0.00000000000E+00 0. -1.
         -4    1    5    5    0  502  0.12008784656E+03  0.35357964717E+02  0.25270214189E+02  0.12771006337E+03  0.00000000000E+00 0.  1.
         -1    1    6    6    0  503  0.40704160782E+02  0.16753635991E+02 -0.96947900549E+02  0.10647257133E+03  0.00000000000E+00 0.  1.
<mgrwt>
<rscale>  0 0.22223923E+04</rscale>
<asrwt>0</asrwt>
<pdfrwt beam="1">  1        2 0.21893214E+00 0.22223923E+04</pdfrwt>
<pdfrwt beam="2">  1       -2 0.13348892E+00 0.22223923E+04</pdfrwt>
<totfact> 0.52010544E+00</totfact>
</mgrwt>
</event>
<event>
12    1  0.4403484E-008  0.2297843E+04  0.7818608E-02  0.8478772E-01
          2   -1    0    0  501    0  0.00000000000E+00  0.00000000000E+00  0.62717362090E+03  0.62717362090E+03  0.00000000000E+00 0.  1.
         -2   -1    0    0    0  501 -0.00000000000E+00 -0.00000000000E+00 -0.21047135222E+04  0.21047135222E+04  0.00000000000E+00 0. -1.
         23    2    1    2    0    0  0.40926888160E+02 -0.37760483089E+03  0.45196141741E+03  0.59836546872E+03  0.97527908023E+02 0.  0.
        254    2    1    2    0    0 -0.40926888160E+02  0.37760483089E+03 -0.19295013187E+04  0.21335216743E+04  0.82745330843E+03 0.  0.
         23    2    4    4    0    0 -0.31071918968E+03  0.48427856734E+03 -0.10222734902E+04  0.11773176447E+04  0.99807826316E+02 0.  0.
         23    2    4    4    0    0  0.26979230152E+03 -0.10667373645E+03 -0.90722782852E+03  0.95620402966E+03  0.84241566239E+02 0.  0.
         11    1    3    3    0    0  0.11991635037E+02 -0.33440422845E+03  0.35187011967E+03  0.48557447259E+03  0.00000000000E+00 0.  1.
        -11    1    3    3    0    0  0.28935253123E+02 -0.43200602445E+02  0.10009129775E+03  0.11279099614E+03  0.00000000000E+00 0. -1.
          4    1    5    5  502    0 -0.19892379282E+03  0.21811566858E+03 -0.52712532451E+03  0.60415745296E+03  0.00000000000E+00 0. -1.
          4    1    6    6  503    0  0.17403897268E+03 -0.67148196079E+02 -0.44513620392E+03  0.48264343390E+03  0.00000000000E+00 0. -1.
         -4    1    5    5    0  502 -0.11179539687E+03  0.26616289876E+03 -0.49514816564E+03  0.57316019172E+03  0.00000000000E+00 0.  1.
         -4    1    6    6    0  503  0.95753328840E+02 -0.39525540368E+02 -0.46209162461E+03  0.47356059576E+03  0.00000000000E+00 0.  1.
<mgrwt>
<rscale>  0 0.22978432E+04</rscale>
<asrwt>0</asrwt>
<pdfrwt beam="1">  1        2 0.96488252E-01 0.22978432E+04</pdfrwt>
<pdfrwt beam="2">  1       -2 0.32380207E+00 0.22978432E+04</pdfrwt>
<totfact> 0.96713161E-01</totfact>
</mgrwt>
</event>
<event>
12    1  0.4403484E-008  0.1483379E+04  0.7818608E-02  0.8895581E-01
         -2   -1    0    0    0  501 -0.00000000000E+00  0.00000000000E+00  0.11716959390E+04  0.11716959390E+04  0.00000000000E+00 0.  1.
          2   -1    0    0  501    0  0.00000000000E+00 -0.00000000000E+00 -0.46949326604E+03  0.46949326604E+03  0.00000000000E+00 0. -1.
         23    2    1    2    0    0  0.40452248695E+03 -0.15149234876E+03  0.40256722262E+03  0.59751151878E+03  0.91494656452E+02 0.  0.
        254    2    1    2    0    0 -0.40452248695E+03  0.15149234876E+03  0.29963545034E+03  0.10436776863E+04  0.90160597577E+03 0.  0.
         23    2    4    4    0    0 -0.26375695796E+03 -0.26603689867E+03 -0.14438905208E+03  0.41177568400E+03  0.91474866766E+02 0.  0.
         23    2    4    4    0    0 -0.14076552898E+03  0.41752924743E+03  0.44402450241E+03  0.63190200227E+03  0.89424689627E+02 0.  0.
         11    1    3    3    0    0  0.33322781530E+03 -0.13604166835E+03  0.37429911768E+03  0.51927636372E+03  0.00000000000E+00 0.  1.
        -11    1    3    3    0    0  0.71294671642E+02 -0.15450680414E+02  0.28268104943E+02  0.78235155058E+02  0.00000000000E+00 0. -1.
          2    1    5    5  502    0 -0.13861827679E+03 -0.99666556609E+02 -0.27212593337E+02  0.17288428038E+03  0.00000000000E+00 0. -1.
          3    1    6    6  503    0 -0.15294808810E+03  0.38064954375E+03  0.41386511039E+03  0.58272765715E+03  0.00000000000E+00 0.  1.
         -2    1    5    5    0  502 -0.12513868118E+03 -0.16637034206E+03 -0.11717645874E+03  0.23889140363E+03  0.00000000000E+00 0.  1.
         -3    1    6    6    0  503  0.12182559119E+02  0.36879703682E+02  0.30159392024E+02  0.49174345116E+02  0.00000000000E+00 0. -1.
<mgrwt>
<rscale>  0 0.14833791E+04</rscale>
<asrwt>0</asrwt>
<pdfrwt beam="1">  1        2 0.72229733E-01 0.14833791E+04</pdfrwt>
<pdfrwt beam="2">  1       -2 0.18026091E+00 0.14833791E+04</pdfrwt>
<totfact> 0.11558296E+01</totfact>
</mgrwt>
</event>
<event>
12    1  0.4403484E-008  0.1154210E+04  0.7818608E-02  0.9153908E-01
          2   -1    0    0  501    0  0.00000000000E+00  0.00000000000E+00  0.33748224852E+04  0.33748224852E+04  0.00000000000E+00 0. -1.
         -2   -1    0    0    0  501 -0.00000000000E+00 -0.00000000000E+00 -0.98686741920E+02  0.98686741920E+02  0.00000000000E+00 0.  1.
         23    2    1    2    0    0 -0.35140373606E+02  0.18137608204E+03  0.59565064324E+03  0.63032111630E+03  0.91503507407E+02 0.  0.
        254    2    1    2    0    0  0.35140373606E+02 -0.18137608204E+03  0.26804851000E+04  0.28431881108E+04  0.92983123898E+03 0.  0.
         23    2    4    4    0    0  0.30616052147E+03 -0.19629865816E+03  0.24402380751E+04  0.24688575656E+04  0.90710463427E+02 0.  0.
         23    2    4    4    0    0 -0.27102014787E+03  0.14922576116E+02  0.24024702496E+03  0.37433054520E+03  0.93435112433E+02 0.  0.
         11    1    3    3    0    0 -0.56972500544E+02  0.15778476474E+03  0.54586330187E+03  0.57105922822E+03  0.00000000000E+00 0. -1.
        -11    1    3    3    0    0  0.21832126938E+02  0.23591317300E+02  0.49787341372E+02  0.59261888086E+02  0.00000000000E+00 0.  1.
          2    1    5    5  502    0  0.20580107494E+03 -0.10150654293E+03  0.12767026916E+04  0.12971612943E+04  0.00000000000E+00 0.  1.
          3    1    6    6  503    0 -0.78040562140E+02  0.23792763877E+02  0.25503588398E+02  0.85480161284E+02  0.00000000000E+00 0. -1.
         -2    1    5    5    0  502  0.10035944653E+03 -0.94792115232E+02  0.11635353835E+04  0.11716962713E+04  0.00000000000E+00 0. -1.
         -3    1    6    6    0  503 -0.19297958573E+03 -0.88701877611E+01  0.21474343657E+03  0.28885038391E+03  0.00000000000E+00 0.  1.
<mgrwt>
<rscale>  0 0.11542101E+04</rscale>
<asrwt>0</asrwt>
<pdfrwt beam="1">  1        2 0.51920337E+00 0.11542101E+04</pdfrwt>
<pdfrwt beam="2">  1       -2 0.15182578E-01 0.11542101E+04</pdfrwt>
<totfact> 0.34623815E+01</totfact>
</mgrwt>
</event>
<event>
12    1  0.4403484E-008  0.1615834E+04  0.7818608E-02  0.8810879E-01
         -2   -1    0    0    0  501 -0.00000000000E+00  0.00000000000E+00  0.24215073739E+03  0.24215073739E+03  0.00000000000E+00 0. -1.
          2   -1    0    0  501    0  0.00000000000E+00 -0.00000000000E+00 -0.26955529624E+04  0.26955529624E+04  0.00000000000E+00 0.  1.
         23    2    1    2    0    0  0.17853664149E+02  0.26329897925E+03 -0.16788916419E+04  0.17019379104E+04  0.90941740048E+02 0.  0.
        254    2    1    2    0    0 -0.17853664149E+02 -0.26329897925E+03 -0.77451058315E+03  0.12357657894E+04  0.92606983373E+03 0.  0.
         23    2    4    4    0    0 -0.34829501458E+03 -0.16962880439E+03 -0.15208396654E+02  0.39775436279E+03  0.88847562302E+02 0.  0.
         23    2    4    4    0    0  0.33044135043E+03 -0.93670174857E+02 -0.75930218649E+03  0.83801142657E+03  0.88078106918E+02 0.  0.
         13    1    3    3    0    0 -0.13171111659E+02  0.19485173485E+03 -0.13796525059E+04  0.13934065142E+04  0.00000000000E+00 0.  1.
        -13    1    3    3    0    0  0.31024775808E+02  0.68447244400E+02 -0.29923913597E+03  0.30853139625E+03  0.00000000000E+00 0. -1.
          4    1    5    5  502    0 -0.25465176257E+03 -0.11352648642E+03 -0.49837445243E+02  0.28323056729E+03  0.00000000000E+00 0. -1.
          1    1    6    6  503    0  0.31323632596E+03 -0.10598810490E+03 -0.73383855278E+03  0.80490340776E+03  0.00000000000E+00 0. -1.
         -4    1    5    5    0  502 -0.93643252004E+02 -0.56102317977E+02  0.34629048589E+02  0.11452379549E+03  0.00000000000E+00 0.  1.
         -1    1    6    6    0  503  0.17205024470E+02  0.12317930042E+02 -0.25463633712E+02  0.33108018807E+02  0.00000000000E+00 0.  1.
<mgrwt>
<rscale>  0 0.16158343E+04</rscale>
<asrwt>0</asrwt>
<pdfrwt beam="1">  1        2 0.41470043E+00 0.16158343E+04</pdfrwt>
<pdfrwt beam="2">  1       -2 0.37253962E-01 0.16158343E+04</pdfrwt>
<totfact> 0.17440761E+01</totfact>
</mgrwt>
</event>
<event>
12    1  0.4403484E-008  0.5121128E+04  0.7818608E-02  0.7810089E-01
         -2   -1    0    0    0  501 -0.00000000000E+00  0.00000000000E+00  0.19761755243E+04  0.19761755243E+04  0.00000000000E+00 0.  1.
          2   -1    0    0  501    0  0.00000000000E+00 -0.00000000000E+00 -0.33177655376E+04  0.33177655376E+04  0.00000000000E+00 0. -1.
         23    2    1    2    0    0  0.18907317867E+03 -0.23932124482E+04 -0.12983551806E+04  0.27307951930E+04  0.91113784024E+02 0.  0.
        254    2    1    2    0    0 -0.18907317867E+03  0.23932124482E+04 -0.43234832614E+02  0.25631458690E+04  0.89701338088E+03 0.  0.
         23    2    4    4    0    0 -0.51882948079E+03  0.18253331230E+04 -0.37489239196E+02  0.19000313302E+04  0.87684507070E+02 0.  0.
         23    2    4    4    0    0  0.32975630213E+03  0.56787932526E+03 -0.57455934179E+01  0.66311453873E+03  0.91987677336E+02 0.  0.
         13    1    3    3    0    0  0.30441344185E+02 -0.79417002339E+03 -0.39761587094E+03  0.88866815083E+03  0.00000000000E+00 0.  1.
        -13    1    3    3    0    0  0.15863183448E+03 -0.15990424249E+04 -0.90073930971E+03  0.18421270422E+04  0.00000000000E+00 0. -1.
          2    1    5    5  502    0 -0.28677742482E+03  0.11079922898E+04 -0.55878673262E+02  0.11458667601E+04  0.00000000000E+00 0. -1.
          1    1    6    6  503    0  0.79931560974E+02  0.12622179766E+03  0.36947441995E+02  0.15390292432E+03  0.00000000000E+00 0. -1.
         -2    1    5    5    0  502 -0.23205205598E+03  0.71734083316E+03  0.18389434065E+02  0.75416457016E+03  0.00000000000E+00 0.  1.
         -1    1    6    6    0  503  0.24982474115E+03  0.44165752760E+03 -0.42693035413E+02  0.50921161441E+03  0.00000000000E+00 0.  1.
<mgrwt>
<rscale>  0 0.51211276E+04</rscale>
<asrwt>0</asrwt>
<pdfrwt beam="1">  1        2 0.51042546E+00 0.51211276E+04</pdfrwt>
<pdfrwt beam="2">  1       -2 0.30402701E+00 0.51211276E+04</pdfrwt>
<totfact> 0.23435313E-02</totfact>
</mgrwt>
</event>
<event>
12    1  0.4403484E-008  0.1709539E+04  0.7818608E-02  0.8755943E-01
         -2   -1    0    0    0  501 -0.00000000000E+00  0.00000000000E+00  0.26524148767E+03  0.26524148767E+03  0.00000000000E+00 0. -1.
          2   -1    0    0  501    0  0.00000000000E+00 -0.00000000000E+00 -0.27545863155E+04  0.27545863155E+04  0.00000000000E+00 0.  1.
         23    2    1    2    0    0 -0.54474380658E+03  0.16365845516E+03 -0.49591622537E+03  0.75974205278E+03  0.88006700943E+02 0.  0.
        254    2    1    2    0    0  0.54474380658E+03 -0.16365845516E+03 -0.19934286024E+04  0.22600857504E+04  0.90038886115E+03 0.  0.
         23    2    4    4    0    0  0.83451343143E+02  0.33770983826E+03 -0.89192049201E+03  0.96170486162E+03  0.91334633496E+02 0.  0.
         23    2    4    4    0    0  0.46129246344E+03 -0.50136829341E+03 -0.11015081104E+04  0.12983808888E+04  0.91169690574E+02 0.  0.
         13    1    3    3    0    0 -0.36403190974E+03  0.12274005148E+03 -0.28091845814E+03  0.47591966934E+03  0.00000000000E+00 0. -1.
        -13    1    3    3    0    0 -0.18071189685E+03  0.40918403673E+02 -0.21499776723E+03  0.28382238343E+03  0.00000000000E+00 0.  1.
          4    1    5    5  502    0  0.25175418671E+02  0.24047288420E+03 -0.53231029130E+03  0.58464968653E+03  0.00000000000E+00 0. -1.
          3    1    6    6  503    0  0.29276397071E+03 -0.34961776657E+03 -0.80370683249E+03  0.92406060290E+03  0.00000000000E+00 0. -1.
         -4    1    5    5    0  502  0.58275924472E+02  0.97236954058E+02 -0.35961020071E+03  0.37705517509E+03  0.00000000000E+00 0.  1.
         -3    1    6    6    0  503  0.16852849273E+03 -0.15175052684E+03 -0.29780127795E+03  0.37432028586E+03  0.00000000000E+00 0.  1.
<mgrwt>
<rscale>  0 0.17095386E+04</rscale>
<asrwt>0</asrwt>
<pdfrwt beam="1">  1        2 0.42378250E+00 0.17095386E+04</pdfrwt>
<pdfrwt beam="2">  1       -2 0.40806383E-01 0.17095386E+04</pdfrwt>
<totfact> 0.13358150E+01</totfact>
</mgrwt>
</event>
<event>
12    1  0.4403484E-008  0.2656303E+04  0.7818608E-02  0.8349324E-01
          2   -1    0    0  501    0  0.00000000000E+00  0.00000000000E+00  0.21219878047E+04  0.21219878047E+04  0.00000000000E+00 0. -1.
         -2   -1    0    0    0  501 -0.00000000000E+00 -0.00000000000E+00 -0.83128963642E+03  0.83128963642E+03  0.00000000000E+00 0.  1.
         23    2    1    2    0    0  0.57702292062E+03  0.10135285511E+03 -0.55566633076E+03  0.81254032686E+03  0.90713061187E+02 0.  0.
        254    2    1    2    0    0 -0.57702292062E+03 -0.10135285511E+03  0.18463644990E+04  0.21407371142E+04  0.91129889547E+03 0.  0.
         23    2    4    4    0    0 -0.11929871072E+03 -0.26935278419E+03  0.97903488582E+02  0.32323825603E+03  0.90082031230E+02 0.  0.
         23    2    4    4    0    0 -0.45772420990E+03  0.16799992909E+03  0.17484610104E+04  0.18174988582E+04  0.91928048385E+02 0.  0.
         11    1    3    3    0    0  0.37588380358E+03  0.97132288814E+02 -0.40635773643E+03  0.56200527158E+03  0.00000000000E+00 0.  1.
        -11    1    3    3    0    0  0.20113911704E+03  0.42205662925E+01 -0.14930859434E+03  0.25053505529E+03  0.00000000000E+00 0. -1.
          2    1    5    5  502    0 -0.12768087272E+03 -0.26796223407E+03  0.86802044888E+02  0.30925840189E+03  0.00000000000E+00 0. -1.
          3    1    6    6  503    0 -0.37858441719E+03  0.13717247980E+03  0.12952298261E+04  0.13563785432E+04  0.00000000000E+00 0. -1.
         -2    1    5    5    0  502  0.83821620029E+01 -0.13905501273E+01  0.11101443694E+02  0.13979854133E+02  0.00000000000E+00 0.  1.
         -3    1    6    6    0  503 -0.79139792716E+02  0.30827449285E+02  0.45323118438E+03  0.46112031501E+03  0.00000000000E+00 0.  1.
<mgrwt>
<rscale>  0 0.26563030E+04</rscale>
<asrwt>0</asrwt>
<pdfrwt beam="1">  1        2 0.32645966E+00 0.26563030E+04</pdfrwt>
<pdfrwt beam="2">  1       -2 0.12789071E+00 0.26563030E+04</pdfrwt>
<totfact> 0.22762775E+00</totfact>
</mgrwt>
</event>
<event>
12    1  0.4403484E-008  0.1116622E+04  0.7818608E-02  0.9189141E-01
          2   -1    0    0  501    0  0.00000000000E+00  0.00000000000E+00  0.76490207135E+03  0.76490207135E+03  0.00000000000E+00 0. -1.
         -2   -1    0    0    0  501 -0.00000000000E+00 -0.00000000000E+00 -0.40751785647E+03  0.40751785647E+03  0.00000000000E+00 0.  1.
         23    2    1    2    0    0  0.27613803986E+02 -0.17663480926E+03  0.91996884172E+02  0.22122362211E+03  0.92271806462E+02 0.  0.
        254    2    1    2    0    0 -0.27613803986E+02  0.17663480926E+03  0.26538733071E+03  0.95119630571E+03  0.89575755575E+03 0.  0.
         23    2    4    4    0    0 -0.44700760821E+03  0.14226277399E+03  0.18490327952E+03  0.51253292708E+03  0.91903644678E+02 0.  0.
         23    2    4    4    0    0  0.41939380422E+03  0.34372035272E+02  0.80484051194E+02  0.43866337863E+03  0.94208690788E+02 0.  0.
         13    1    3    3    0    0 -0.19664391096E+02 -0.92215203198E+02  0.10788438511E+02  0.94903753264E+02  0.00000000000E+00 0.  1.
        -13    1    3    3    0    0  0.47278195082E+02 -0.84419606063E+02  0.81208445661E+02  0.12631986884E+03  0.00000000000E+00 0. -1.
          2    1    5    5  502    0 -0.17025345238E+03  0.98707303505E+02  0.93153516763E+02  0.21773136544E+03  0.00000000000E+00 0. -1.
          1    1    6    6  503    0  0.89699593241E+02 -0.19268384663E+01 -0.20329342829E+02  0.91994629810E+02  0.00000000000E+00 0. -1.
         -2    1    5    5    0  502 -0.27675415583E+03  0.43555470484E+02  0.91749762754E+02  0.29480156164E+03  0.00000000000E+00 0.  1.
         -1    1    6    6    0  503  0.32969421098E+03  0.36298873738E+02  0.10081339402E+03  0.34666874882E+03  0.00000000000E+00 0.  1.
<mgrwt>
<rscale>  0 0.11166221E+04</rscale>
<asrwt>0</asrwt>
<pdfrwt beam="1">  1        2 0.11767724E+00 0.11166221E+04</pdfrwt>
<pdfrwt beam="2">  1       -2 0.62695055E-01 0.11166221E+04</pdfrwt>
<totfact> 0.85554177E+01</totfact>
</mgrwt>
</event>
<event>
12    1  0.4403484E-008  0.1411020E+04  0.7818608E-02  0.8945880E-01
         -1   -1    0    0    0  501 -0.00000000000E+00  0.00000000000E+00  0.40980517824E+03  0.40980517824E+03  0.00000000000E+00 0.  1.
          1   -1    0    0  501    0  0.00000000000E+00 -0.00000000000E+00 -0.12145879703E+04  0.12145879703E+04  0.00000000000E+00 0. -1.
         23    2    1    2    0    0  0.26373901302E+03 -0.22570211388E+03 -0.45203206094E+03  0.57614609053E+03  0.84330435260E+02 0.  0.
        254    2    1    2    0    0 -0.26373901302E+03  0.22570211388E+03 -0.35275073112E+03  0.10482470580E+04  0.92406120206E+03 0.  0.
         23    2    4    4    0    0 -0.30848500545E+02 -0.11995706366E+03 -0.55498716258E+03  0.57604205723E+03  0.92045499456E+02 0.  0.
         23    2    4    4    0    0 -0.23289051248E+03  0.34565917754E+03  0.20223643146E+03  0.47220500079E+03  0.91431563191E+02 0.  0.
         13    1    3    3    0    0  0.21991883026E+03 -0.17372249716E+03 -0.40857878511E+03  0.49545980822E+03  0.00000000000E+00 0. -1.
        -13    1    3    3    0    0  0.43820182760E+02 -0.51979616720E+02 -0.43453275833E+02  0.80686282304E+02  0.00000000000E+00 0.  1.
          2    1    5    5  502    0 -0.53716589812E+02 -0.99674763308E+02 -0.32772757728E+03  0.34673606010E+03  0.00000000000E+00 0. -1.
          3    1    6    6  503    0 -0.81878306064E+02  0.20222343280E+03  0.95216757172E+02  0.23804328309E+03  0.00000000000E+00 0. -1.
         -2    1    5    5    0  502  0.22868089267E+02 -0.20282300354E+02 -0.22725958530E+03  0.22930599714E+03  0.00000000000E+00 0.  1.
         -3    1    6    6    0  503 -0.15101220641E+03  0.14343574474E+03  0.10701967428E+03  0.23416171770E+03  0.00000000000E+00 0.  1.
<mgrwt>
<rscale>  0 0.14110201E+04</rscale>
<asrwt>0</asrwt>
<pdfrwt beam="1">  1        1 0.18685969E+00 0.14110201E+04</pdfrwt>
<pdfrwt beam="2">  1       -1 0.63046950E-01 0.14110201E+04</pdfrwt>
<totfact> 0.25918647E+01</totfact>
</mgrwt>
</event>
<event>
12    1  0.4403484E-008  0.1720716E+04  0.7818608E-02  0.8749637E-01
         -4   -1    0    0    0  501 -0.00000000000E+00  0.00000000000E+00  0.13496985594E+04  0.13496985594E+04  0.00000000000E+00 0.  1.
          4   -1    0    0  501    0  0.00000000000E+00 -0.00000000000E+00 -0.54843055500E+03  0.54843055500E+03  0.00000000000E+00 0. -1.
         23    2    1    2    0    0  0.41065712159E+03 -0.10302740984E+03 -0.20167552939E+03  0.47775748343E+03  0.91242945639E+02 0.  0.
        254    2    1    2    0    0 -0.41065712159E+03  0.10302740984E+03  0.10029435338E+04  0.14203716309E+04  0.91230801782E+03 0.  0.
         23    2    4    4    0    0  0.36599675616E+02 -0.67402564602E+02  0.91888848750E+03  0.92649140386E+03  0.90264206628E+02 0.  0.
         23    2    4    4    0    0 -0.44725679721E+03  0.17042997444E+03  0.84055046263E+02  0.49388022708E+03  0.88132905679E+02 0.  0.
         11    1    3    3    0    0  0.15921906641E+03 -0.33507614280E+01 -0.10391085831E+03  0.19015626517E+03  0.00000000000E+00 0.  1.
        -11    1    3    3    0    0  0.25143805518E+03 -0.99676648411E+02 -0.97764671080E+02  0.28760121826E+03  0.00000000000E+00 0. -1.
          2    1    5    5  502    0  0.60036793271E+02 -0.25679702973E+02  0.38859940418E+03  0.39404740910E+03  0.00000000000E+00 0. -1.
          3    1    6    6  503    0 -0.29942102997E+03  0.15574893553E+03  0.69670786117E+02  0.34462255083E+03  0.00000000000E+00 0. -1.
         -2    1    5    5    0  502 -0.23437117655E+02 -0.41722861628E+02  0.53028908332E+03  0.53244399476E+03  0.00000000000E+00 0.  1.
         -3    1    6    6    0  503 -0.14783576724E+03  0.14681038913E+02  0.14384260147E+02  0.14925767625E+03  0.00000000000E+00 0.  1.
<mgrwt>
<rscale>  0 0.17207160E+04</rscale>
<asrwt>0</asrwt>
<pdfrwt beam="1">  1        4 0.84373932E-01 0.17207160E+04</pdfrwt>
<pdfrwt beam="2">  1       -4 0.20764593E+00 0.17207160E+04</pdfrwt>
<totfact> 0.27376621E-01</totfact>
</mgrwt>
</event>
<event>
12    1  0.4403484E-008  0.1960997E+04  0.7818608E-02  0.8625076E-01
          2   -1    0    0  501    0  0.00000000000E+00  0.00000000000E+00  0.14244113289E+04  0.14244113289E+04  0.00000000000E+00 0. -1.
         -2   -1    0    0    0  501 -0.00000000000E+00 -0.00000000000E+00 -0.67492979319E+03  0.67492979319E+03  0.00000000000E+00 0.  1.
         23    2    1    2    0    0 -0.48215974359E+03  0.20985143139E+02 -0.35238649923E+03  0.60436868903E+03  0.90370752331E+02 0.  0.
        254    2    1    2    0    0  0.48215974359E+03 -0.20985143139E+02  0.11018680350E+04  0.14949724331E+04  0.88764351776E+03 0.  0.
         23    2    4    4    0    0 -0.44107608197E+02  0.34363099292E+03  0.33102836205E+03  0.48872066056E+03  0.96126828617E+02 0.  0.
         23    2    4    4    0    0  0.52626735178E+03 -0.36461613606E+03  0.77083967294E+03  0.10062517725E+04  0.91905256321E+02 0.  0.
         11    1    3    3    0    0 -0.30249941883E+03 -0.28123199360E+02 -0.20005844810E+03  0.36375842999E+03  0.00000000000E+00 0.  1.
        -11    1    3    3    0    0 -0.17966032476E+03  0.49108342500E+02 -0.15232805113E+03  0.24061025905E+03  0.00000000000E+00 0. -1.
          2    1    5    5  502    0  0.71037904657E-01  0.28752550003E+03  0.27613141793E+03  0.39864705966E+03  0.00000000000E+00 0. -1.
          1    1    6    6  503    0  0.45331622181E+03 -0.33359826704E+03  0.63130443337E+03  0.84577106141E+03  0.00000000000E+00 0. -1.
         -2    1    5    5    0  502 -0.44178646102E+02  0.56105492893E+02  0.54896944117E+02  0.90073600891E+02  0.00000000000E+00 0.  1.
         -1    1    6    6    0  503  0.72951129973E+02 -0.31017869012E+02  0.13953523957E+03  0.16048071113E+03  0.00000000000E+00 0.  1.
<mgrwt>
<rscale>  0 0.19609973E+04</rscale>
<asrwt>0</asrwt>
<pdfrwt beam="1">  1        2 0.21914020E+00 0.19609973E+04</pdfrwt>
<pdfrwt beam="2">  1       -2 0.10383535E+00 0.19609973E+04</pdfrwt>
<totfact> 0.98618913E+00</totfact>
</mgrwt>
</event>
<event>
12    1  0.6346186E-008  0.1789593E+04  0.7818608E-02  0.8711853E-01
         -2   -1    0    0    0  501 -0.00000000000E+00  0.00000000000E+00  0.75721353351E+03  0.75721353351E+03  0.00000000000E+00 0.  1.
          2   -1    0    0  501    0  0.00000000000E+00 -0.00000000000E+00 -0.10573778926E+04  0.10573778926E+04  0.00000000000E+00 0. -1.
         23    2    1    2    0    0  0.14511866330E+03 -0.25604877216E+03 -0.71616655091E+03  0.77958947095E+03  0.90800960409E+02 0.  0.
        254    2    1    2    0    0 -0.14511866330E+03  0.25604877216E+03  0.41600219179E+03  0.10350019552E+04  0.90086115662E+03 0.  0.
         23    2    4    4    0    0  0.21811613896E+03  0.24606483147E+03 -0.13567329840E+03  0.36777992384E+03  0.93446653857E+02 0.  0.
         23    2    4    4    0    0 -0.36323480226E+03  0.99839406910E+01  0.55167549019E+03  0.66722203135E+03  0.93809338525E+02 0.  0.
         13    1    3    3    0    0  0.15590592395E+03 -0.21671584512E+03 -0.61022436580E+03  0.66606770772E+03  0.00000000000E+00 0. -1.
        -13    1    3    3    0    0 -0.10787260644E+02 -0.39332927036E+02 -0.10594218511E+03  0.11352176324E+03  0.00000000000E+00 0.  1.
          4    1    5    5  502    0  0.11729009194E+03  0.91581113536E+02 -0.10159835057E+03  0.18018404719E+03  0.00000000000E+00 0. -1.
          3    1    6    6  503    0 -0.33544107905E+03  0.33859640697E+02  0.51367450340E+03  0.61443363208E+03  0.00000000000E+00 0. -1.
         -4    1    5    5    0  502  0.10082604702E+03  0.15448371793E+03 -0.34074947830E+02  0.18759587664E+03  0.00000000000E+00 0.  1.
         -3    1    6    6    0  503 -0.27793723212E+02 -0.23875700006E+02  0.38000986787E+02  0.52788399270E+02  0.00000000000E+00 0.  1.
<mgrwt>
<rscale>  0 0.17895931E+04</rscale>
<asrwt>0</asrwt>
<pdfrwt beam="1">  1        2 0.16267352E+00 0.17895931E+04</pdfrwt>
<pdfrwt beam="2">  1       -2 0.11649439E+00 0.17895931E+04</pdfrwt>
<totfact> 0.12503088E+01</totfact>
</mgrwt>
</event>
<event>
12    1  0.4403484E-008  0.1471503E+04  0.7818608E-02  0.8903627E-01
         -2   -1    0    0    0  501 -0.00000000000E+00  0.00000000000E+00  0.45433730065E+03  0.45433730065E+03  0.00000000000E+00 0.  1.
          2   -1    0    0  501    0  0.00000000000E+00 -0.00000000000E+00 -0.11914724361E+04  0.11914724361E+04  0.00000000000E+00 0. -1.
         23    2    1    2    0    0  0.13062102032E+03  0.43274956769E+02 -0.72721735409E+03  0.74577081794E+03  0.91621285542E+02 0.  0.
        254    2    1    2    0    0 -0.13062102032E+03 -0.43274956769E+02 -0.99177813429E+01  0.90003891879E+03  0.88940267602E+03 0.  0.
         23    2    4    4    0    0  0.22825380356E+03 -0.31750667227E+03  0.12374799169E+03  0.41997654688E+03  0.90313059489E+02 0.  0.
         23    2    4    4    0    0 -0.35887482387E+03  0.27423171550E+03 -0.13366577303E+03  0.48006237191E+03  0.92731704647E+02 0.  0.
         11    1    3    3    0    0 -0.32222750873E+01 -0.14527727706E+02 -0.13734366482E+03  0.13814745815E+03  0.00000000000E+00 0.  1.
        -11    1    3    3    0    0  0.13384329540E+03  0.57802684475E+02 -0.58987368927E+03  0.60762335978E+03  0.00000000000E+00 0. -1.
          4    1    5    5  502    0  0.10230646057E+02 -0.71357661187E+02  0.29739464250E+02  0.77980880109E+02  0.00000000000E+00 0. -1.
          1    1    6    6  503    0 -0.70811205614E+02  0.70861905531E+02  0.69994126822E+01  0.10042224989E+03  0.00000000000E+00 0. -1.
         -4    1    5    5    0  502  0.21802315750E+03 -0.24614901108E+03  0.94008527436E+02  0.34199566677E+03  0.00000000000E+00 0.  1.
         -1    1    6    6    0  503 -0.28806361826E+03  0.20336980997E+03 -0.14066518571E+03  0.37964012201E+03  0.00000000000E+00 0.  1.
<mgrwt>
<rscale>  0 0.14715031E+04</rscale>
<asrwt>0</asrwt>
<pdfrwt beam="1">  1        2 0.18330345E+00 0.14715031E+04</pdfrwt>
<pdfrwt beam="2">  1       -2 0.69898046E-01 0.14715031E+04</pdfrwt>
<totfact> 0.34608135E+01</totfact>
</mgrwt>
</event>
<event>
12    1  0.4403484E-008  0.1837825E+04  0.7818608E-02  0.8686439E-01
          3   -1    0    0  501    0  0.00000000000E+00  0.00000000000E+00  0.56821009374E+03  0.56821009374E+03  0.00000000000E+00 0. -1.
         -3   -1    0    0    0  501 -0.00000000000E+00 -0.00000000000E+00 -0.14860695877E+04  0.14860695877E+04  0.00000000000E+00 0.  1.
         23    2    1    2    0    0  0.33773408429E+03 -0.54707956047E+03 -0.11655506003E+03  0.65987096744E+03  0.92110012875E+02 0.  0.
        254    2    1    2    0    0 -0.33773408429E+03  0.54707956047E+03 -0.80130443394E+03  0.13944087140E+04  0.94282899229E+03 0.  0.
         23    2    4    4    0    0 -0.20819486432E+03 -0.23967052058E+03 -0.16095985128E+03  0.36772397832E+03  0.92335207475E+02 0.  0.
         23    2    4    4    0    0 -0.12953921997E+03  0.78675008105E+03 -0.64034458266E+03  0.10266847357E+04  0.91017923747E+02 0.  0.
         13    1    3    3    0    0  0.12684482504E+03 -0.25135298926E+03 -0.90434885916E+02  0.29571338056E+03  0.00000000000E+00 0. -1.
        -13    1    3    3    0    0  0.21088925925E+03 -0.29572657120E+03 -0.26120174110E+02  0.36415758688E+03  0.00000000000E+00 0.  1.
          2    1    5    5  502    0 -0.21643176913E+02 -0.69104273046E+02 -0.65130790726E+02  0.97395315907E+02  0.00000000000E+00 0. -1.
          3    1    6    6  503    0 -0.75076040646E+00  0.25189562218E+03 -0.21778761648E+03  0.33299161251E+03  0.00000000000E+00 0. -1.
         -2    1    5    5    0  502 -0.18655168741E+03 -0.17056624753E+03 -0.95829060553E+02  0.27032866241E+03  0.00000000000E+00 0.  1.
         -3    1    6    6    0  503 -0.12878845957E+03  0.53485445887E+03 -0.42255696619E+03  0.69369312319E+03  0.00000000000E+00 0.  1.
<mgrwt>
<rscale>  0 0.18378245E+04</rscale>
<asrwt>0</asrwt>
<pdfrwt beam="1">  1        3 0.87416938E-01 0.18378245E+04</pdfrwt>
<pdfrwt beam="2">  1       -3 0.22862609E+00 0.18378245E+04</pdfrwt>
<totfact> 0.28672136E-01</totfact>
</mgrwt>
</event>
<event>
12    1  0.4403484E-008  0.1203520E+04  0.7818608E-02  0.9109781E-01
         -1   -1    0    0    0  501 -0.00000000000E+00  0.00000000000E+00  0.12404261530E+04  0.12404261530E+04  0.00000000000E+00 0.  1.
          1   -1    0    0  501    0  0.00000000000E+00 -0.00000000000E+00 -0.29192812787E+03  0.29192812787E+03  0.00000000000E+00 0. -1.
         23    2    1    2    0    0 -0.17635815422E+03  0.16687770074E+03  0.33284075024E+03  0.42207220687E+03  0.91714869192E+02 0.  0.
        254    2    1    2    0    0  0.17635815422E+03 -0.16687770074E+03  0.61565727490E+03  0.11102820740E+04  0.89148305546E+03 0.  0.
         23    2    4    4    0    0 -0.30023221123E+02 -0.14842591546E+03 -0.19777790811E+03  0.26582102587E+03  0.92806630540E+02 0.  0.
         23    2    4    4    0    0  0.20638137534E+03 -0.18451785279E+02  0.81343518300E+03  0.84446104814E+03  0.92216725196E+02 0.  0.
         11    1    3    3    0    0 -0.90457007280E+02  0.13262965947E+03  0.25434391722E+03  0.30077221442E+03  0.00000000000E+00 0.  1.
        -11    1    3    3    0    0 -0.85901146938E+02  0.34248041269E+02  0.78496833019E+02  0.12129999246E+03  0.00000000000E+00 0. -1.
          1    1    5    5  502    0  0.83401767883E+01 -0.12700608709E+03 -0.17482301081E+03  0.21624798222E+03  0.00000000000E+00 0. -1.
          3    1    6    6  503    0  0.17384786716E+03 -0.50473811642E+02  0.66050861607E+03  0.68486664285E+03  0.00000000000E+00 0. -1.
         -1    1    5    5    0  502 -0.38363397911E+02 -0.21419828379E+02 -0.22954897301E+02  0.49573043654E+02  0.00000000000E+00 0.  1.
         -3    1    6    6    0  503  0.32533508185E+02  0.32022026363E+02  0.15292656693E+03  0.15959440529E+03  0.00000000000E+00 0.  1.
<mgrwt>
<rscale>  0 0.12035203E+04</rscale>
<asrwt>0</asrwt>
<pdfrwt beam="1">  1        1 0.44912021E-01 0.12035203E+04</pdfrwt>
<pdfrwt beam="2">  1       -1 0.19083479E+00 0.12035203E+04</pdfrwt>
<totfact> 0.15674347E+01</totfact>
</mgrwt>
</event>
<event>
12    1  0.4403484E-008  0.1538169E+04  0.7818608E-02  0.8859461E-01
          2   -1    0    0  501    0  0.00000000000E+00  0.00000000000E+00  0.13735614536E+04  0.13735614536E+04  0.00000000000E+00 0.  1.
         -2   -1    0    0    0  501 -0.00000000000E+00 -0.00000000000E+00 -0.43062559350E+03  0.43062559350E+03  0.00000000000E+00 0. -1.
         23    2    1    2    0    0  0.12602654229E+03  0.39588447584E+03  0.63106957999E+03  0.76088014506E+03  0.89903130007E+02 0.  0.
        254    2    1    2    0    0 -0.12602654229E+03 -0.39588447584E+03  0.31186628015E+03  0.10433069021E+04  0.90477704859E+03 0.  0.
         23    2    4    4    0    0 -0.34664291198E+03  0.11247062460E+03 -0.44369620664E+02  0.37821420949E+03  0.90919608431E+02 0.  0.
         23    2    4    4    0    0  0.22061636969E+03 -0.50835510044E+03  0.35623590082E+03  0.66509269259E+03  0.91366197181E+02 0.  0.
         13    1    3    3    0    0  0.41510435794E+02  0.22407958422E+03  0.28025555059E+03  0.36121731683E+03  0.00000000000E+00 0. -1.
        -13    1    3    3    0    0  0.84516106498E+02  0.17180489162E+03  0.35081402940E+03  0.39966282823E+03  0.00000000000E+00 0.  1.
          2    1    5    5  502    0 -0.89001353930E+02  0.99260348729E+01  0.23794778421E+02  0.92660448142E+02  0.00000000000E+00 0. -1.
          4    1    6    6  503    0  0.41221670637E+01  0.26257282056E+01  0.96154767029E+01  0.10786292326E+02  0.00000000000E+00 0. -1.
         -2    1    5    5    0  502 -0.25764155805E+03  0.10254458973E+03 -0.68164399086E+02  0.28555376135E+03  0.00000000000E+00 0.  1.
         -4    1    6    6    0  503  0.21649420262E+03 -0.51098082864E+03  0.34662042412E+03  0.65430640026E+03  0.00000000000E+00 0.  1.
<mgrwt>
<rscale>  0 0.15381687E+04</rscale>
<asrwt>0</asrwt>
<pdfrwt beam="1">  1        2 0.21131715E+00 0.15381687E+04</pdfrwt>
<pdfrwt beam="2">  1       -2 0.66250092E-01 0.15381687E+04</pdfrwt>
<totfact> 0.30249145E+01</totfact>
</mgrwt>
</event>
<event>
12    1  0.4403484E-008  0.1349955E+04  0.7818608E-02  0.8990862E-01
          2   -1    0    0  501    0  0.00000000000E+00  0.00000000000E+00  0.58964396018E+03  0.58964396018E+03  0.00000000000E+00 0. -1.
         -2   -1    0    0    0  501 -0.00000000000E+00 -0.00000000000E+00 -0.77266094870E+03  0.77266094870E+03  0.00000000000E+00 0.  1.
         23    2    1    2    0    0  0.18308024856E+03  0.29660430197E+03 -0.18022439870E+03  0.40250826421E+03  0.89663702312E+02 0.  0.
        254    2    1    2    0    0 -0.18308024856E+03 -0.29660430197E+03 -0.27925898140E+01  0.95979664466E+03  0.89426467625E+03 0.  0.
         23    2    4    4    0    0 -0.51121967256E+03 -0.19410981197E+02 -0.20492405184E+02  0.52010715482E+03  0.91483189822E+02 0.  0.
         23    2    4    4    0    0  0.32813942400E+03 -0.27719332078E+03  0.17699815370E+02  0.43968948984E+03  0.92205994082E+02 0.  0.
         13    1    3    3    0    0  0.19212534413E+03  0.29249678994E+03 -0.17592572917E+03  0.39168403358E+03  0.00000000000E+00 0.  1.
        -13    1    3    3    0    0 -0.90450955704E+01  0.41075120352E+01 -0.42986695327E+01  0.10824230631E+02  0.00000000000E+00 0. -1.
          2    1    5    5  502    0 -0.26776195426E+02 -0.21162957711E+02 -0.99318303106E+01  0.35545417059E+02  0.00000000000E+00 0. -1.
          3    1    6    6  503    0  0.73892523671E+02 -0.10808873682E+03  0.29103461282E+02  0.13412789248E+03  0.00000000000E+00 0. -1.
         -2    1    5    5    0  502 -0.48444347714E+03  0.17519765135E+01 -0.10560574874E+02  0.48456173776E+03  0.00000000000E+00 0.  1.
         -3    1    6    6    0  503  0.25424690033E+03 -0.16910458396E+03 -0.11403645911E+02  0.30556159736E+03  0.00000000000E+00 0.  1.
<mgrwt>
<rscale>  0 0.13499553E+04</rscale>
<asrwt>0</asrwt>
<pdfrwt beam="1">  1        2 0.90714456E-01 0.13499553E+04</pdfrwt>
<pdfrwt beam="2">  1       -2 0.11887092E+00 0.13499553E+04</pdfrwt>
<totfact> 0.26890865E+01</totfact>
</mgrwt>
</event>
<event>
12    1  0.4403484E-008  0.2012527E+04  0.7818608E-02  0.8600786E-01
          1   -1    0    0  501    0  0.00000000000E+00  0.00000000000E+00  0.33212118752E+04  0.33212118752E+04  0.00000000000E+00 0. -1.
         -1   -1    0    0    0  501 -0.00000000000E+00 -0.00000000000E+00 -0.30487852970E+03  0.30487852970E+03  0.00000000000E+00 0.  1.
         23    2    1    2    0    0  0.71816870443E+02 -0.45262094848E+03  0.29347423709E+02  0.47600728369E+03  0.12529276500E+03 0.  0.
        254    2    1    2    0    0 -0.71816870443E+02  0.45262094848E+03  0.29869859218E+04  0.31500831212E+04  0.88933423846E+03 0.  0.
         23    2    4    4    0    0 -0.20006275817E+02 -0.40714789785E+02 -0.10393926213E+02  0.11047928740E+03  0.10019827375E+03 0.  0.
         23    2    4    4    0    0 -0.51810594626E+02  0.49333573827E+03  0.29973798480E+04  0.30396038338E+04  0.94026724742E+02 0.  0.
         13    1    3    3    0    0 -0.25727990019E+02 -0.20921635869E+03 -0.90584632198E+01  0.21098689525E+03  0.00000000000E+00 0. -1.
        -13    1    3    3    0    0  0.97544860462E+02 -0.24340458980E+03  0.38405886929E+02  0.26502038844E+03  0.00000000000E+00 0.  1.
          2    1    6    6  502    0 -0.60522464052E+02  0.47944863171E+03  0.29532521548E+04  0.29925294065E+04  0.00000000000E+00 0. -1.
          2    1    5    5  503    0  0.23574405664E+02  0.18791145597E+02 -0.19882782266E+02  0.36113498666E+02  0.00000000000E+00 0. -1.
         -2    1    5    5    0  503 -0.43580681482E+02 -0.59505935382E+02  0.94888560523E+01  0.74365788729E+02  0.00000000000E+00 0.  1.
         -2    1    6    6    0  502  0.87118694261E+01  0.13887106554E+02  0.44127693274E+02  0.47074427357E+02  0.00000000000E+00 0.  1.
<mgrwt>
<rscale>  0 0.20125270E+04</rscale>
<asrwt>0</asrwt>
<pdfrwt beam="1">  1        1 0.51095565E+00 0.20125270E+04</pdfrwt>
<pdfrwt beam="2">  1       -1 0.46904392E-01 0.20125270E+04</pdfrwt>
<totfact> 0.14492379E+00</totfact>
</mgrwt>
</event>
<event>
12    1  0.4403484E-008  0.1877705E+04  0.7818608E-02  0.8666034E-01
          1   -1    0    0  501    0  0.00000000000E+00  0.00000000000E+00  0.17263616424E+04  0.17263616424E+04  0.00000000000E+00 0. -1.
         -1   -1    0    0    0  501 -0.00000000000E+00 -0.00000000000E+00 -0.51057914465E+03  0.51057914465E+03  0.00000000000E+00 0.  1.
         23    2    1    2    0    0 -0.68365656384E+03  0.14722798902E+03  0.64798114933E+03  0.95772611878E+03  0.91089904298E+02 0.  0.
        254    2    1    2    0    0  0.68365656384E+03 -0.14722798902E+03  0.56780134845E+03  0.12792146683E+04  0.90825625142E+03 0.  0.
         23    2    4    4    0    0  0.45327557509E+03  0.35578137171E+03  0.26202498400E+03  0.64073321964E+03  0.99211063291E+02 0.  0.
         23    2    4    4    0    0  0.23038098875E+03 -0.50300936073E+03  0.30577636444E+03  0.63848144865E+03  0.89808453168E+02 0.  0.
         11    1    3    3    0    0 -0.62732420987E+03  0.13573697103E+03  0.62481415482E+03  0.89574154624E+03  0.00000000000E+00 0. -1.
        -11    1    3    3    0    0 -0.56332353970E+02  0.11491017996E+02  0.23166994517E+02  0.61984572543E+02  0.00000000000E+00 0.  1.
          2    1    5    5  502    0  0.43304548821E+03  0.32254865178E+03  0.26542687159E+03  0.60167886101E+03  0.00000000000E+00 0. -1.
          4    1    6    6  503    0  0.12751071435E+02 -0.95850993310E+02  0.32598897742E+02  0.10204259344E+03  0.00000000000E+00 0. -1.
         -2    1    5    5    0  502  0.20230086883E+02  0.33232719923E+02 -0.34018875856E+01  0.39054358629E+02  0.00000000000E+00 0.  1.
         -4    1    6    6    0  503  0.21762991732E+03 -0.40715836742E+03  0.27317746670E+03  0.53643885521E+03  0.00000000000E+00 0.  1.
<mgrwt>
<rscale>  0 0.18777052E+04</rscale>
<asrwt>0</asrwt>
<pdfrwt beam="1">  1        1 0.26559410E+00 0.18777052E+04</pdfrwt>
<pdfrwt beam="2">  1       -1 0.78550639E-01 0.18777052E+04</pdfrwt>
<totfact> 0.69508292E+00</totfact>
</mgrwt>
</event>
<event>
12    1  0.4403484E-008  0.1520128E+04  0.7818608E-02  0.8871177E-01
          2   -1    0    0  501    0  0.00000000000E+00  0.00000000000E+00  0.32155478415E+04  0.32155478415E+04  0.00000000000E+00 0.  1.
         -2   -1    0    0    0  501 -0.00000000000E+00 -0.00000000000E+00 -0.17965748243E+03  0.17965748243E+03  0.00000000000E+00 0. -1.
         23    2    1    2    0    0  0.30119113393E+03  0.13616749275E+03  0.18715023909E+04  0.19028080200E+04  0.94337036430E+02 0.  0.
        254    2    1    2    0    0 -0.30119113393E+03 -0.13616749275E+03  0.11643879682E+04  0.14923973039E+04  0.87303647531E+03 0.  0.
         23    2    4    4    0    0  0.16363372556E+03  0.20247012363E+03  0.68274807199E+03  0.73656517047E+03  0.92807184198E+02 0.  0.
         23    2    4    4    0    0 -0.46482485949E+03 -0.33863761638E+03  0.48163989616E+03  0.75583213348E+03  0.92561542712E+02 0.  0.
         11    1    3    3    0    0  0.15886974863E+03  0.20989399128E+02  0.82779678036E+03  0.84316526345E+03  0.00000000000E+00 0. -1.
        -11    1    3    3    0    0  0.14232138530E+03  0.11517809362E+03  0.10437056105E+04  0.10596427565E+04  0.00000000000E+00 0.  1.
          2    1    5    5  502    0 -0.68191612993E+01 -0.44501966570E+01  0.16396226982E+02  0.18306869486E+02  0.00000000000E+00 0. -1.
          4    1    6    6  503    0 -0.17617539245E+02 -0.37833738700E+02  0.20405291008E+02  0.46455843273E+02  0.00000000000E+00 0. -1.
         -2    1    5    5    0  502  0.17045288686E+03  0.20692032029E+03  0.66635184501E+03  0.71825830099E+03  0.00000000000E+00 0.  1.
         -4    1    6    6    0  503 -0.44720732025E+03 -0.30080387768E+03  0.46123460515E+03  0.70937629020E+03  0.00000000000E+00 0.  1.
<mgrwt>
<rscale>  0 0.15201279E+04</rscale>
<asrwt>0</asrwt>
<pdfrwt beam="1">  1        2 0.49469963E+00 0.15201279E+04</pdfrwt>
<pdfrwt beam="2">  1       -2 0.27639615E-01 0.15201279E+04</pdfrwt>
<totfact> 0.14731256E+01</totfact>
</mgrwt>
</event>
<event>
12    1  0.4403484E-008  0.1580332E+04  0.7818608E-02  0.8832723E-01
         -2   -1    0    0    0  501 -0.00000000000E+00  0.00000000000E+00  0.30137080602E+03  0.30137080602E+03  0.00000000000E+00 0.  1.
          2   -1    0    0  501    0  0.00000000000E+00 -0.00000000000E+00 -0.20717403191E+04  0.20717403191E+04  0.00000000000E+00 0. -1.
         23    2    1    2    0    0 -0.15352916807E+03 -0.36555404634E+03 -0.75782382152E+02  0.41383012962E+03  0.91167102021E+02 0.  0.
        254    2    1    2    0    0  0.15352916807E+03  0.36555404634E+03 -0.16945871309E+04  0.19592809955E+04  0.89997528232E+03 0.  0.
         23    2    4    4    0    0 -0.33486117128E+03 -0.25498186382E+02 -0.67018729782E+03  0.75534469174E+03  0.92803166122E+02 0.  0.
         23    2    4    4    0    0  0.48839033934E+03  0.39105223272E+03 -0.10243998331E+04  0.12039363037E+04  0.92847364844E+02 0.  0.
         11    1    3    3    0    0  0.18359789056E+01 -0.74248526389E+02  0.32959399517E+01  0.74344318611E+02  0.00000000000E+00 0. -1.
        -11    1    3    3    0    0 -0.15536514697E+03 -0.29130551995E+03 -0.79078322103E+02  0.33948581101E+03  0.00000000000E+00 0.  1.
          2    1    5    5  502    0 -0.30809448477E+03  0.45507511284E+01 -0.58871450612E+03  0.66447550037E+03  0.00000000000E+00 0. -1.
          4    1    6    6  503    0  0.44476991441E+03  0.36422753871E+03 -0.97995153163E+03  0.11361280654E+04  0.00000000000E+00 0. -1.
         -2    1    5    5    0  502 -0.26766686510E+02 -0.30048937511E+02 -0.81472791705E+02  0.90869191371E+02  0.00000000000E+00 0.  1.
         -4    1    6    6    0  503  0.43620424931E+02  0.26824694008E+02 -0.44448301451E+02  0.67808238303E+02  0.00000000000E+00 0.  1.
<mgrwt>
<rscale>  0 0.15803317E+04</rscale>
<asrwt>0</asrwt>
<pdfrwt beam="1">  1        2 0.31872927E+00 0.15803317E+04</pdfrwt>
<pdfrwt beam="2">  1       -2 0.46364741E-01 0.15803317E+04</pdfrwt>
<totfact> 0.25820561E+01</totfact>
</mgrwt>
</event>
<event>
12    1  0.4403484E-008  0.1484212E+04  0.7818608E-02  0.8895020E-01
          1   -1    0    0  501    0  0.00000000000E+00  0.00000000000E+00  0.50694752387E+03  0.50694752387E+03  0.00000000000E+00 0. -1.
         -1   -1    0    0    0  501 -0.00000000000E+00 -0.00000000000E+00 -0.10863481613E+04  0.10863481613E+04  0.00000000000E+00 0.  1.
         23    2    1    2    0    0 -0.18343673389E+03  0.38688396971E+03 -0.37756634005E+03  0.57805241286E+03  0.90884594493E+02 0.  0.
        254    2    1    2    0    0  0.18343673389E+03 -0.38688396971E+03 -0.20183429734E+03  0.10152432723E+04  0.89813895192E+03 0.  0.
         23    2    4    4    0    0  0.78385223825E+02 -0.61030035240E+03  0.82727826036E+02  0.62767339982E+03  0.92299730182E+02 0.  0.
         23    2    4    4    0    0  0.10505151007E+03  0.22341638269E+03 -0.28456212338E+03  0.38756987245E+03  0.91017054149E+02 0.  0.
         11    1    3    3    0    0 -0.16263386203E+03  0.33215702208E+03 -0.36189973631E+03  0.51744514641E+03  0.00000000000E+00 0. -1.
        -11    1    3    3    0    0 -0.20802871862E+02  0.54726947627E+02 -0.15666603738E+02  0.60607266453E+02  0.00000000000E+00 0.  1.
          3    1    5    5  502    0  0.70273409690E+02 -0.42001199761E+03  0.96730814649E+02  0.43669815748E+03  0.00000000000E+00 0.  1.
          3    1    6    6  503    0  0.37320774982E+02  0.52827776265E+02 -0.24293205920E+02  0.69092503532E+02  0.00000000000E+00 0. -1.
         -3    1    5    5    0  502  0.81118141355E+01 -0.19028835479E+03 -0.14002988612E+02  0.19097524234E+03  0.00000000000E+00 0. -1.
         -3    1    6    6    0  503  0.67730735086E+02  0.17058860643E+03 -0.26026891746E+03  0.31847736892E+03  0.00000000000E+00 0.  1.
<mgrwt>
<rscale>  0 0.14842123E+04</rscale>
<asrwt>0</asrwt>
<pdfrwt beam="1">  1        1 0.77991927E-01 0.14842123E+04</pdfrwt>
<pdfrwt beam="2">  1       -1 0.16713049E+00 0.14842123E+04</pdfrwt>
<totfact> 0.10881188E+01</totfact>
</mgrwt>
</event>
<event>
12    1  0.4403484E-008  0.1364720E+04  0.7818608E-02  0.8979760E-01
          3   -1    0    0  501    0  0.00000000000E+00  0.00000000000E+00  0.17406817079E+04  0.17406817079E+04  0.00000000000E+00 0. -1.
         -3   -1    0    0    0  501 -0.00000000000E+00 -0.00000000000E+00 -0.26749009913E+03  0.26749009913E+03  0.00000000000E+00 0.  1.
         23    2    1    2    0    0 -0.10597484519E+02 -0.91713087748E+02  0.96065521130E+03  0.96935379711E+03  0.90910680507E+02 0.  0.
        254    2    1    2    0    0  0.10597484519E+02  0.91713087748E+02  0.51253639751E+03  0.10388180100E+04  0.89884687345E+03 0.  0.
         23    2    4    4    0    0  0.17476798856E+03 -0.15678051145E+02 -0.20816433354E+03  0.28624120942E+03  0.88385457497E+02 0.  0.
         23    2    4    4    0    0 -0.16417050404E+03  0.10739113889E+03  0.72070073105E+03  0.75257680055E+03  0.92073263639E+02 0.  0.
         11    1    3    3    0    0  0.38221288987E+02 -0.23104806093E+02  0.38256759734E+03  0.38516576371E+03  0.00000000000E+00 0. -1.
        -11    1    3    3    0    0 -0.48818773506E+02 -0.68608281655E+02  0.57808761396E+03  0.58418803340E+03  0.00000000000E+00 0.  1.
          3    1    5    5  502    0  0.10786020207E+03  0.33377891609E+02 -0.13095705834E+03  0.17290939236E+03  0.00000000000E+00 0. -1.
          3    1    6    6  503    0 -0.58978280236E+02  0.69723562654E+00  0.30616501703E+03  0.31179471023E+03  0.00000000000E+00 0. -1.
         -3    1    5    5    0  502  0.66907786485E+02 -0.49055942754E+02 -0.77207275204E+02  0.11333181705E+03  0.00000000000E+00 0.  1.
         -3    1    6    6    0  503 -0.10519222381E+03  0.10669390327E+03  0.41453571402E+03  0.44078209032E+03  0.00000000000E+00 0.  1.
<mgrwt>
<rscale>  0 0.13647199E+04</rscale>
<asrwt>0</asrwt>
<pdfrwt beam="1">  1        3 0.26779718E+00 0.13647199E+04</pdfrwt>
<pdfrwt beam="2">  1       -3 0.41152324E-01 0.13647199E+04</pdfrwt>
<totfact> 0.88261243E-01</totfact>
</mgrwt>
</event>
<event>
12    1  0.4403484E-008  0.1352268E+04  0.7818608E-02  0.8989113E-01
         -2   -1    0    0    0  501 -0.00000000000E+00  0.00000000000E+00  0.53336260224E+03  0.53336260224E+03  0.00000000000E+00 0.  1.
          2   -1    0    0  501    0  0.00000000000E+00 -0.00000000000E+00 -0.85712287357E+03  0.85712287357E+03  0.00000000000E+00 0. -1.
         23    2    1    2    0    0  0.15009195316E+02  0.26132793274E+03 -0.36446395863E+03  0.45838570317E+03  0.93626445801E+02 0.  0.
        254    2    1    2    0    0 -0.15009195316E+02 -0.26132793274E+03  0.40703687304E+02  0.93209977264E+03  0.89366416042E+03 0.  0.
         23    2    4    4    0    0  0.36869610188E+03 -0.35355284395E+03 -0.38644018653E+02  0.51939884325E+03  0.85705129293E+02 0.  0.
         23    2    4    4    0    0 -0.38370529720E+03  0.92224911212E+02  0.79347705957E+02  0.41270092939E+03  0.91053881475E+02 0.  0.
         11    1    3    3    0    0 -0.36822680711E+02  0.15965601655E+03 -0.21814734437E+03  0.27282635006E+03  0.00000000000E+00 0. -1.
        -11    1    3    3    0    0  0.51831876027E+02  0.10167191619E+03 -0.14631661427E+03  0.18555935311E+03  0.00000000000E+00 0.  1.
          2    1    5    5  502    0  0.70275072359E+01 -0.21843942211E+02  0.12260145514E+02  0.26016433985E+02  0.00000000000E+00 0. -1.
          3    1    6    6  503    0 -0.19177733060E+03  0.29660093185E+01  0.55648130233E+02  0.19970993001E+03  0.00000000000E+00 0. -1.
         -2    1    5    5    0  502  0.36166859465E+03 -0.33170890174E+03 -0.50904164166E+02  0.49338240927E+03  0.00000000000E+00 0.  1.
         -3    1    6    6    0  503 -0.19192796659E+03  0.89258901893E+02  0.23699575723E+02  0.21299099938E+03  0.00000000000E+00 0.  1.
<mgrwt>
<rscale>  0 0.13522681E+04</rscale>
<asrwt>0</asrwt>
<pdfrwt beam="1">  1        2 0.13186506E+00 0.13522681E+04</pdfrwt>
<pdfrwt beam="2">  1       -2 0.82055784E-01 0.13522681E+04</pdfrwt>
<totfact> 0.40015732E+01</totfact>
</mgrwt>
</event>
<event>
12    1  0.4910747E-008  0.1367338E+04  0.7818608E-02  0.8977807E-01
          1   -1    0    0  501    0  0.00000000000E+00  0.00000000000E+00  0.10406902609E+04  0.10406902609E+04  0.00000000000E+00 0. -1.
         -1   -1    0    0    0  501 -0.00000000000E+00 -0.00000000000E+00 -0.44912793781E+03  0.44912793781E+03  0.00000000000E+00 0.  1.
         23    2    1    2    0    0 -0.25042383158E+03 -0.27272809000E+03  0.27486464297E+03  0.47055598364E+03  0.93699814763E+02 0.  0.
        254    2    1    2    0    0  0.25042383158E+03  0.27272809000E+03  0.31669768012E+03  0.10192622151E+04  0.89526830390E+03 0.  0.
         23    2    4    4    0    0  0.44269740568E+03  0.39656533263E+03  0.43872162584E+03  0.74455971965E+03  0.92991693781E+02 0.  0.
         23    2    4    4    0    0 -0.19227357411E+03 -0.12383724263E+03 -0.12202394572E+03  0.27470249542E+03  0.90922096866E+02 0.  0.
         13    1    3    3    0    0 -0.24725632304E+03 -0.27733036274E+03  0.27810122251E+03  0.46409924515E+03  0.00000000000E+00 0. -1.
        -13    1    3    3    0    0 -0.31675085405E+01  0.46022727439E+01 -0.32365795482E+01  0.64567384906E+01  0.00000000000E+00 0.  1.
          2    1    5    5  502    0  0.32560228821E+03  0.32858434673E+03  0.37204404686E+03  0.59363397461E+03  0.00000000000E+00 0. -1.
          3    1    6    6  503    0 -0.12261379328E+03 -0.94318805478E+02 -0.12515423339E+03  0.19898181200E+03  0.00000000000E+00 0. -1.
         -2    1    5    5    0  502  0.11709511747E+03  0.67980985896E+02  0.66677578977E+02  0.15092574504E+03  0.00000000000E+00 0.  1.
         -3    1    6    6    0  503 -0.69659780822E+02 -0.29518437150E+02  0.31302876796E+01  0.75720683415E+02  0.00000000000E+00 0.  1.
<mgrwt>
<rscale>  0 0.13673377E+04</rscale>
<asrwt>0</asrwt>
<pdfrwt beam="1">  1        1 0.16010619E+00 0.13673377E+04</pdfrwt>
<pdfrwt beam="2">  1       -1 0.69096606E-01 0.13673377E+04</pdfrwt>
<totfact> 0.29146962E+01</totfact>
</mgrwt>
</event>
<event>
12    1  0.4403484E-008  0.1621940E+04  0.7818608E-02  0.8807182E-01
          2   -1    0    0  501    0  0.00000000000E+00  0.00000000000E+00  0.13413269207E+04  0.13413269207E+04  0.00000000000E+00 0. -1.
         -2   -1    0    0    0  501 -0.00000000000E+00 -0.00000000000E+00 -0.49031461031E+03  0.49031461031E+03  0.00000000000E+00 0.  1.
         23    2    1    2    0    0  0.26775934812E+02  0.18347356612E+03 -0.29677720029E+03  0.36202006760E+03  0.92748706641E+02 0.  0.
        254    2    1    2    0    0 -0.26775934812E+02 -0.18347356612E+03  0.11477895107E+04  0.14696214634E+04  0.89888096250E+03 0.  0.
         23    2    4    4    0    0 -0.29819600589E+03  0.80431198015E+02  0.10023649789E+04  0.10528260737E+04  0.91198438184E+02 0.  0.
         23    2    4    4    0    0  0.27142007107E+03 -0.26390476413E+03  0.14542453182E+03  0.41679538969E+03  0.96205628185E+02 0.  0.
         13    1    3    3    0    0 -0.24033113708E+02  0.10034596029E+02 -0.29205141842E+02  0.39130857158E+02  0.00000000000E+00 0. -1.
        -13    1    3    3    0    0  0.50809048519E+02  0.17343897009E+03 -0.26757205845E+03  0.32288921044E+03  0.00000000000E+00 0.  1.
          2    1    6    6  502    0 -0.18093406964E+01 -0.55658934507E+01 -0.86390687771E+01  0.10434864302E+02  0.00000000000E+00 0. -1.
          2    1    5    5  503    0 -0.16465647380E+02  0.24518321629E+01  0.16627882454E+03  0.16711007305E+03  0.00000000000E+00 0. -1.
         -2    1    5    5    0  503 -0.28173035851E+03  0.77979365852E+02  0.83608615431E+03  0.88571600066E+03  0.00000000000E+00 0.  1.
         -2    1    6    6    0  502  0.27322941177E+03 -0.25833887068E+03  0.15406360059E+03  0.40636052538E+03  0.00000000000E+00 0.  1.
<mgrwt>
<rscale>  0 0.16219398E+04</rscale>
<asrwt>0</asrwt>
<pdfrwt beam="1">  1        2 0.20635799E+00 0.16219398E+04</pdfrwt>
<pdfrwt beam="2">  1       -2 0.75433018E-01 0.16219398E+04</pdfrwt>
<totfact> 0.23607720E+01</totfact>
</mgrwt>
</event>
<event>
12    1  0.4403484E-008  0.1960293E+04  0.7818608E-02  0.8625413E-01
         -2   -1    0    0    0  501 -0.00000000000E+00  0.00000000000E+00  0.21227292471E+04  0.21227292471E+04  0.00000000000E+00 0.  1.
          2   -1    0    0  501    0  0.00000000000E+00 -0.00000000000E+00 -0.45257191464E+03  0.45257191464E+03  0.00000000000E+00 0. -1.
         23    2    1    2    0    0 -0.13168488771E+03  0.53322559105E+03 -0.45722664415E+02  0.55985758062E+03  0.98384490328E+02 0.  0.
        254    2    1    2    0    0  0.13168488771E+03 -0.53322559105E+03  0.17158799968E+04  0.20154435811E+04  0.90338154973E+03 0.  0.
         23    2    4    4    0    0 -0.12911325007E+03 -0.51722500474E+03  0.40561511508E+03  0.67635113057E+03  0.93462791369E+02 0.  0.
         23    2    4    4    0    0  0.26079813778E+03 -0.16000586307E+02  0.13102648818E+04  0.13390924505E+04  0.90015794277E+02 0.  0.
         13    1    3    3    0    0 -0.19612011774E+01  0.95943043530E+02 -0.39286435084E+02  0.10369348048E+03  0.00000000000E+00 0.  1.
        -13    1    3    3    0    0 -0.12972368653E+03  0.43728254752E+03 -0.64362293310E+01  0.45616410015E+03  0.00000000000E+00 0. -1.
          4    1    5    5  502    0 -0.88486325099E+02 -0.29597954885E+03  0.17894270783E+03  0.35700730490E+03  0.00000000000E+00 0. -1.
          3    1    6    6  503    0  0.24791148323E+03  0.74444350062E+01  0.12195395202E+04  0.12445047868E+04  0.00000000000E+00 0. -1.
         -4    1    5    5    0  502 -0.40626924972E+02 -0.22124545589E+03  0.22667240725E+03  0.31934382567E+03  0.00000000000E+00 0.  1.
         -3    1    6    6    0  503  0.12886654552E+02 -0.23445021313E+02  0.90725361571E+02  0.94587663689E+02  0.00000000000E+00 0.  1.
<mgrwt>
<rscale>  0 0.19602935E+04</rscale>
<asrwt>0</asrwt>
<pdfrwt beam="1">  1        2 0.69626450E-01 0.19602935E+04</pdfrwt>
<pdfrwt beam="2">  1       -2 0.32657372E+00 0.19602935E+04</pdfrwt>
<totfact> 0.14067603E+00</totfact>
</mgrwt>
</event>
<event>
12    1  0.4403484E-008  0.1144762E+04  0.7818608E-02  0.9162629E-01
          1   -1    0    0  501    0  0.00000000000E+00  0.00000000000E+00  0.94521710591E+03  0.94521710591E+03  0.00000000000E+00 0. -1.
         -1   -1    0    0    0  501 -0.00000000000E+00 -0.00000000000E+00 -0.34660834888E+03  0.34660834888E+03  0.00000000000E+00 0.  1.
         23    2    1    2    0    0  0.81594822740E+02 -0.65237436397E+02 -0.79171101258E+02  0.16060899044E+03  0.92809193129E+02 0.  0.
        254    2    1    2    0    0 -0.81594822740E+02  0.65237436397E+02  0.67777985829E+03  0.11312164644E+04  0.89963965826E+03 0.  0.
         23    2    4    4    0    0 -0.39112722004E+03  0.19826480459E+03  0.10484838575E+03  0.46002658201E+03  0.91333658478E+02 0.  0.
         23    2    4    4    0    0  0.30953239730E+03 -0.13302736819E+03  0.57293147254E+03  0.67118988234E+03  0.93481550395E+02 0.  0.
         13    1    3    3    0    0  0.30206566775E+02  0.58993364975E+00 -0.70437005222E+02  0.76643045364E+02  0.00000000000E+00 0.  1.
        -13    1    3    3    0    0  0.51388255965E+02 -0.65827370047E+02 -0.87340960354E+01  0.83965945073E+02  0.00000000000E+00 0. -1.
          4    1    5    5  502    0 -0.34814484904E+03  0.16546769107E+03  0.60681398859E+02  0.39021356315E+03  0.00000000000E+00 0. -1.
          3    1    6    6  503    0  0.83017527993E+02 -0.40873608444E+02  0.86121812831E+02  0.12641015967E+03  0.00000000000E+00 0.  1.
         -4    1    5    5    0  502 -0.42982371003E+02  0.32797113516E+02  0.44166986887E+02  0.69813018862E+02  0.00000000000E+00 0.  1.
         -3    1    6    6    0  503  0.22651486930E+03 -0.92153759750E+02  0.48680965971E+03  0.54477972267E+03  0.00000000000E+00 0. -1.
<mgrwt>
<rscale>  0 0.11447622E+04</rscale>
<asrwt>0</asrwt>
<pdfrwt beam="1">  1        1 0.14541802E+00 0.11447622E+04</pdfrwt>
<pdfrwt beam="2">  1       -1 0.53324362E-01 0.11447622E+04</pdfrwt>
<totfact> 0.58924356E+01</totfact>
</mgrwt>
</event>
<event>
12    1  0.6512695E-008  0.2553896E+04  0.7818608E-02  0.8384032E-01
         -2   -1    0    0    0  501 -0.00000000000E+00  0.00000000000E+00  0.10631339725E+04  0.10631339725E+04  0.00000000000E+00 0.  1.
          2   -1    0    0  501    0  0.00000000000E+00 -0.00000000000E+00 -0.15337639121E+04  0.15337639121E+04  0.00000000000E+00 0. -1.
         23    2    1    2    0    0  0.29784394433E+03  0.79767249648E+03 -0.93631065537E+03  0.12688214241E+04  0.90761974567E+02 0.  0.
        254    2    1    2    0    0 -0.29784394433E+03 -0.79767249648E+03  0.46568071580E+03  0.13280764605E+04  0.90660693197E+03 0.  0.
         23    2    4    4    0    0 -0.59862613005E+03 -0.38425899342E+03  0.34052562054E+03  0.79390092756E+03  0.91174376480E+02 0.  0.
         23    2    4    4    0    0  0.30078218572E+03 -0.41341350306E+03  0.12515509526E+03  0.53417553296E+03  0.91099145914E+02 0.  0.
         11    1    3    3    0    0  0.96191057663E+02  0.15291375050E+03 -0.19058258263E+03  0.26259675449E+03  0.00000000000E+00 0.  1.
        -11    1    3    3    0    0  0.20165288667E+03  0.64475874598E+03 -0.74572807273E+03  0.10062246696E+04  0.00000000000E+00 0. -1.
          1    1    5    5  502    0 -0.15461613847E+02 -0.20400100280E+02  0.30595122962E+02  0.39890940616E+02  0.00000000000E+00 0. -1.
          3    1    6    6  503    0  0.53108445823E+02 -0.51261504351E+02  0.49713694917E+02  0.88992698062E+02  0.00000000000E+00 0. -1.
         -1    1    5    5    0  502 -0.58316451620E+03 -0.36385889314E+03  0.30993049758E+03  0.75400998694E+03  0.00000000000E+00 0.  1.
         -3    1    6    6    0  503  0.24767373989E+03 -0.36215199871E+03  0.75441400343E+02  0.44518283490E+03  0.00000000000E+00 0.  1.
<mgrwt>
<rscale>  0 0.25538963E+04</rscale>
<asrwt>0</asrwt>
<pdfrwt beam="1">  1        2 0.23596368E+00 0.25538963E+04</pdfrwt>
<pdfrwt beam="2">  1       -2 0.16355907E+00 0.25538963E+04</pdfrwt>
<totfact> 0.25589308E+00</totfact>
</mgrwt>
</event>
<event>
12    1  0.4403484E-008  0.3538157E+04  0.7818608E-02  0.8104806E-01
         -1   -1    0    0    0  501 -0.00000000000E+00  0.00000000000E+00  0.14123635234E+04  0.14123635234E+04  0.00000000000E+00 0.  1.
          1   -1    0    0  501    0  0.00000000000E+00 -0.00000000000E+00 -0.22158878596E+04  0.22158878596E+04  0.00000000000E+00 0. -1.
         23    2    1    2    0    0 -0.34892828283E+03  0.11333019570E+04  0.80337037848E+03  0.14352043695E+04  0.91012883603E+02 0.  0.
        254    2    1    2    0    0  0.34892828283E+03 -0.11333019570E+04 -0.16068947147E+04  0.21930470134E+04  0.90621206495E+03 0.  0.
         23    2    4    4    0    0  0.88844719436E+02 -0.15586559987E+03 -0.97689806302E+03  0.99752760643E+03  0.92433925905E+02 0.  0.
         23    2    4    4    0    0  0.26008356339E+03 -0.97743635715E+03 -0.62999665165E+03  0.11955194070E+04  0.96672535724E+02 0.  0.
         11    1    3    3    0    0 -0.32714119800E+03  0.99826205219E+03  0.73642475574E+03  0.12829146149E+04  0.00000000000E+00 0.  1.
        -11    1    3    3    0    0 -0.21787084825E+02  0.13503990483E+03  0.66945622732E+02  0.15228975463E+03  0.00000000000E+00 0. -1.
          2    1    5    5  502    0  0.21330260314E+02 -0.10218036288E+03 -0.36684668206E+03  0.38140830445E+03  0.00000000000E+00 0. -1.
          4    1    6    6  503    0  0.19179109201E+03 -0.73580918596E+03 -0.42318020225E+03  0.87021863040E+03  0.00000000000E+00 0. -1.
         -2    1    5    5    0  502  0.67514459123E+02 -0.53685236991E+02 -0.61005138096E+03  0.61611930198E+03  0.00000000000E+00 0.  1.
         -4    1    6    6    0  503  0.68292471383E+02 -0.24162717119E+03 -0.20681644940E+03  0.32530077659E+03  0.00000000000E+00 0.  1.
<mgrwt>
<rscale>  0 0.35381573E+04</rscale>
<asrwt>0</asrwt>
<pdfrwt beam="1">  1        1 0.34090582E+00 0.35381573E+04</pdfrwt>
<pdfrwt beam="2">  1       -1 0.21728670E+00 0.35381573E+04</pdfrwt>
<totfact> 0.19832506E-01</totfact>
</mgrwt>
</event>
<event>
12    1  0.4403484E-008  0.1434352E+04  0.7818608E-02  0.8929321E-01
         -2   -1    0    0    0  501 -0.00000000000E+00  0.00000000000E+00  0.39141165189E+03  0.39141165189E+03  0.00000000000E+00 0.  1.
          2   -1    0    0  501    0  0.00000000000E+00 -0.00000000000E+00 -0.13140683529E+04  0.13140683529E+04  0.00000000000E+00 0. -1.
         23    2    1    2    0    0  0.13841029519E+02  0.42239758205E+03 -0.36615645436E+03  0.56635233067E+03  0.89850553537E+02 0.  0.
        254    2    1    2    0    0 -0.13841029519E+02 -0.42239758205E+03 -0.55650024666E+03  0.11391276741E+04  0.89961549677E+03 0.  0.
         23    2    4    4    0    0 -0.14106612366E+01  0.12262746222E+03 -0.56501501872E+03  0.58523363110E+03  0.90647377950E+02 0.  0.
         23    2    4    4    0    0 -0.12430368283E+02 -0.54502504427E+03  0.85147720620E+01  0.55389404304E+03  0.97566882898E+02 0.  0.
         11    1    3    3    0    0  0.24795073340E+02  0.41928484616E+03 -0.35085589712E+03  0.54727912296E+03  0.00000000000E+00 0. -1.
        -11    1    3    3    0    0 -0.10954043821E+02  0.31127358902E+01 -0.15300557242E+02  0.19073207718E+02  0.00000000000E+00 0.  1.
          2    1    5    5  502    0 -0.14974231526E+02  0.48020007988E+01 -0.21689268264E+03  0.21746200267E+03  0.00000000000E+00 0. -1.
          3    1    6    6  503    0  0.13268656040E+02 -0.21625240342E+02  0.15659690581E+02  0.29814998944E+02  0.00000000000E+00 0. -1.
         -2    1    5    5    0  502  0.13563570289E+02  0.11782546142E+03 -0.34812233608E+03  0.36777162843E+03  0.00000000000E+00 0.  1.
         -3    1    6    6    0  503 -0.25699024322E+02 -0.52339980393E+03 -0.71449185193E+01  0.52407904410E+03  0.00000000000E+00 0.  1.
<mgrwt>
<rscale>  0 0.14343523E+04</rscale>
<asrwt>0</asrwt>
<pdfrwt beam="1">  1        2 0.20216436E+00 0.14343523E+04</pdfrwt>
<pdfrwt beam="2">  1       -2 0.60217177E-01 0.14343523E+04</pdfrwt>
<totfact> 0.40477496E+01</totfact>
</mgrwt>
</event>
<event>
12    1  0.4403484E-008  0.1353912E+04  0.7818608E-02  0.8987872E-01
          2   -1    0    0  501    0  0.00000000000E+00  0.00000000000E+00  0.33304026310E+03  0.33304026310E+03  0.00000000000E+00 0. -1.
         -2   -1    0    0    0  501 -0.00000000000E+00 -0.00000000000E+00 -0.13760171991E+04  0.13760171991E+04  0.00000000000E+00 0.  1.
         23    2    1    2    0    0  0.10490098075E+03 -0.50490700252E+02 -0.72121548245E+03  0.73654327939E+03  0.93758752776E+02 0.  0.
        254    2    1    2    0    0 -0.10490098075E+03  0.50490700252E+02 -0.32176145351E+03  0.97251418276E+03  0.91032954260E+03 0.  0.
         23    2    4    4    0    0  0.84430901059E+02  0.20336000668E+03 -0.56720289951E+03  0.61476241623E+03  0.87919450782E+02 0.  0.
         23    2    4    4    0    0 -0.18933188181E+03 -0.15286930643E+03  0.24544144600E+03  0.35775176653E+03  0.92353866856E+02 0.  0.
         11    1    3    3    0    0  0.36187848397E+02 -0.65825222945E+02 -0.28751546887E+03  0.29716605658E+03  0.00000000000E+00 0. -1.
        -11    1    3    3    0    0  0.68713132356E+02  0.15334522693E+02 -0.43370001358E+03  0.43937722281E+03  0.00000000000E+00 0.  1.
          4    1    5    5  502    0  0.10145457628E+03  0.15003213515E+03 -0.43314591336E+03  0.46948701248E+03  0.00000000000E+00 0. -1.
          1    1    6    6  503    0 -0.69220416338E+02 -0.10418077679E+03  0.15751214248E+03  0.20113471933E+03  0.00000000000E+00 0. -1.
         -4    1    5    5    0  502 -0.17023675216E+02  0.53327871529E+02 -0.13405698615E+03  0.14527540375E+03  0.00000000000E+00 0.  1.
         -1    1    6    6    0  503 -0.12011146547E+03 -0.48688529635E+02  0.87929303517E+02  0.15661704720E+03  0.00000000000E+00 0.  1.
<mgrwt>
<rscale>  0 0.13539116E+04</rscale>
<asrwt>0</asrwt>
<pdfrwt beam="1">  1        2 0.51236964E-01 0.13539116E+04</pdfrwt>
<pdfrwt beam="2">  1       -2 0.21169495E+00 0.13539116E+04</pdfrwt>
<totfact> 0.10646964E+01</totfact>
</mgrwt>
</event>
<event>
12    1  0.4403484E-008  0.2363491E+04  0.7818608E-02  0.8453300E-01
          2   -1    0    0  501    0  0.00000000000E+00  0.00000000000E+00  0.14895652111E+04  0.14895652111E+04  0.00000000000E+00 0. -1.
         -2   -1    0    0    0  501 -0.00000000000E+00 -0.00000000000E+00 -0.93753704935E+03  0.93753704935E+03  0.00000000000E+00 0.  1.
         23    2    1    2    0    0  0.30713702710E+03  0.89659864969E+03  0.59100654018E+03  0.11205022698E+04  0.89522700659E+02 0.  0.
        254    2    1    2    0    0 -0.30713702710E+03 -0.89659864969E+03 -0.38978378444E+02  0.13065999907E+04  0.89858885462E+03 0.  0.
         23    2    4    4    0    0  0.14425984281E+03 -0.44768739602E+03 -0.34926231526E+03  0.59250625608E+03  0.88569700393E+02 0.  0.
         23    2    4    4    0    0 -0.45139686991E+03 -0.44891125367E+03  0.31028393681E+03  0.71409373461E+03  0.91505696733E+02 0.  0.
         11    1    3    3    0    0  0.99626647273E+02  0.21370909144E+03  0.18228708424E+03  0.29803628251E+03  0.00000000000E+00 0. -1.
        -11    1    3    3    0    0  0.20751037983E+03  0.68288955825E+03  0.40871945595E+03  0.82246598724E+03  0.00000000000E+00 0.  1.
          1    1    5    5  502    0  0.27521546395E+00 -0.11783907986E+03 -0.70997232663E+02  0.13757445813E+03  0.00000000000E+00 0. -1.
          3    1    6    6  503    0 -0.16305244853E+03 -0.13131177043E+03  0.61474979559E+02  0.21819270184E+03  0.00000000000E+00 0. -1.
         -1    1    5    5    0  502  0.14398462735E+03 -0.32984831617E+03 -0.27826508260E+03  0.45493179795E+03  0.00000000000E+00 0.  1.
         -3    1    6    6    0  503 -0.28834442138E+03 -0.31759948324E+03  0.24880895726E+03  0.49590103277E+03  0.00000000000E+00 0.  1.
<mgrwt>
<rscale>  0 0.23634911E+04</rscale>
<asrwt>0</asrwt>
<pdfrwt beam="1">  1        2 0.22916388E+00 0.23634911E+04</pdfrwt>
<pdfrwt beam="2">  1       -2 0.14423647E+00 0.23634911E+04</pdfrwt>
<totfact> 0.38566058E+00</totfact>
</mgrwt>
</event>
<event>
12    1  0.4403484E-008  0.2706935E+04  0.7818608E-02  0.8332758E-01
          1   -1    0    0  501    0  0.00000000000E+00  0.00000000000E+00  0.24617609787E+04  0.24617609787E+04  0.00000000000E+00 0. -1.
         -1   -1    0    0    0  501 -0.00000000000E+00 -0.00000000000E+00 -0.74413166695E+03  0.74413166695E+03  0.00000000000E+00 0.  1.
         23    2    1    2    0    0  0.92646102398E+03  0.38094655332E+03  0.15493449987E+04  0.18476130687E+04  0.98761435982E+02 0.  0.
        254    2    1    2    0    0 -0.92646102398E+03 -0.38094655332E+03  0.16828431300E+03  0.13582795769E+04  0.90175023900E+03 0.  0.
         23    2    4    4    0    0 -0.88750923441E+01 -0.13853155484E+03 -0.26384519611E+03  0.31185144852E+03  0.91472834663E+02 0.  0.
         23    2    4    4    0    0 -0.91758593164E+03 -0.24241499848E+03  0.43212950911E+03  0.10464281284E+04  0.86873136080E+02 0.  0.
         13    1    3    3    0    0  0.74372867358E+03  0.33577202400E+03  0.13058546049E+04  0.15398478630E+04  0.00000000000E+00 0. -1.
        -13    1    3    3    0    0  0.18273235040E+03  0.45174529320E+02  0.24349039380E+03  0.30776520573E+03  0.00000000000E+00 0.  1.
          2    1    5    5  502    0  0.34245948210E+02 -0.21736387248E+02 -0.49771428745E+02  0.64206312919E+02  0.00000000000E+00 0. -1.
          3    1    6    6  503    0 -0.25829177068E+02 -0.22866243131E+02  0.19216061356E+02  0.39487573704E+02  0.00000000000E+00 0. -1.
         -2    1    5    5    0  502 -0.43121040554E+02 -0.11679516759E+03 -0.21407376736E+03  0.24764513560E+03  0.00000000000E+00 0.  1.
         -3    1    6    6    0  503 -0.89175675457E+03 -0.21954875535E+03  0.41291344775E+03  0.10069405547E+04  0.00000000000E+00 0.  1.
<mgrwt>
<rscale>  0 0.27069350E+04</rscale>
<asrwt>0</asrwt>
<pdfrwt beam="1">  1        1 0.37873245E+00 0.27069350E+04</pdfrwt>
<pdfrwt beam="2">  1       -1 0.11448180E+00 0.27069350E+04</pdfrwt>
<totfact> 0.87158559E-01</totfact>
</mgrwt>
</event>
<event>
12    1  0.4403484E-008  0.3081281E+04  0.7818608E-02  0.8220894E-01
         -2   -1    0    0    0  501 -0.00000000000E+00  0.00000000000E+00  0.27672582968E+04  0.27672582968E+04  0.00000000000E+00 0.  1.
          2   -1    0    0  501    0  0.00000000000E+00 -0.00000000000E+00 -0.85773441424E+03  0.85773441424E+03  0.00000000000E+00 0. -1.
         23    2    1    2    0    0  0.70361231774E+03 -0.12131649704E+04  0.72217078250E+03  0.15800688747E+04  0.90815585326E+02 0.  0.
        254    2    1    2    0    0 -0.70361231774E+03  0.12131649704E+04  0.11873531000E+04  0.20449238363E+04  0.89725502126E+03 0.  0.
         23    2    4    4    0    0 -0.21852026028E+03  0.11307540049E+04  0.72937050554E+03  0.13665424169E+04  0.95399786757E+02 0.  0.
         23    2    4    4    0    0 -0.48509205746E+03  0.82410965544E+02  0.45798259447E+03  0.67838141938E+03  0.91364226394E+02 0.  0.
         13    1    3    3    0    0  0.84101133146E+02 -0.10103184699E+03  0.84277921565E+02  0.15615121762E+03  0.00000000000E+00 0. -1.
        -13    1    3    3    0    0  0.61951118460E+03 -0.11121331234E+04  0.63789286093E+03  0.14239176571E+04  0.00000000000E+00 0.  1.
          2    1    5    5  502    0 -0.20916828833E+03  0.87770462198E+03  0.57741080274E+03  0.10712236048E+04  0.00000000000E+00 0. -1.
          4    1    6    6  503    0 -0.98334837798E+02  0.55130697087E+02  0.10338542573E+03  0.15296300317E+03  0.00000000000E+00 0. -1.
         -2    1    5    5    0  502 -0.93519719551E+01  0.25304938287E+03  0.15195970279E+03  0.29531881217E+03  0.00000000000E+00 0.  1.
         -4    1    6    6    0  503 -0.38675721967E+03  0.27280268457E+02  0.35459716874E+03  0.52541841621E+03  0.00000000000E+00 0.  1.
<mgrwt>
<rscale>  0 0.30812807E+04</rscale>
<asrwt>0</asrwt>
<pdfrwt beam="1">  1        2 0.13195914E+00 0.30812807E+04</pdfrwt>
<pdfrwt beam="2">  1       -2 0.42573204E+00 0.30812807E+04</pdfrwt>
<totfact> 0.13378928E-01</totfact>
</mgrwt>
</event>
<event>
12    1  0.4403484E-008  0.1388365E+04  0.7818608E-02  0.8962284E-01
          2   -1    0    0  501    0  0.00000000000E+00  0.00000000000E+00  0.11277784671E+04  0.11277784671E+04  0.00000000000E+00 0. -1.
         -2   -1    0    0    0  501 -0.00000000000E+00 -0.00000000000E+00 -0.42729072696E+03  0.42729072696E+03  0.00000000000E+00 0.  1.
         23    2    1    2    0    0 -0.14694829589E+03  0.36224400744E+03  0.31326188417E+03  0.50931944693E+03  0.91971562767E+02 0.  0.
        254    2    1    2    0    0  0.14694829589E+03 -0.36224400744E+03  0.38722585598E+03  0.10457497471E+04  0.88928856257E+03 0.  0.
         23    2    4    4    0    0  0.31041317635E+03  0.16597505054E+03 -0.20584255662E+01  0.36330307807E+03  0.89893447821E+02 0.  0.
         23    2    4    4    0    0 -0.16346488046E+03 -0.52821905798E+03  0.38928428155E+03  0.68244666908E+03  0.91951421516E+02 0.  0.
         11    1    3    3    0    0  0.12219278752E+02  0.27922412169E+02  0.33107619533E+02  0.45000959386E+02  0.00000000000E+00 0.  1.
        -11    1    3    3    0    0 -0.15916757465E+03  0.33432159527E+03  0.28015426464E+03  0.46431848755E+03  0.00000000000E+00 0. -1.
          2    1    5    5  502    0  0.95523899026E+02  0.57237327020E+02 -0.42313311601E+02  0.11912742433E+03  0.00000000000E+00 0. -1.
          1    1    6    6  503    0 -0.20021172359E+02 -0.16092263547E+02  0.46651074053E+01  0.26106924672E+02  0.00000000000E+00 0. -1.
         -2    1    5    5    0  502  0.21488927733E+03  0.10873772352E+03  0.40254886035E+02  0.24417565373E+03  0.00000000000E+00 0.  1.
         -1    1    6    6    0  503 -0.14344370810E+03 -0.51212679443E+03  0.38461917414E+03  0.65633974441E+03  0.00000000000E+00 0.  1.
<mgrwt>
<rscale>  0 0.13883649E+04</rscale>
<asrwt>0</asrwt>
<pdfrwt beam="1">  1        2 0.17350438E+00 0.13883649E+04</pdfrwt>
<pdfrwt beam="2">  1       -2 0.65737035E-01 0.13883649E+04</pdfrwt>
<totfact> 0.43479644E+01</totfact>
</mgrwt>
</event>
<event>
12    1  0.4403484E-008  0.2252286E+04  0.7818608E-02  0.8496975E-01
          2   -1    0    0  501    0  0.00000000000E+00  0.00000000000E+00  0.18437796355E+04  0.18437796355E+04  0.00000000000E+00 0. -1.
         -2   -1    0    0    0  501 -0.00000000000E+00 -0.00000000000E+00 -0.68782500600E+03  0.68782500600E+03  0.00000000000E+00 0.  1.
         23    2    1    2    0    0  0.97901547095E+02 -0.98173149365E+02 -0.55161695307E+03  0.57615787838E+03  0.91945406211E+02 0.  0.
        254    2    1    2    0    0 -0.97901547095E+02  0.98173149365E+02  0.17075715826E+04  0.19554467632E+04  0.94273466768E+03 0.  0.
         23    2    4    4    0    0 -0.50430515609E+03  0.13831634243E+03  0.10392812381E+04  0.11669156992E+04  0.90175696245E+02 0.  0.
         23    2    4    4    0    0  0.40640360900E+03 -0.40143193065E+02  0.66829034451E+03  0.78853106393E+03  0.91618147025E+02 0.  0.
         11    1    3    3    0    0  0.10429873004E+02 -0.34738761597E+02 -0.43302303660E+02  0.56485868237E+02  0.00000000000E+00 0. -1.
        -11    1    3    3    0    0  0.87471674091E+02 -0.63434387768E+02 -0.50831464941E+03  0.51967201015E+03  0.00000000000E+00 0.  1.
          2    1    5    5  502    0 -0.45831275140E+03  0.12938110288E+03  0.87640371579E+03  0.99743346692E+03  0.00000000000E+00 0. -1.
          1    1    6    6  503    0  0.16894123455E+03 -0.26803501515E+02  0.36511549506E+03  0.40319832981E+03  0.00000000000E+00 0. -1.
         -2    1    5    5    0  502 -0.45992404699E+02  0.89352395452E+01  0.16287752230E+03  0.16948223231E+03  0.00000000000E+00 0.  1.
         -1    1    6    6    0  503  0.23746237445E+03 -0.13339691550E+02  0.30317484944E+03  0.38533273412E+03  0.00000000000E+00 0.  1.
<mgrwt>
<rscale>  0 0.22522857E+04</rscale>
<asrwt>0</asrwt>
<pdfrwt beam="1">  1        2 0.28365840E+00 0.22522857E+04</pdfrwt>
<pdfrwt beam="2">  1       -2 0.10581923E+00 0.22522857E+04</pdfrwt>
<totfact> 0.53577485E+00</totfact>
</mgrwt>
</event>
<event>
12    1  0.4403484E-008  0.1498173E+04  0.7818608E-02  0.8885669E-01
          2   -1    0    0  501    0  0.00000000000E+00  0.00000000000E+00  0.20367076249E+04  0.20367076249E+04  0.00000000000E+00 0. -1.
         -2   -1    0    0    0  501 -0.00000000000E+00 -0.00000000000E+00 -0.27550852036E+03  0.27550852036E+03  0.00000000000E+00 0.  1.
         23    2    1    2    0    0  0.28786817596E+03 -0.38488799111E+03  0.54245933433E+03  0.73140359891E+03  0.98398387515E+02 0.  0.
        254    2    1    2    0    0 -0.28786817596E+03  0.38488799111E+03  0.12187397702E+04  0.15808125464E+04  0.88466650597E+03 0.  0.
         23    2    4    4    0    0  0.17704851063E+03 -0.17570048441E+03  0.24370388570E+03  0.36059948831E+03  0.91780018100E+02 0.  0.
         23    2    4    4    0    0 -0.46491668659E+03  0.56058847552E+03  0.97503588452E+03  0.12202130581E+04  0.88419265910E+02 0.  0.
         11    1    3    3    0    0  0.18706947766E+03 -0.30707737623E+03  0.43809931612E+03  0.56676495591E+03  0.00000000000E+00 0.  1.
        -11    1    3    3    0    0  0.10079869830E+03 -0.77810614873E+02  0.10436001821E+03  0.16463864299E+03  0.00000000000E+00 0. -1.
          2    1    6    6  502    0 -0.42794966075E+03  0.49300631435E+03  0.82991201022E+03  0.10559119674E+04  0.00000000000E+00 0.  1.
          2    1    5    5  503    0  0.48207046979E+02 -0.93166344602E+02  0.57608064521E+02  0.11967696622E+03  0.00000000000E+00 0. -1.
         -2    1    5    5    0  503  0.12884146365E+03 -0.82534139812E+02  0.18609582118E+03  0.24092252209E+03  0.00000000000E+00 0.  1.
         -2    1    6    6    0  502 -0.36967025842E+02  0.67582161167E+02  0.14512387431E+03  0.16430109069E+03  0.00000000000E+00 0. -1.
<mgrwt>
<rscale>  0 0.14981726E+04</rscale>
<asrwt>0</asrwt>
<pdfrwt beam="1">  1        2 0.31333963E+00 0.14981726E+04</pdfrwt>
<pdfrwt beam="2">  1       -2 0.42385927E-01 0.14981726E+04</pdfrwt>
<totfact> 0.32513008E+01</totfact>
</mgrwt>
</event>
<event>
12    1  0.4403484E-008  0.2578199E+04  0.7818608E-02  0.8375645E-01
         -2   -1    0    0    0  501 -0.00000000000E+00  0.00000000000E+00  0.70214338920E+03  0.70214338920E+03  0.00000000000E+00 0.  1.
          2   -1    0    0  501    0  0.00000000000E+00 -0.00000000000E+00 -0.23667202642E+04  0.23667202642E+04  0.00000000000E+00 0. -1.
         23    2    1    2    0    0 -0.47327488583E+03 -0.98742263123E+03 -0.40056662573E+03  0.11694434069E+04  0.90286710549E+02 0.  0.
        254    2    1    2    0    0  0.47327488583E+03  0.98742263123E+03 -0.12640102493E+04  0.18994202465E+04  0.90060135038E+03 0.  0.
         23    2    4    4    0    0  0.30980485897E+03 -0.61134962493E+02 -0.16018044626E+03  0.36548919394E+03  0.90598240824E+02 0.  0.
         23    2    4    4    0    0  0.16347002686E+03  0.10485575937E+04 -0.11038298030E+04  0.15339310526E+04  0.91152415973E+02 0.  0.
         13    1    3    3    0    0 -0.38989650675E+03 -0.87319178464E+03 -0.33203305532E+03  0.10122890539E+04  0.00000000000E+00 0. -1.
        -13    1    3    3    0    0 -0.83378379082E+02 -0.11423084659E+03 -0.68533570409E+02  0.15715435306E+03  0.00000000000E+00 0.  1.
          3    1    5    5  502    0  0.26756735232E+03 -0.44262673845E+02 -0.16845125986E+03  0.31926055076E+03  0.00000000000E+00 0. -1.
          3    1    6    6  503    0  0.63281733190E+02  0.42767179662E+03 -0.38609347777E+03  0.57963429587E+03  0.00000000000E+00 0. -1.
         -3    1    5    5    0  502  0.42237506652E+02 -0.16872288648E+02  0.82708136019E+01  0.46228643178E+02  0.00000000000E+00 0.  1.
         -3    1    6    6    0  503  0.10018829367E+03  0.62088579711E+03 -0.71773632528E+03  0.95429675671E+03  0.00000000000E+00 0.  1.
<mgrwt>
<rscale>  0 0.25781986E+04</rscale>
<asrwt>0</asrwt>
<pdfrwt beam="1">  1        2 0.36411081E+00 0.25781986E+04</pdfrwt>
<pdfrwt beam="2">  1       -2 0.10802206E+00 0.25781986E+04</pdfrwt>
<totfact> 0.25264980E+00</totfact>
</mgrwt>
</event>
<event>
12    1  0.4403484E-008  0.1227073E+04  0.7818608E-02  0.9089484E-01
         -2   -1    0    0    0  501 -0.00000000000E+00  0.00000000000E+00  0.33628279153E+03  0.33628279153E+03  0.00000000000E+00 0. -1.
          2   -1    0    0  501    0  0.00000000000E+00 -0.00000000000E+00 -0.11193761006E+04  0.11193761006E+04  0.00000000000E+00 0.  1.
         23    2    1    2    0    0 -0.32099120268E+02  0.30513484030E+03 -0.33550154718E+03  0.46385519130E+03  0.91993076091E+02 0.  0.
        254    2    1    2    0    0  0.32099120268E+02 -0.30513484030E+03 -0.44759176185E+03  0.99180370079E+03  0.83017984277E+03 0.  0.
         23    2    4    4    0    0  0.21242696859E+03  0.21941396853E+03 -0.12593050181E+03  0.34383910612E+03  0.95389375938E+02 0.  0.
         23    2    4    4    0    0 -0.18032784833E+03 -0.52454880883E+03 -0.32166126004E+03  0.64796459466E+03  0.93394667967E+02 0.  0.
         13    1    3    3    0    0 -0.25457480371E+02  0.62755845515E+02 -0.12759843171E+03  0.14445670365E+03  0.00000000000E+00 0. -1.
        -13    1    3    3    0    0 -0.66416398971E+01  0.24237899478E+03 -0.20790311547E+03  0.31939848765E+03  0.00000000000E+00 0.  1.
          1    1    5    5  502    0  0.15834540833E+02  0.31703119696E+02 -0.50604475297E+02  0.61778907419E+02  0.00000000000E+00 0. -1.
          3    1    6    6  503    0 -0.47753152488E+02 -0.13562974063E+03 -0.13284335973E+03  0.19576299022E+03  0.00000000000E+00 0. -1.
         -1    1    5    5    0  502  0.19659242776E+03  0.18771084883E+03 -0.75326026509E+02  0.28206019870E+03  0.00000000000E+00 0.  1.
         -3    1    6    6    0  503 -0.13257469584E+03 -0.38891906820E+03 -0.18881790031E+03  0.45220160444E+03  0.00000000000E+00 0.  1.
<mgrwt>
<rscale>  0 0.12270728E+04</rscale>
<asrwt>0</asrwt>
<pdfrwt beam="1">  1        2 0.17221171E+00 0.12270728E+04</pdfrwt>
<pdfrwt beam="2">  1       -2 0.51735814E-01 0.12270728E+04</pdfrwt>
<totfact> 0.73655161E+01</totfact>
</mgrwt>
</event>
<event>
12    1  0.4403484E-008  0.1247434E+04  0.7818608E-02  0.9072321E-01
          3   -1    0    0  501    0  0.00000000000E+00  0.00000000000E+00  0.11026966378E+03  0.11026966378E+03  0.00000000000E+00 0. -1.
         -3   -1    0    0    0  501 -0.00000000000E+00 -0.00000000000E+00 -0.35279251716E+04  0.35279251716E+04  0.00000000000E+00 0.  1.
         23    2    1    2    0    0 -0.87979051935E+02 -0.59304881669E+02 -0.47621870800E+02  0.14700247895E+03  0.89913868055E+02 0.  0.
        254    2    1    2    0    0  0.87979051935E+02  0.59304881669E+02 -0.33700336371E+04  0.34911923565E+04  0.90556058459E+03 0.  0.
         23    2    4    4    0    0 -0.21604352371E+03  0.38894941835E+03 -0.16392426699E+04  0.17009497773E+04  0.90316996208E+02 0.  0.
         23    2    4    4    0    0  0.30402257565E+03 -0.32964453668E+03 -0.17307909672E+04  0.17902425792E+04  0.90751712388E+02 0.  0.
         11    1    3    3    0    0 -0.91356981436E+02 -0.62850375696E+02 -0.12556932550E+02  0.11159724162E+03  0.00000000000E+00 0. -1.
        -11    1    3    3    0    0  0.33779295012E+01  0.35454940266E+01 -0.35064938250E+02  0.35405237326E+02  0.00000000000E+00 0.  1.
          1    1    5    5  502    0 -0.21795587950E+03  0.38570773870E+03 -0.15619333469E+04  0.16235488921E+04  0.00000000000E+00 0. -1.
          3    1    6    6  503    0  0.25726853737E+03 -0.31746776676E+03 -0.15180135292E+04  0.15720489681E+04  0.00000000000E+00 0. -1.
         -1    1    5    5    0  502  0.19123557885E+01  0.32416796443E+01 -0.77309323033E+02  0.77400885133E+02  0.00000000000E+00 0.  1.
         -3    1    6    6    0  503  0.46754038277E+02 -0.12176769917E+02 -0.21277743800E+03  0.21819361114E+03  0.00000000000E+00 0.  1.
<mgrwt>
<rscale>  0 0.12474344E+04</rscale>
<asrwt>0</asrwt>
<pdfrwt beam="1">  1        3 0.16964564E-01 0.12474344E+04</pdfrwt>
<pdfrwt beam="2">  1       -3 0.54275771E+00 0.12474344E+04</pdfrwt>
<totfact> 0.14813017E-01</totfact>
</mgrwt>
</event>
<event>
12    1  0.4403484E-008  0.2402440E+04  0.7818608E-02  0.8438591E-01
         -2   -1    0    0    0  501 -0.00000000000E+00  0.00000000000E+00  0.83877908610E+03  0.83877908610E+03  0.00000000000E+00 0.  1.
          2   -1    0    0  501    0  0.00000000000E+00 -0.00000000000E+00 -0.17202735447E+04  0.17202735447E+04  0.00000000000E+00 0. -1.
         23    2    1    2    0    0  0.99817437722E+03 -0.25182808017E+03 -0.35692995544E+03  0.10934398778E+04  0.91882010809E+02 0.  0.
        254    2    1    2    0    0 -0.99817437722E+03  0.25182808017E+03 -0.52456450316E+03  0.14656127530E+04  0.90171134768E+03 0.  0.
         23    2    4    4    0    0  0.43853020057E+02 -0.20330539910E+03 -0.68418338268E+02  0.23701116642E+03  0.90758202524E+02 0.  0.
         23    2    4    4    0    0 -0.10420273973E+04  0.45513347927E+03 -0.45614616489E+03  0.12286015866E+04  0.91787549369E+02 0.  0.
         13    1    3    3    0    0  0.42696295758E+03 -0.96815515449E+02 -0.10522028605E+03  0.45026871952E+03  0.00000000000E+00 0.  1.
        -13    1    3    3    0    0  0.57121141964E+03 -0.15501256472E+03 -0.25170966939E+03  0.64317115826E+03  0.00000000000E+00 0. -1.
          3    1    6    6  502    0 -0.10286220943E+04  0.43752900313E+03 -0.45356789081E+03  0.12063245306E+04  0.00000000000E+00 0. -1.
          3    1    5    5  503    0 -0.18081384449E+02 -0.12601730703E+03 -0.46797867448E+02  0.13563678901E+03  0.00000000000E+00 0. -1.
         -3    1    5    5    0  503  0.61934404506E+02 -0.77288092068E+02 -0.21620470821E+02  0.10137437741E+03  0.00000000000E+00 0.  1.
         -3    1    6    6    0  502 -0.13405302957E+02  0.17604476142E+02 -0.25782740750E+01  0.22277056018E+02  0.00000000000E+00 0.  1.
<mgrwt>
<rscale>  0 0.24024400E+04</rscale>
<asrwt>0</asrwt>
<pdfrwt beam="1">  1        2 0.26465747E+00 0.24024400E+04</pdfrwt>
<pdfrwt beam="2">  1       -2 0.12904294E+00 0.24024400E+04</pdfrwt>
<totfact> 0.38019652E+00</totfact>
</mgrwt>
</event>
<event>
12    1  0.4403484E-008  0.1187225E+04  0.7818608E-02  0.9124113E-01
         -1   -1    0    0    0  501 -0.00000000000E+00  0.00000000000E+00  0.26724169252E+03  0.26724169252E+03  0.00000000000E+00 0.  1.
          1   -1    0    0  501    0  0.00000000000E+00 -0.00000000000E+00 -0.13185652304E+04  0.13185652304E+04  0.00000000000E+00 0. -1.
         23    2    1    2    0    0 -0.22422402739E+03 -0.14615716289E+02 -0.32807628129E+03  0.40796900261E+03  0.91184577197E+02 0.  0.
        254    2    1    2    0    0  0.22422402739E+03  0.14615716289E+02 -0.72324725663E+03  0.11778379203E+04  0.90206736930E+03 0.  0.
         23    2    4    4    0    0  0.42453308177E+03  0.26827740315E+03 -0.18605108195E+03  0.54337440374E+03  0.91867486014E+02 0.  0.
         23    2    4    4    0    0 -0.20030905438E+03 -0.25366168686E+03 -0.53719617468E+03  0.63446351660E+03  0.97448730956E+02 0.  0.
         13    1    3    3    0    0 -0.70605292572E+02 -0.79065942674E+01 -0.18404765866E+03  0.19728447033E+03  0.00000000000E+00 0.  1.
        -13    1    3    3    0    0 -0.15361873482E+03 -0.67091220212E+01 -0.14402862263E+03  0.21068453228E+03  0.00000000000E+00 0. -1.
          3    1    5    5  502    0  0.33898839676E+03  0.21809046584E+03 -0.18663013889E+03  0.44419296839E+03  0.00000000000E+00 0. -1.
          3    1    6    6  503    0 -0.17867486149E+03 -0.19641466353E+03 -0.36239424951E+03  0.44925829793E+03  0.00000000000E+00 0. -1.
         -3    1    5    5    0  502  0.85544685014E+02  0.50186937308E+02  0.57905694357E+00  0.99181435347E+02  0.00000000000E+00 0.  1.
         -3    1    6    6    0  503 -0.21634192886E+02 -0.57247023331E+02 -0.17480192517E+03  0.18520521868E+03  0.00000000000E+00 0.  1.
<mgrwt>
<rscale>  0 0.11872247E+04</rscale>
<asrwt>0</asrwt>
<pdfrwt beam="1">  1        1 0.20285618E+00 0.11872247E+04</pdfrwt>
<pdfrwt beam="2">  1       -1 0.41114108E-01 0.11872247E+04</pdfrwt>
<totfact> 0.50309045E+01</totfact>
</mgrwt>
</event>
<event>
12    1  0.4403484E-008  0.1661263E+04  0.7818608E-02  0.8783771E-01
         -1   -1    0    0    0  501 -0.00000000000E+00  0.00000000000E+00  0.16357502376E+04  0.16357502376E+04  0.00000000000E+00 0.  1.
          1   -1    0    0  501    0  0.00000000000E+00 -0.00000000000E+00 -0.42179362205E+03  0.42179362205E+03  0.00000000000E+00 0. -1.
         23    2    1    2    0    0  0.37622158288E+03 -0.35756547855E+03  0.75266942731E+02  0.53295837997E+03  0.94782758120E+02 0.  0.
        254    2    1    2    0    0 -0.37622158288E+03  0.35756547855E+03  0.11386896728E+04  0.15245854797E+04  0.87083348750E+03 0.  0.
         23    2    4    4    0    0  0.12032656333E+03  0.40143533407E+03  0.23733913084E+03  0.49035446930E+03  0.92134864444E+02 0.  0.
         23    2    4    4    0    0 -0.49654814621E+03 -0.43869855520E+02  0.90135054197E+03  0.10342310104E+04  0.93361435120E+02 0.  0.
         11    1    3    3    0    0  0.15873563572E+03 -0.10331354413E+03 -0.26948008897E+01  0.18941476289E+03  0.00000000000E+00 0. -1.
        -11    1    3    3    0    0  0.21748594716E+03 -0.25425193443E+03  0.77961743620E+02  0.34354361709E+03  0.00000000000E+00 0.  1.
          1    1    5    5  502    0  0.41191333097E+02  0.35566212008E+02  0.23776473241E+02  0.59388568249E+02  0.00000000000E+00 0. -1.
          3    1    6    6  503    0 -0.25200881586E+03 -0.65402900989E+02  0.42677283768E+03  0.49992103147E+03  0.00000000000E+00 0. -1.
         -1    1    5    5    0  502  0.79135230230E+02  0.36586912207E+03  0.21356265760E+03  0.43096590105E+03  0.00000000000E+00 0.  1.
         -3    1    6    6    0  503 -0.24453933035E+03  0.21533045469E+02  0.47457770429E+03  0.53430997889E+03  0.00000000000E+00 0.  1.
<mgrwt>
<rscale>  0 0.16612634E+04</rscale>
<asrwt>0</asrwt>
<pdfrwt beam="1">  1        1 0.64891327E-01 0.16612634E+04</pdfrwt>
<pdfrwt beam="2">  1       -1 0.25165388E+00 0.16612634E+04</pdfrwt>
<totfact> 0.36292330E+00</totfact>
</mgrwt>
</event>
<event>
12    1  0.4403484E-008  0.2568626E+04  0.7818608E-02  0.8378937E-01
          2   -1    0    0  501    0  0.00000000000E+00  0.00000000000E+00  0.13562389681E+04  0.13562389681E+04  0.00000000000E+00 0. -1.
         -2   -1    0    0    0  501 -0.00000000000E+00 -0.00000000000E+00 -0.12162014608E+04  0.12162014608E+04  0.00000000000E+00 0.  1.
         23    2    1    2    0    0  0.37629006543E+03  0.45329915513E+03  0.10201052315E+04  0.11819531309E+04  0.96561808754E+02 0.  0.
        254    2    1    2    0    0 -0.37629006543E+03 -0.45329915513E+03 -0.88006772422E+03  0.13904872980E+04  0.90103351178E+03 0.  0.
         23    2    4    4    0    0  0.49203275104E+02  0.11684551930E+03  0.89667506579E+02  0.18422063370E+03  0.99111767620E+02 0.  0.
         23    2    4    4    0    0 -0.42549334054E+03 -0.57014467443E+03 -0.96973523080E+03  0.12062666643E+04  0.92646181618E+02 0.  0.
         13    1    3    3    0    0  0.35663556093E+03  0.41508219827E+03  0.98349879315E+03  0.11255007911E+04  0.00000000000E+00 0. -1.
        -13    1    3    3    0    0  0.19654504509E+02  0.38216956856E+02  0.36606438324E+02  0.56452339771E+02  0.00000000000E+00 0.  1.
          2    1    5    5  502    0  0.22847968322E+02  0.12914489009E+03  0.79739655960E+02  0.15348890847E+03  0.00000000000E+00 0. -1.
          3    1    6    6  503    0 -0.38964410482E+03 -0.53544684689E+03 -0.93383014612E+03  0.11447989326E+04  0.00000000000E+00 0. -1.
         -2    1    5    5    0  502  0.26355306782E+02 -0.12299370782E+02  0.99278506188E+01  0.30731725222E+02  0.00000000000E+00 0.  1.
         -3    1    6    6    0  503 -0.35849235715E+02 -0.34697827541E+02 -0.35905084679E+02  0.61467731723E+02  0.00000000000E+00 0.  1.
<mgrwt>
<rscale>  0 0.25686259E+04</rscale>
<asrwt>0</asrwt>
<pdfrwt beam="1">  1        2 0.20865215E+00 0.25686259E+04</pdfrwt>
<pdfrwt beam="2">  1       -2 0.18710792E+00 0.25686259E+04</pdfrwt>
<totfact> 0.22048627E+00</totfact>
</mgrwt>
</event>
<event>
12    1  0.4403484E-008  0.1279009E+04  0.7818608E-02  0.9046378E-01
         -1   -1    0    0    0  501 -0.00000000000E+00  0.00000000000E+00  0.72895201503E+03  0.72895201503E+03  0.00000000000E+00 0.  1.
          1   -1    0    0  501    0  0.00000000000E+00 -0.00000000000E+00 -0.56103321558E+03  0.56103321558E+03  0.00000000000E+00 0. -1.
         23    2    1    2    0    0 -0.27578507010E+03 -0.34014767712E+02  0.17856259939E+03  0.34265930327E+03  0.91194226253E+02 0.  0.
        254    2    1    2    0    0  0.27578507010E+03  0.34014767712E+02 -0.10643799944E+02  0.94732592734E+03  0.90559301721E+03 0.  0.
         23    2    4    4    0    0 -0.12868521066E+03  0.11096896768E+03 -0.35410135258E+03  0.40352361001E+03  0.92571813771E+02 0.  0.
         23    2    4    4    0    0  0.40447028077E+03 -0.76954199969E+02  0.34345755264E+03  0.54380231732E+03  0.90772864574E+02 0.  0.
         13    1    3    3    0    0  0.14531822387E+01 -0.97138843720E+01 -0.31179205931E+01  0.10304985058E+02  0.00000000000E+00 0. -1.
        -13    1    3    3    0    0 -0.27723825234E+03 -0.24300883340E+02  0.18168051998E+03  0.33235431821E+03  0.00000000000E+00 0.  1.
          2    1    5    5  502    0 -0.11973345259E+03  0.77902167649E+02 -0.33526918657E+03  0.36443144055E+03  0.00000000000E+00 0.  1.
          1    1    6    6  503    0  0.14318439885E+03 -0.69069576267E+02  0.10995027863E+03  0.19329108156E+03  0.00000000000E+00 0. -1.
         -2    1    5    5    0  502 -0.89517580707E+01  0.33066800032E+02 -0.18832166011E+02  0.39092169466E+02  0.00000000000E+00 0. -1.
         -1    1    6    6    0  503  0.26128588192E+03 -0.78846237015E+01  0.23350727401E+03  0.35051123576E+03  0.00000000000E+00 0.  1.
<mgrwt>
<rscale>  0 0.12790094E+04</rscale>
<asrwt>0</asrwt>
<pdfrwt beam="1">  1        1 0.86312803E-01 0.12790094E+04</pdfrwt>
<pdfrwt beam="2">  1       -1 0.11214646E+00 0.12790094E+04</pdfrwt>
<totfact> 0.27064810E+01</totfact>
</mgrwt>
</event>
<event>
12    1  0.4403484E-008  0.1776862E+04  0.7818608E-02  0.8718702E-01
          1   -1    0    0  501    0  0.00000000000E+00  0.00000000000E+00  0.13460972135E+04  0.13460972135E+04  0.00000000000E+00 0. -1.
         -1   -1    0    0    0  501 -0.00000000000E+00 -0.00000000000E+00 -0.58636902464E+03  0.58636902464E+03  0.00000000000E+00 0.  1.
         23    2    1    2    0    0 -0.50075906338E+03  0.42258218336E+03  0.22869793570E+03  0.69994327697E+03  0.91008262996E+02 0.  0.
        254    2    1    2    0    0  0.50075906338E+03 -0.42258218336E+03  0.53103025312E+03  0.12325229611E+04  0.89876825641E+03 0.  0.
         23    2    4    4    0    0  0.72339972079E+03 -0.41343837090E+03  0.53259913254E+03  0.99296351264E+03  0.89868008036E+02 0.  0.
         23    2    4    4    0    0 -0.22264065741E+03 -0.91438124521E+01 -0.15688794214E+01  0.23955944849E+03  0.87942005545E+02 0.  0.
         13    1    3    3    0    0 -0.17806841798E+03  0.14659469197E+03  0.35203583354E+02  0.23331878938E+03  0.00000000000E+00 0. -1.
        -13    1    3    3    0    0 -0.32269064539E+03  0.27598749139E+03  0.19349435234E+03  0.46662448759E+03  0.00000000000E+00 0.  1.
          2    1    5    5  502    0  0.40685823759E+03 -0.28309098920E+03  0.32077066311E+03  0.59039643628E+03  0.00000000000E+00 0. -1.
          1    1    6    6  503    0 -0.21137095864E+03  0.12581117076E+02  0.11031510311E+02  0.21203221661E+03  0.00000000000E+00 0. -1.
         -2    1    5    5    0  502  0.31654148320E+03 -0.13034738170E+03  0.21182846943E+03  0.40256707635E+03  0.00000000000E+00 0.  1.
         -1    1    6    6    0  503 -0.11269698777E+02 -0.21724929528E+02 -0.12600389733E+02  0.27527231879E+02  0.00000000000E+00 0.  1.
<mgrwt>
<rscale>  0 0.17768621E+04</rscale>
<asrwt>0</asrwt>
<pdfrwt beam="1">  1        1 0.20709188E+00 0.17768621E+04</pdfrwt>
<pdfrwt beam="2">  1       -1 0.90210619E-01 0.17768621E+04</pdfrwt>
<totfact> 0.95290944E+00</totfact>
</mgrwt>
</event>
<event>
12    1  0.4403484E-008  0.1510497E+04  0.7818608E-02  0.8877502E-01
          2   -1    0    0  501    0  0.00000000000E+00  0.00000000000E+00  0.65762247366E+03  0.65762247366E+03  0.00000000000E+00 0. -1.
         -2   -1    0    0    0  501 -0.00000000000E+00 -0.00000000000E+00 -0.86736757004E+03  0.86736757004E+03  0.00000000000E+00 0.  1.
         23    2    1    2    0    0 -0.18670666921E+03  0.27196386410E+03 -0.40805774942E+03  0.53232540452E+03  0.89640870887E+02 0.  0.
        254    2    1    2    0    0  0.18670666921E+03 -0.27196386410E+03  0.19831265304E+03  0.99266463918E+03  0.91500352667E+03 0.  0.
         23    2    4    4    0    0  0.14649020902E+03 -0.59008430945E+03  0.28194966388E+02  0.61524967051E+03  0.89879515656E+02 0.  0.
         23    2    4    4    0    0  0.40216460193E+02  0.31812044536E+03  0.17011768665E+03  0.37741496867E+03  0.10336367756E+03 0.  0.
         11    1    3    3    0    0 -0.13082666583E+03  0.16607515168E+03 -0.19338109215E+03  0.28651844495E+03  0.00000000000E+00 0.  1.
        -11    1    3    3    0    0 -0.55880003384E+02  0.10588871242E+03 -0.21467665727E+03  0.24580695957E+03  0.00000000000E+00 0. -1.
          3    1    5    5  502    0 -0.11184004919E+02 -0.44295647232E+02  0.10445839416E+02  0.46864719041E+02  0.00000000000E+00 0. -1.
          3    1    6    6  503    0 -0.19076004341E+02  0.11827757751E+02  0.81888453077E+00  0.22460195167E+02  0.00000000000E+00 0. -1.
         -3    1    5    5    0  502  0.15767421394E+03 -0.54578866222E+03  0.17749126972E+02  0.56838495147E+03  0.00000000000E+00 0.  1.
         -3    1    6    6    0  503  0.59292464534E+02  0.30629268760E+03  0.16929880212E+03  0.35495477350E+03  0.00000000000E+00 0.  1.
<mgrwt>
<rscale>  0 0.15104971E+04</rscale>
<asrwt>0</asrwt>
<pdfrwt beam="1">  1        2 0.10117269E+00 0.15104971E+04</pdfrwt>
<pdfrwt beam="2">  1       -2 0.13344116E+00 0.15104971E+04</pdfrwt>
<totfact> 0.17380280E+01</totfact>
</mgrwt>
</event>
<event>
12    1  0.7207838E-008  0.1890240E+04  0.7818608E-02  0.8659730E-01
         -2   -1    0    0    0  501 -0.00000000000E+00  0.00000000000E+00  0.57818368766E+03  0.57818368766E+03  0.00000000000E+00 0.  1.
          2   -1    0    0  501    0  0.00000000000E+00 -0.00000000000E+00 -0.15449269375E+04  0.15449269375E+04  0.00000000000E+00 0. -1.
         23    2    1    2    0    0  0.37654061896E+03 -0.61653363535E+03 -0.41459843712E+03  0.84053570453E+03  0.11274681938E+03 0.  0.
        254    2    1    2    0    0 -0.37654061896E+03  0.61653363535E+03 -0.55214481276E+03  0.12825749207E+04  0.90456507319E+03 0.  0.
         23    2    4    4    0    0 -0.37561749615E+03  0.47578445790E+03 -0.78538630140E+03  0.99657574434E+03  0.94192451839E+02 0.  0.
         23    2    4    4    0    0 -0.92312281128E+00  0.14074917744E+03  0.23324148864E+03  0.28599917633E+03  0.87079008575E+02 0.  0.
         13    1    3    3    0    0  0.29624531262E+03 -0.48598472946E+03 -0.37710006846E+03  0.68274951787E+03  0.00000000000E+00 0. -1.
        -13    1    3    3    0    0  0.80295306341E+02 -0.13054890588E+03 -0.37498368666E+02  0.15778618666E+03  0.00000000000E+00 0.  1.
          1    1    5    5  502    0 -0.35175036212E+03  0.46840477573E+03 -0.73115168019E+03  0.93686398726E+03  0.00000000000E+00 0. -1.
          3    1    6    6  503    0 -0.20889688047E+02  0.13985293303E+03  0.22159152024E+03  0.26286502960E+03  0.00000000000E+00 0. -1.
         -1    1    5    5    0  502 -0.23867134034E+02  0.73796821706E+01 -0.54234621207E+02  0.59711757079E+02  0.00000000000E+00 0.  1.
         -3    1    6    6    0  503  0.19966565235E+02  0.89624441039E+00  0.11649968396E+02  0.23134146731E+02  0.00000000000E+00 0.  1.
<mgrwt>
<rscale>  0 0.18902397E+04</rscale>
<asrwt>0</asrwt>
<pdfrwt beam="1">  1        2 0.23768106E+00 0.18902397E+04</pdfrwt>
<pdfrwt beam="2">  1       -2 0.88951339E-01 0.18902397E+04</pdfrwt>
<totfact> 0.12186660E+01</totfact>
</mgrwt>
</event>
<event>
12    1  0.4403484E-008  0.2548189E+04  0.7818608E-02  0.8386016E-01
         -2   -1    0    0    0  501 -0.00000000000E+00  0.00000000000E+00  0.45544197243E+03  0.45544197243E+03  0.00000000000E+00 0. -1.
          2   -1    0    0  501    0  0.00000000000E+00 -0.00000000000E+00 -0.35642665306E+04  0.35642665306E+04  0.00000000000E+00 0.  1.
         23    2    1    2    0    0  0.39810781516E+03  0.80095456907E+02 -0.30140628427E+04  0.30427763114E+04  0.94909150992E+02 0.  0.
        254    2    1    2    0    0 -0.39810781516E+03 -0.80095456907E+02 -0.94761715496E+02  0.97693219162E+03  0.88346568105E+03 0.  0.
         23    2    4    4    0    0  0.22845896892E+03 -0.20547133897E+03 -0.73542260575E+02  0.33098745600E+03  0.98652219038E+02 0.  0.
         23    2    4    4    0    0 -0.62656678408E+03  0.12537588207E+03 -0.21219454922E+02  0.64594473562E+03  0.92137340367E+02 0.  0.
         13    1    3    3    0    0  0.12024022151E+03  0.54767613828E+02 -0.12220167062E+04  0.12291387362E+04  0.00000000000E+00 0. -1.
        -13    1    3    3    0    0  0.27786759366E+03  0.25327843079E+02 -0.17920461364E+04  0.18136375753E+04  0.00000000000E+00 0.  1.
          4    1    5    5  502    0  0.12809929928E+02 -0.56866372211E+02  0.22910549720E+01  0.58336331099E+02  0.00000000000E+00 0. -1.
          3    1    6    6  503    0 -0.19978124818E+02 -0.12446298573E+02 -0.14240969126E+01  0.23581006582E+02  0.00000000000E+00 0. -1.
         -4    1    5    5    0  502  0.21564903899E+03 -0.14860496676E+03 -0.75833315547E+02  0.27265112490E+03  0.00000000000E+00 0.  1.
         -3    1    6    6    0  503 -0.60658865926E+03  0.13782218064E+03 -0.19795358009E+02  0.62236372904E+03  0.00000000000E+00 0.  1.
<mgrwt>
<rscale>  0 0.25481888E+04</rscale>
<asrwt>0</asrwt>
<pdfrwt beam="1">  1        2 0.54834867E+00 0.25481888E+04</pdfrwt>
<pdfrwt beam="2">  1       -2 0.70067999E-01 0.25481888E+04</pdfrwt>
<totfact> 0.12081490E+00</totfact>
</mgrwt>
</event>
<event>
12    1  0.4403484E-008  0.1757369E+04  0.7818608E-02  0.8729305E-01
         -2   -1    0    0    0  501 -0.00000000000E+00  0.00000000000E+00  0.66093074524E+03  0.66093074524E+03  0.00000000000E+00 0.  1.
          2   -1    0    0  501    0  0.00000000000E+00 -0.00000000000E+00 -0.11681804636E+04  0.11681804636E+04  0.00000000000E+00 0. -1.
         23    2    1    2    0    0  0.41018515624E+03  0.10402059204E+03  0.32007387651E+03  0.53837053250E+03  0.91232657938E+02 0.  0.
        254    2    1    2    0    0 -0.41018515624E+03 -0.10402059204E+03 -0.82732359491E+03  0.12907406764E+04  0.89580969908E+03 0.  0.
         23    2    4    4    0    0 -0.63464756171E+03 -0.10000207212E+03 -0.82212195339E+03  0.10473473254E+04  0.90961375092E+02 0.  0.
         23    2    4    4    0    0  0.22446240547E+03 -0.40185199186E+01 -0.52016415138E+01  0.24339335097E+03  0.93881554364E+02 0.  0.
         13    1    3    3    0    0  0.85114889517E+02 -0.12253547700E+02  0.83424227646E+02  0.11980941368E+03  0.00000000000E+00 0. -1.
        -13    1    3    3    0    0  0.32507026672E+03  0.11627413974E+03  0.23664964886E+03  0.41856111882E+03  0.00000000000E+00 0.  1.
          2    1    5    5  502    0 -0.61680707078E+03 -0.10946131359E+03 -0.80930845417E+03  0.10234319302E+04  0.00000000000E+00 0.  1.
          3    1    6    6  503    0  0.42842992157E+02 -0.36830627482E+02 -0.15378047869E+02  0.58553406852E+02  0.00000000000E+00 0. -1.
         -2    1    5    5    0  502 -0.17840490932E+02  0.94592414689E+01 -0.12813499222E+02  0.23915395212E+02  0.00000000000E+00 0. -1.
         -3    1    6    6    0  503  0.18161941331E+03  0.32812107564E+02  0.10176406355E+02  0.18483994411E+03  0.00000000000E+00 0.  1.
<mgrwt>
<rscale>  0 0.17573689E+04</rscale>
<asrwt>0</asrwt>
<pdfrwt beam="1">  1        2 0.17972007E+00 0.17573689E+04</pdfrwt>
<pdfrwt beam="2">  1       -2 0.10168165E+00 0.17573689E+04</pdfrwt>
<totfact> 0.14887403E+01</totfact>
</mgrwt>
</event>
<event>
12    1  0.4403484E-008  0.1454176E+04  0.7818608E-02  0.8915510E-01
         -4   -1    0    0    0  501 -0.00000000000E+00  0.00000000000E+00  0.62382832726E+03  0.62382832726E+03  0.00000000000E+00 0.  1.
          4   -1    0    0  501    0  0.00000000000E+00 -0.00000000000E+00 -0.84744019493E+03  0.84744019493E+03  0.00000000000E+00 0. -1.
         23    2    1    2    0    0  0.25259026917E+03 -0.28011342103E+03 -0.21735031148E+03  0.44965701945E+03  0.11262728143E+03 0.  0.
        254    2    1    2    0    0 -0.25259026917E+03  0.28011342103E+03 -0.62615561903E+01  0.10216115027E+04  0.94941323076E+03 0.  0.
         23    2    4    4    0    0 -0.46013268972E+03  0.50903032621E+03 -0.60011381153E+02  0.69481988200E+03  0.91319972687E+02 0.  0.
         23    2    4    4    0    0  0.20754242055E+03 -0.22891690518E+03  0.53749824963E+02  0.32679162075E+03  0.91798223857E+02 0.  0.
         13    1    3    3    0    0  0.60200346793E+02 -0.22879508006E+02 -0.50090414143E+01  0.64596007125E+02  0.00000000000E+00 0.  1.
        -13    1    3    3    0    0  0.19238992237E+03 -0.25723391302E+03 -0.21234127006E+03  0.38506101232E+03  0.00000000000E+00 0. -1.
          2    1    6    6  502    0  0.20415785336E+03 -0.18017731684E+03  0.35326636043E+02  0.27457652086E+03  0.00000000000E+00 0.  1.
          2    1    5    5  503    0 -0.33719312376E+03  0.38882811736E+03 -0.63775975694E+01  0.51471077443E+03  0.00000000000E+00 0.  1.
         -2    1    5    5    0  503 -0.12293956596E+03  0.12020220884E+03 -0.53633783583E+02  0.18010910757E+03  0.00000000000E+00 0. -1.
         -2    1    6    6    0  502  0.33845671896E+01 -0.48739588341E+02  0.18423188919E+02  0.52215099891E+02  0.00000000000E+00 0. -1.
<mgrwt>
<rscale>  0 0.14541763E+04</rscale>
<asrwt>0</asrwt>
<pdfrwt beam="1">  1        4 0.13037542E+00 0.14541763E+04</pdfrwt>
<pdfrwt beam="2">  1       -4 0.95973588E-01 0.14541763E+04</pdfrwt>
<totfact> 0.75745705E-01</totfact>
</mgrwt>
</event>
<event>
12    1  0.4403484E-008  0.2141506E+04  0.7818608E-02  0.8543177E-01
          2   -1    0    0  501    0  0.00000000000E+00  0.00000000000E+00  0.27014991718E+04  0.27014991718E+04  0.00000000000E+00 0.  1.
         -2   -1    0    0    0  501 -0.00000000000E+00 -0.00000000000E+00 -0.42439844344E+03  0.42439844344E+03  0.00000000000E+00 0. -1.
         23    2    1    2    0    0  0.67556058677E+03  0.56122757993E+03  0.10671376310E+04  0.13851200290E+04  0.91740221993E+02 0.  0.
        254    2    1    2    0    0 -0.67556058677E+03 -0.56122757993E+03  0.12099630974E+04  0.17407775863E+04  0.89159262276E+03 0.  0.
         23    2    4    4    0    0 -0.46183815259E+03 -0.78056728188E+03  0.10219659555E+04  0.13693844496E+04  0.90661986833E+02 0.  0.
         23    2    4    4    0    0 -0.21372243418E+03  0.21933970195E+03  0.18799714184E+03  0.37139313665E+03  0.93822986981E+02 0.  0.
         13    1    3    3    0    0  0.32925597505E+03  0.22192598296E+03  0.44527958570E+03  0.59660250457E+03  0.00000000000E+00 0. -1.
        -13    1    3    3    0    0  0.34630461172E+03  0.33930159697E+03  0.62185804531E+03  0.78851752442E+03  0.00000000000E+00 0.  1.
          4    1    5    5  502    0 -0.19990087856E+03 -0.39194421219E+03  0.44090491161E+03  0.62287861402E+03  0.00000000000E+00 0. -1.
          1    1    6    6  503    0 -0.41407649491E+02  0.83792586396E+01  0.34807434082E+01  0.42390104817E+02  0.00000000000E+00 0. -1.
         -4    1    5    5    0  502 -0.26193727403E+03 -0.38862306969E+03  0.58106104391E+03  0.74650583559E+03  0.00000000000E+00 0.  1.
         -1    1    6    6    0  503 -0.17231478469E+03  0.21096044331E+03  0.18451639843E+03  0.32900303183E+03  0.00000000000E+00 0.  1.
<mgrwt>
<rscale>  0 0.21415061E+04</rscale>
<asrwt>0</asrwt>
<pdfrwt beam="1">  1        2 0.41561525E+00 0.21415061E+04</pdfrwt>
<pdfrwt beam="2">  1       -2 0.65292070E-01 0.21415061E+04</pdfrwt>
<totfact> 0.52657620E+00</totfact>
</mgrwt>
</event>
<event>
12    1  0.4403484E-008  0.3276482E+04  0.7818608E-02  0.8168905E-01
         -2   -1    0    0    0  501 -0.00000000000E+00  0.00000000000E+00  0.77566059697E+03  0.77566059697E+03  0.00000000000E+00 0.  1.
          2   -1    0    0  501    0  0.00000000000E+00 -0.00000000000E+00 -0.34600618658E+04  0.34600618658E+04  0.00000000000E+00 0. -1.
         23    2    1    2    0    0 -0.20783704732E+03 -0.76023569194E+03 -0.29146452384E+04  0.30206768085E+04  0.90426601925E+02 0.  0.
        254    2    1    2    0    0  0.20783704732E+03  0.76023569194E+03  0.23024396949E+03  0.12150456543E+04  0.89563894010E+03 0.  0.
         23    2    4    4    0    0  0.29502242734E+03  0.70192885074E+03  0.49660325138E+03  0.91355759267E+03  0.90721230717E+02 0.  0.
         23    2    4    4    0    0 -0.87185380022E+02  0.58306841196E+02 -0.26635928189E+03  0.30148806164E+03  0.94587557530E+02 0.  0.
         11    1    3    3    0    0 -0.34470092228E+02 -0.21339199230E+03 -0.67732011995E+03  0.71097600137E+03  0.00000000000E+00 0.  1.
        -11    1    3    3    0    0 -0.17336695509E+03 -0.54684369964E+03 -0.22373251184E+04  0.23097008071E+04  0.00000000000E+00 0. -1.
          2    1    5    5  502    0  0.27866077099E+03  0.65881369677E+03  0.48979876847E+03  0.86694298886E+03  0.00000000000E+00 0.  1.
          1    1    6    6  503    0 -0.35237068006E+02  0.31172782087E+02 -0.25323109725E+02  0.53428954611E+02  0.00000000000E+00 0. -1.
         -2    1    5    5    0  502  0.16361656351E+02  0.43115153977E+02  0.68044829154E+01  0.46614603814E+02  0.00000000000E+00 0. -1.
         -1    1    6    6    0  503 -0.51948312015E+02  0.27134059109E+02 -0.24103617217E+03  0.24805910703E+03  0.00000000000E+00 0.  1.
<mgrwt>
<rscale>  0 0.32764820E+04</rscale>
<asrwt>0</asrwt>
<pdfrwt beam="1">  1        2 0.53231722E+00 0.32764820E+04</pdfrwt>
<pdfrwt beam="2">  1       -2 0.11933240E+00 0.32764820E+04</pdfrwt>
<totfact> 0.39001940E-01</totfact>
</mgrwt>
</event>
<event>
12    1  0.4703814E-008  0.2390248E+04  0.7818608E-02  0.8443164E-01
         -2   -1    0    0    0  501 -0.00000000000E+00  0.00000000000E+00  0.65956512249E+03  0.65956512249E+03  0.00000000000E+00 0.  1.
          2   -1    0    0  501    0  0.00000000000E+00 -0.00000000000E+00 -0.21655497112E+04  0.21655497112E+04  0.00000000000E+00 0. -1.
         23    2    1    2    0    0 -0.47019697183E+03 -0.13371447368E+03 -0.17134474967E+04  0.17840968928E+04  0.90192274897E+02 0.  0.
        254    2    1    2    0    0  0.47019697183E+03  0.13371447368E+03  0.20746290794E+03  0.10410179409E+04  0.89538413109E+03 0.  0.
         23    2    4    4    0    0 -0.21928468372E+03  0.11233465823E+03 -0.10261008576E+03  0.27891674274E+03  0.80999208197E+02 0.  0.
         23    2    4    4    0    0  0.68948165554E+03  0.21379815449E+02  0.31007299369E+03  0.76210119811E+03  0.93866527097E+02 0.  0.
         13    1    3    3    0    0 -0.17202738508E+03 -0.12337484680E+02 -0.51207783486E+03  0.54034187669E+03  0.00000000000E+00 0. -1.
        -13    1    3    3    0    0 -0.29816958674E+03 -0.12137698900E+03 -0.12013696618E+04  0.12437550161E+04  0.00000000000E+00 0.  1.
          4    1    5    5  502    0 -0.54365607081E+02 -0.66386863728E+01 -0.33183062226E+02  0.64037543744E+02  0.00000000000E+00 0. -1.
          1    1    6    6  503    0  0.41308408825E+03  0.53694243706E+02  0.20885388447E+03  0.46598442124E+03  0.00000000000E+00 0. -1.
         -4    1    5    5    0  502 -0.16491907663E+03  0.11897334460E+03 -0.69427023530E+02  0.21487919899E+03  0.00000000000E+00 0.  1.
         -1    1    6    6    0  503  0.27639756729E+03 -0.32314428257E+02  0.10121910922E+03  0.29611677688E+03  0.00000000000E+00 0.  1.
<mgrwt>
<rscale>  0 0.23902477E+04</rscale>
<asrwt>0</asrwt>
<pdfrwt beam="1">  1        2 0.33316150E+00 0.23902477E+04</pdfrwt>
<pdfrwt beam="2">  1       -2 0.10147156E+00 0.23902477E+04</pdfrwt>
<totfact> 0.38760429E+00</totfact>
</mgrwt>
</event>
<event>
12    1  0.4403484E-008  0.1107218E+04  0.7818608E-02  0.9198185E-01
         -2   -1    0    0    0  501 -0.00000000000E+00  0.00000000000E+00  0.15742590460E+03  0.15742590460E+03  0.00000000000E+00 0.  1.
          2   -1    0    0  501    0  0.00000000000E+00 -0.00000000000E+00 -0.19468408564E+04  0.19468408564E+04  0.00000000000E+00 0. -1.
         23    2    1    2    0    0 -0.46230521880E+02  0.41429582112E+02 -0.10838876177E+02  0.11073102402E+03  0.91050573954E+02 0.  0.
        254    2    1    2    0    0  0.46230521880E+02 -0.41429582112E+02 -0.17785760756E+04  0.19935357369E+04  0.89833078893E+03 0.  0.
         23    2    4    4    0    0  0.42794152778E+03  0.56779310832E+02 -0.58387901247E+03  0.73211336286E+03  0.93367197318E+02 0.  0.
         23    2    4    4    0    0 -0.38171100590E+03 -0.98208892944E+02 -0.11946970631E+04  0.12614223741E+04  0.92396182397E+02 0.  0.
         13    1    3    3    0    0 -0.57856812473E+02  0.24773960136E+01  0.18281143193E+02  0.60726834571E+02  0.00000000000E+00 0.  1.
        -13    1    3    3    0    0  0.11626290593E+02  0.38952186098E+02 -0.29120019370E+02  0.50004189453E+02  0.00000000000E+00 0. -1.
          4    1    5    5  502    0  0.42956576505E+03  0.55842866441E+02 -0.58635275725E+03  0.72900941569E+03  0.00000000000E+00 0. -1.
          3    1    6    6  503    0 -0.37422982207E+03 -0.10893039170E+03 -0.11733349308E+04  0.12363772280E+04  0.00000000000E+00 0. -1.
         -4    1    5    5    0  502 -0.16242372734E+01  0.93644439131E+00  0.24737447731E+01  0.31039471679E+01  0.00000000000E+00 0.  1.
         -3    1    6    6    0  503 -0.74811838300E+01  0.10721498756E+02 -0.21362132278E+02  0.25045146087E+02  0.00000000000E+00 0.  1.
<mgrwt>
<rscale>  0 0.11072185E+04</rscale>
<asrwt>0</asrwt>
<pdfrwt beam="1">  1        2 0.29951399E+00 0.11072185E+04</pdfrwt>
<pdfrwt beam="2">  1       -2 0.24219369E-01 0.11072185E+04</pdfrwt>
<totfact> 0.10802515E+02</totfact>
</mgrwt>
</event>
<event>
12    1  0.4403484E-008  0.1373455E+04  0.7818608E-02  0.8973260E-01
          1   -1    0    0  501    0  0.00000000000E+00  0.00000000000E+00  0.20385605021E+04  0.20385605021E+04  0.00000000000E+00 0. -1.
         -1   -1    0    0    0  501 -0.00000000000E+00 -0.00000000000E+00 -0.23133719415E+03  0.23133719415E+03  0.00000000000E+00 0.  1.
         23    2    1    2    0    0 -0.27865625372E+03 -0.40155996079E+02  0.96082235558E+03  0.10052181296E+04  0.89566050121E+02 0.  0.
        254    2    1    2    0    0  0.27865625372E+03  0.40155996079E+02  0.84640095240E+03  0.12646795667E+04  0.89652552801E+03 0.  0.
         23    2    4    4    0    0  0.53920704047E+03  0.95893907063E+02  0.80689784647E+03  0.97942880510E+03  0.90866802009E+02 0.  0.
         23    2    4    4    0    0 -0.26055078675E+03 -0.55737910984E+02  0.39503105931E+02  0.28525076158E+03  0.93883302053E+02 0.  0.
         13    1    3    3    0    0 -0.49952693236E+02 -0.34381801535E+02  0.12957093634E+03  0.14305945401E+03  0.00000000000E+00 0.  1.
        -13    1    3    3    0    0 -0.22870356048E+03 -0.57741945433E+01  0.83125141924E+03  0.86215867558E+03  0.00000000000E+00 0. -1.
          4    1    5    5  502    0  0.13650684870E+02 -0.76489852265E+01  0.48312865526E+02  0.50783670090E+02  0.00000000000E+00 0. -1.
          1    1    6    6  503    0 -0.67506853641E+02  0.22264799615E+02 -0.84739819608E+01  0.71587044643E+02  0.00000000000E+00 0. -1.
         -4    1    5    5    0  502  0.52555635560E+03  0.10354289229E+03  0.75858498094E+03  0.92864513501E+03  0.00000000000E+00 0.  1.
         -1    1    6    6    0  503 -0.19304393311E+03 -0.78002710599E+02  0.47977087892E+02  0.21366371693E+03  0.00000000000E+00 0.  1.
<mgrwt>
<rscale>  0 0.13734553E+04</rscale>
<asrwt>0</asrwt>
<pdfrwt beam="1">  1        1 0.31362468E+00 0.13734553E+04</pdfrwt>
<pdfrwt beam="2">  1       -1 0.35590339E-01 0.13734553E+04</pdfrwt>
<totfact> 0.20665944E+01</totfact>
</mgrwt>
</event>
<event>
12    1  0.4403484E-008  0.2013252E+04  0.7818608E-02  0.8600450E-01
          2   -1    0    0  501    0  0.00000000000E+00  0.00000000000E+00  0.57514094923E+03  0.57514094923E+03  0.00000000000E+00 0. -1.
         -2   -1    0    0    0  501 -0.00000000000E+00 -0.00000000000E+00 -0.17618224303E+04  0.17618224303E+04  0.00000000000E+00 0.  1.
         23    2    1    2    0    0  0.45953342587E+03  0.44691605707E+03 -0.10390411507E+04  0.12238532832E+04  0.85471716845E+02 0.  0.
        254    2    1    2    0    0 -0.45953342587E+03 -0.44691605707E+03 -0.14764033046E+03  0.11131100964E+04  0.89794848851E+03 0.  0.
         23    2    4    4    0    0  0.23180792270E+03 -0.29987009381E+03 -0.32144388213E+02  0.39105126968E+03  0.90724019073E+02 0.  0.
         23    2    4    4    0    0 -0.69134134857E+03 -0.14704596326E+03 -0.11549594225E+03  0.72205882674E+03  0.91947055608E+02 0.  0.
         11    1    3    3    0    0  0.16461446543E+03  0.21545483104E+03 -0.40924758658E+03  0.49091984435E+03  0.00000000000E+00 0. -1.
        -11    1    3    3    0    0  0.29491896044E+03  0.23146122603E+03 -0.62979356407E+03  0.73293343881E+03  0.00000000000E+00 0.  1.
          4    1    5    5  502    0  0.18513865379E+01  0.52344464293E+01  0.46266322414E+01  0.72272254310E+01  0.00000000000E+00 0. -1.
          3    1    6    6  503    0 -0.13336082922E+03 -0.52596155190E+02 -0.52400678035E+02  0.15263452221E+03  0.00000000000E+00 0. -1.
         -4    1    5    5    0  502  0.22995653616E+03 -0.30510454024E+03 -0.36771020454E+02  0.38382404425E+03  0.00000000000E+00 0.  1.
         -3    1    6    6    0  503 -0.55798051936E+03 -0.94449808066E+02 -0.63095264211E+02  0.56942430453E+03  0.00000000000E+00 0.  1.
<mgrwt>
<rscale>  0 0.20132523E+04</rscale>
<asrwt>0</asrwt>
<pdfrwt beam="1">  1        2 0.88483225E-01 0.20132523E+04</pdfrwt>
<pdfrwt beam="2">  1       -2 0.27104960E+00 0.20132523E+04</pdfrwt>
<totfact> 0.23137950E+00</totfact>
</mgrwt>
</event>
<event>
12    1  0.4403484E-008  0.1571246E+04  0.7818608E-02  0.8838410E-01
          1   -1    0    0  501    0  0.00000000000E+00  0.00000000000E+00  0.32404627066E+04  0.32404627066E+04  0.00000000000E+00 0. -1.
         -1   -1    0    0    0  501 -0.00000000000E+00 -0.00000000000E+00 -0.19046781360E+03  0.19046781360E+03  0.00000000000E+00 0.  1.
         23    2    1    2    0    0  0.23096101603E+03 -0.36731405193E+03  0.16683765102E+04  0.17268133847E+04  0.10070591932E+03 0.  0.
        254    2    1    2    0    0 -0.23096101603E+03  0.36731405193E+03  0.13816183828E+04  0.17041171355E+04  0.89826680451E+03 0.  0.
         23    2    4    4    0    0  0.24673963514E+02 -0.13262483024E+03  0.10125999572E+04  0.10256726253E+04  0.91910341905E+02 0.  0.
         23    2    4    4    0    0 -0.25563497955E+03  0.49993888217E+03  0.36901842563E+03  0.67844451018E+03  0.93937352874E+02 0.  0.
         11    1    3    3    0    0  0.15568413196E+03 -0.30194045403E+03  0.11585289295E+04  0.12073089361E+04  0.00000000000E+00 0.  1.
        -11    1    3    3    0    0  0.75276884071E+02 -0.65373597892E+02  0.50984758066E+03  0.51950444857E+03  0.00000000000E+00 0. -1.
          1    1    6    6  502    0 -0.25732303551E+03  0.48842150016E+03  0.37286794741E+03  0.66618406813E+03  0.00000000000E+00 0. -1.
          1    1    5    5  503    0 -0.16378148576E+02 -0.10617809930E+03  0.54194794247E+03  0.55249398628E+03  0.00000000000E+00 0. -1.
         -1    1    5    5    0  503  0.41052112091E+02 -0.26446730937E+02  0.47065201474E+03  0.47317863907E+03  0.00000000000E+00 0.  1.
         -1    1    6    6    0  502  0.16880559589E+01  0.11517382010E+02 -0.38495217848E+01  0.12260442050E+02  0.00000000000E+00 0.  1.
<mgrwt>
<rscale>  0 0.15712464E+04</rscale>
<asrwt>0</asrwt>
<pdfrwt beam="1">  1        1 0.49853268E+00 0.15712464E+04</pdfrwt>
<pdfrwt beam="2">  1       -1 0.29302743E-01 0.15712464E+04</pdfrwt>
<totfact> 0.40831494E+00</totfact>
</mgrwt>
</event>
<event>
12    1  0.4403484E-008  0.1726828E+04  0.7818608E-02  0.8746209E-01
         -2   -1    0    0    0  501 -0.00000000000E+00  0.00000000000E+00  0.88814742920E+03  0.88814742920E+03  0.00000000000E+00 0.  1.
          2   -1    0    0  501    0  0.00000000000E+00 -0.00000000000E+00 -0.83936980720E+03  0.83936980720E+03  0.00000000000E+00 0. -1.
         23    2    1    2    0    0  0.26366235358E+03 -0.48240851495E+03  0.33567423156E+03  0.65031111037E+03  0.89395405571E+02 0.  0.
        254    2    1    2    0    0 -0.26366235358E+03  0.48240851495E+03 -0.28689660956E+03  0.10772061260E+04  0.88081074095E+03 0.  0.
         23    2    4    4    0    0 -0.36741827030E+03  0.55002735139E+03 -0.48458717662E+03  0.82627612587E+03  0.10188833011E+03 0.  0.
         23    2    4    4    0    0  0.10375591671E+03 -0.67618836439E+02  0.19769056706E+03  0.25093000016E+03  0.92448403870E+02 0.  0.
         13    1    3    3    0    0  0.20987711313E+02 -0.98344777026E+02  0.39788633362E+02  0.10814487754E+03  0.00000000000E+00 0.  1.
        -13    1    3    3    0    0  0.24267464227E+03 -0.38406373793E+03  0.29588559820E+03  0.54216623282E+03  0.00000000000E+00 0. -1.
          2    1    5    5  502    0 -0.25467424883E+03  0.30813326940E+03 -0.32603514353E+03  0.51585269171E+03  0.00000000000E+00 0. -1.
          1    1    6    6  503    0  0.96822968535E+02 -0.63458970595E+02  0.20786896318E+03  0.23793115399E+03  0.00000000000E+00 0. -1.
         -2    1    5    5    0  502 -0.11274402146E+03  0.24189408199E+03 -0.15855203309E+03  0.31042343416E+03  0.00000000000E+00 0.  1.
         -1    1    6    6    0  503  0.69329481781E+01 -0.41598658436E+01 -0.10178396114E+02  0.12998846169E+02  0.00000000000E+00 0.  1.
<mgrwt>
<rscale>  0 0.17268285E+04</rscale>
<asrwt>0</asrwt>
<pdfrwt beam="1">  1        2 0.12913382E+00 0.17268285E+04</pdfrwt>
<pdfrwt beam="2">  1       -2 0.13663807E+00 0.17268285E+04</pdfrwt>
<totfact> 0.11724994E+01</totfact>
</mgrwt>
</event>
<event>
12    1  0.4403484E-008  0.1838928E+04  0.7818608E-02  0.8685868E-01
         -1   -1    0    0    0  501 -0.00000000000E+00  0.00000000000E+00  0.31164237941E+03  0.31164237941E+03  0.00000000000E+00 0.  1.
          1   -1    0    0  501    0  0.00000000000E+00 -0.00000000000E+00 -0.27127683821E+04  0.27127683821E+04  0.00000000000E+00 0. -1.
         23    2    1    2    0    0  0.63449086563E+03  0.14025220528E+03 -0.13363429550E+04  0.14888188011E+04  0.92301621486E+02 0.  0.
        254    2    1    2    0    0 -0.63449086563E+03 -0.14025220528E+03 -0.10647830477E+04  0.15355919604E+04  0.89556149466E+03 0.  0.
         23    2    4    4    0    0 -0.74743544327E+03  0.67160595480E+02 -0.47441930941E+03  0.89277223257E+03  0.93799203980E+02 0.  0.
         23    2    4    4    0    0  0.11294457764E+03 -0.20741280076E+03 -0.59036373825E+03  0.64281972786E+03  0.94399743388E+02 0.  0.
         13    1    3    3    0    0  0.27235278142E+03  0.72432649999E+02 -0.48063758447E+03  0.55716695338E+03  0.00000000000E+00 0. -1.
        -13    1    3    3    0    0  0.36213808421E+03  0.67819555280E+02 -0.85570537057E+03  0.93165184770E+03  0.00000000000E+00 0.  1.
          3    1    5    5  502    0 -0.55865502680E+03  0.21170449791E+02 -0.38555023666E+03  0.67911163435E+03  0.00000000000E+00 0. -1.
          3    1    6    6  503    0  0.30148696744E+02 -0.13206856560E+03 -0.39591242305E+03  0.41844676682E+03  0.00000000000E+00 0. -1.
         -3    1    5    5    0  502 -0.18878041647E+03  0.45990145689E+02 -0.88869072748E+02  0.21366059822E+03  0.00000000000E+00 0.  1.
         -3    1    6    6    0  503  0.82795880896E+02 -0.75344235157E+02 -0.19445131520E+03  0.22437296105E+03  0.00000000000E+00 0.  1.
<mgrwt>
<rscale>  0 0.18389275E+04</rscale>
<asrwt>0</asrwt>
<pdfrwt beam="1">  1        1 0.41734900E+00 0.18389275E+04</pdfrwt>
<pdfrwt beam="2">  1       -1 0.47944980E-01 0.18389275E+04</pdfrwt>
<totfact> 0.39359044E+00</totfact>
</mgrwt>
</event>
<event>
12    1  0.4403484E-008  0.1608352E+04  0.7818608E-02  0.8815434E-01
          2   -1    0    0  501    0  0.00000000000E+00  0.00000000000E+00  0.69668621080E+03  0.69668621080E+03  0.00000000000E+00 0. -1.
         -2   -1    0    0    0  501 -0.00000000000E+00 -0.00000000000E+00 -0.92824969897E+03  0.92824969897E+03  0.00000000000E+00 0.  1.
         23    2    1    2    0    0  0.21486836786E+03 -0.38688725900E+03  0.24404199960E+03  0.51354268055E+03  0.91210857318E+02 0.  0.
        254    2    1    2    0    0 -0.21486836786E+03  0.38688725900E+03 -0.47560548777E+03  0.11113932292E+04  0.90174506558E+03 0.  0.
         23    2    4    4    0    0  0.63049146829E+02  0.23012372538E+03 -0.67669103646E+03  0.72321253680E+03  0.90517902493E+02 0.  0.
         23    2    4    4    0    0 -0.27791751469E+03  0.15676353362E+03  0.20108554869E+03  0.38818069242E+03  0.91847164521E+02 0.  0.
         13    1    3    3    0    0  0.53633975139E+02 -0.18729654535E+03  0.11667682424E+03  0.22709046767E+03  0.00000000000E+00 0.  1.
        -13    1    3    3    0    0  0.16123439272E+03 -0.19959071365E+03  0.12736517536E+03  0.28645221288E+03  0.00000000000E+00 0. -1.
          2    1    5    5  502    0  0.37785642255E+02  0.11525040660E+03 -0.21577831085E+03  0.24752917084E+03  0.00000000000E+00 0. -1.
          4    1    6    6  503    0 -0.92474844249E+02  0.61374539197E+01  0.65400637891E+02  0.11343063341E+03  0.00000000000E+00 0. -1.
         -2    1    5    5    0  502  0.25263504574E+02  0.11487331877E+03 -0.46091272561E+03  0.47568336596E+03  0.00000000000E+00 0.  1.
         -4    1    6    6    0  503 -0.18544267044E+03  0.15062607970E+03  0.13568491080E+03  0.27475005901E+03  0.00000000000E+00 0.  1.
<mgrwt>
<rscale>  0 0.16083517E+04</rscale>
<asrwt>0</asrwt>
<pdfrwt beam="1">  1        2 0.10718249E+00 0.16083517E+04</pdfrwt>
<pdfrwt beam="2">  1       -2 0.14280765E+00 0.16083517E+04</pdfrwt>
<totfact> 0.13464957E+01</totfact>
</mgrwt>
</event>
<event>
12    1  0.4403484E-008  0.2112208E+04  0.7818608E-02  0.8555885E-01
         -2   -1    0    0    0  501 -0.00000000000E+00  0.00000000000E+00  0.35194255030E+03  0.35194255030E+03  0.00000000000E+00 0.  1.
          2   -1    0    0  501    0  0.00000000000E+00 -0.00000000000E+00 -0.31691408002E+04  0.31691408002E+04  0.00000000000E+00 0. -1.
         23    2    1    2    0    0  0.56930797078E+03 -0.22829291290E+03 -0.13631346191E+03  0.63504266346E+03  0.92025022933E+02 0.  0.
        254    2    1    2    0    0 -0.56930797078E+03  0.22829291290E+03 -0.26808847880E+04  0.28860406871E+04  0.87513335046E+03 0.  0.
         23    2    4    4    0    0 -0.94704820976E+02 -0.21307305484E+03 -0.20175116346E+03  0.32199666430E+03  0.92785721119E+02 0.  0.
         23    2    4    4    0    0 -0.47460314981E+03  0.44136596774E+03 -0.24791336246E+04  0.25640440228E+04  0.90366780505E+02 0.  0.
         11    1    3    3    0    0  0.13150821907E+03 -0.56674869099E+02  0.72388627423E+01  0.14338358903E+03  0.00000000000E+00 0. -1.
        -11    1    3    3    0    0  0.43779975172E+03 -0.17161804380E+03 -0.14355232465E+03  0.49165907443E+03  0.00000000000E+00 0.  1.
          1    1    5    5  502    0 -0.14463953293E+02 -0.60426235852E+01  0.70654200930E+01  0.17194167783E+02  0.00000000000E+00 0. -1.
          3    1    6    6  503    0 -0.23523601943E+03  0.15784631012E+03 -0.10585268705E+04  0.10957785260E+04  0.00000000000E+00 0. -1.
         -1    1    5    5    0  502 -0.80240867683E+02 -0.20703043125E+03 -0.20881658356E+03  0.30480249651E+03  0.00000000000E+00 0.  1.
         -3    1    6    6    0  503 -0.23936713038E+03  0.28351965761E+03 -0.14206067541E+04  0.14682654968E+04  0.00000000000E+00 0.  1.
<mgrwt>
<rscale>  0 0.21122078E+04</rscale>
<asrwt>0</asrwt>
<pdfrwt beam="1">  1        2 0.48756013E+00 0.21122078E+04</pdfrwt>
<pdfrwt beam="2">  1       -2 0.54145007E-01 0.21122078E+04</pdfrwt>
<totfact> 0.40259776E+00</totfact>
</mgrwt>
</event>
<event>
12    1  0.4403484E-008  0.3399117E+04  0.7818608E-02  0.8138123E-01
          1   -1    0    0  501    0  0.00000000000E+00  0.00000000000E+00  0.20054179830E+04  0.20054179830E+04  0.00000000000E+00 0. -1.
         -1   -1    0    0    0  501 -0.00000000000E+00 -0.00000000000E+00 -0.14403476013E+04  0.14403476013E+04  0.00000000000E+00 0.  1.
         23    2    1    2    0    0 -0.10694446769E+04 -0.29112066230E+03  0.13966251429E+04  0.17855940148E+04  0.96545528422E+02 0.  0.
        254    2    1    2    0    0  0.10694446769E+04  0.29112066230E+03 -0.83155476118E+03  0.16601715695E+04  0.91445238389E+03 0.  0.
         23    2    4    4    0    0  0.79290170914E+03  0.46185490487E+03 -0.19861611289E+03  0.94285028310E+03  0.86690383203E+02 0.  0.
         23    2    4    4    0    0  0.27654296776E+03 -0.17073424257E+03 -0.63293864830E+03  0.71732128641E+03  0.91171820361E+02 0.  0.
         11    1    3    3    0    0 -0.30935665950E+02 -0.25939360402E+02  0.59557798902E+02  0.71951353399E+02  0.00000000000E+00 0.  1.
        -11    1    3    3    0    0 -0.10385090109E+04 -0.26518130190E+03  0.13370673440E+04  0.17136426614E+04  0.00000000000E+00 0. -1.
          2    1    5    5  502    0  0.65458689825E+02  0.50219214573E+02  0.47235642520E+01  0.82638499776E+02  0.00000000000E+00 0. -1.
          4    1    6    6  503    0  0.65377674651E+02 -0.33198766915E+01 -0.16212144012E+03  0.17483884943E+03  0.00000000000E+00 0. -1.
         -2    1    5    5    0  502  0.72744301931E+03  0.41163569030E+03 -0.20333967714E+03  0.86021178333E+03  0.00000000000E+00 0.  1.
         -4    1    6    6    0  503  0.21116529311E+03 -0.16741436588E+03 -0.47081720818E+03  0.54248243698E+03  0.00000000000E+00 0.  1.
<mgrwt>
<rscale>  0 0.33991169E+04</rscale>
<asrwt>0</asrwt>
<pdfrwt beam="1">  1        1 0.30852584E+00 0.33991169E+04</pdfrwt>
<pdfrwt beam="2">  1       -1 0.22159194E+00 0.33991169E+04</pdfrwt>
<totfact> 0.26107770E-01</totfact>
</mgrwt>
</event>
<event>
12    1  0.4403484E-008  0.1740134E+04  0.7818608E-02  0.8738800E-01
         -1   -1    0    0    0  501 -0.00000000000E+00  0.00000000000E+00  0.53150847623E+03  0.53150847623E+03  0.00000000000E+00 0.  1.
          1   -1    0    0  501    0  0.00000000000E+00 -0.00000000000E+00 -0.14242791667E+04  0.14242791667E+04  0.00000000000E+00 0. -1.
         23    2    1    2    0    0  0.50056015557E+03  0.28496369350E+03 -0.30933171524E+02  0.58406025172E+03  0.91677372262E+02 0.  0.
        254    2    1    2    0    0 -0.50056015557E+03 -0.28496369350E+03 -0.86183751898E+03  0.13717273912E+04  0.89839153535E+03 0.  0.
         23    2    4    4    0    0 -0.26587045810E+03  0.17159998837E+03  0.38246277799E+02  0.33158178950E+03  0.91378601787E+02 0.  0.
         23    2    4    4    0    0 -0.23468969746E+03 -0.45656368187E+03 -0.90008379677E+03  0.10401456017E+04  0.90677350426E+02 0.  0.
         13    1    3    3    0    0  0.24206953865E+03  0.91653533262E+02  0.78562681671E+01  0.25895897871E+03  0.00000000000E+00 0.  1.
        -13    1    3    3    0    0  0.25849061691E+03  0.19331016024E+03 -0.38789439691E+02  0.32510127302E+03  0.00000000000E+00 0. -1.
          3    1    6    6  502    0 -0.19990270048E+02 -0.11729449985E+03 -0.23097809672E+03  0.25982396301E+03  0.00000000000E+00 0. -1.
          3    1    5    5  503    0 -0.22837701997E+03  0.17909939773E+03  0.25809690402E+02  0.29137398243E+03  0.00000000000E+00 0.  1.
         -3    1    5    5    0  503 -0.37493438136E+02 -0.74994093589E+01  0.12436587398E+02  0.40207807078E+02  0.00000000000E+00 0. -1.
         -3    1    6    6    0  502 -0.21469942741E+03 -0.33926918202E+03 -0.66910570005E+03  0.78032163871E+03  0.00000000000E+00 0.  1.
<mgrwt>
<rscale>  0 0.17401338E+04</rscale>
<asrwt>0</asrwt>
<pdfrwt beam="1">  1        1 0.21911987E+00 0.17401338E+04</pdfrwt>
<pdfrwt beam="2">  1       -1 0.81770537E-01 0.17401338E+04</pdfrwt>
<totfact> 0.10428529E+01</totfact>
</mgrwt>
</event>
<event>
12    1  0.4403484E-008  0.1253560E+04  0.7818608E-02  0.9067225E-01
         -1   -1    0    0    0  501 -0.00000000000E+00  0.00000000000E+00  0.37795096539E+03  0.37795096539E+03  0.00000000000E+00 0.  1.
          1   -1    0    0  501    0  0.00000000000E+00 -0.00000000000E+00 -0.10394295150E+04  0.10394295150E+04  0.00000000000E+00 0. -1.
         23    2    1    2    0    0 -0.19762234053E+03  0.21679265905E+03 -0.27094458724E+03  0.40975924812E+03  0.91858726180E+02 0.  0.
        254    2    1    2    0    0  0.19762234053E+03 -0.21679265905E+03 -0.39053396238E+03  0.10076212323E+04  0.88132294051E+03 0.  0.
         23    2    4    4    0    0 -0.14353870993E+03 -0.44546247477E+03 -0.33701765139E+03  0.58385787963E+03  0.90933759286E+02 0.  0.
         23    2    4    4    0    0  0.34116105045E+03  0.22866981572E+03 -0.53516310994E+02  0.42376335265E+03  0.89613818903E+02 0.  0.
         11    1    3    3    0    0 -0.17270462413E+03  0.20657322953E+03 -0.27209997486E+03  0.38280253744E+03  0.00000000000E+00 0. -1.
        -11    1    3    3    0    0 -0.24917716395E+02  0.10219429521E+02  0.11553876219E+01  0.26956710680E+02  0.00000000000E+00 0.  1.
          2    1    5    5  502    0 -0.67329975495E+02 -0.16244753127E+03 -0.76691674086E+02  0.19184404836E+03  0.00000000000E+00 0. -1.
          2    1    6    6  503    0  0.15708791597E+03  0.14296976994E+03 -0.59653499920E+02  0.22062526717E+03  0.00000000000E+00 0. -1.
         -2    1    5    5    0  502 -0.76208734432E+02 -0.28301494350E+03 -0.26032597730E+03  0.39201383127E+03  0.00000000000E+00 0.  1.
         -2    1    6    6    0  503  0.18407313448E+03  0.85700045785E+02  0.61371889262E+01  0.20313808548E+03  0.00000000000E+00 0.  1.
<mgrwt>
<rscale>  0 0.12535604E+04</rscale>
<asrwt>0</asrwt>
<pdfrwt beam="1">  1        1 0.15991223E+00 0.12535604E+04</pdfrwt>
<pdfrwt beam="2">  1       -1 0.58146303E-01 0.12535604E+04</pdfrwt>
<totfact> 0.41657524E+01</totfact>
</mgrwt>
</event>
<event>
12    1  0.4403484E-008  0.2309706E+04  0.7818608E-02  0.8474104E-01
          2   -1    0    0  501    0  0.00000000000E+00  0.00000000000E+00  0.22814672143E+04  0.22814672143E+04  0.00000000000E+00 0. -1.
         -2   -1    0    0    0  501 -0.00000000000E+00 -0.00000000000E+00 -0.58457361408E+03  0.58457361408E+03  0.00000000000E+00 0.  1.
         23    2    1    2    0    0 -0.93092050762E+03  0.86117754543E+02  0.10706010134E+04  0.14244083417E+04  0.93398795664E+02 0.  0.
        254    2    1    2    0    0  0.93092050762E+03 -0.86117754543E+02  0.62629258682E+03  0.14416324866E+04  0.90112849414E+03 0.  0.
         23    2    4    4    0    0  0.51571732931E+03  0.38835199066E+03  0.23135959280E+03  0.69218035903E+03  0.93833660529E+02 0.  0.
         23    2    4    4    0    0  0.41520317831E+03 -0.47446974520E+03  0.39493299402E+03  0.74945212757E+03  0.90505267016E+02 0.  0.
         11    1    3    3    0    0 -0.87078737436E+03  0.77831892677E+02  0.10317221020E+04  0.13523235377E+04  0.00000000000E+00 0. -1.
        -11    1    3    3    0    0 -0.60133133260E+02  0.82858618654E+01  0.38878911324E+02  0.72084804004E+02  0.00000000000E+00 0.  1.
          2    1    5    5  502    0  0.40893641192E+03  0.33599328513E+03  0.15757103307E+03  0.55222197268E+03  0.00000000000E+00 0. -1.
          2    1    6    6  503    0  0.26647454241E+03 -0.24035194507E+03  0.24048585376E+03  0.43198516770E+03  0.00000000000E+00 0. -1.
         -2    1    5    5    0  502  0.10678091739E+03  0.52358705530E+02  0.73788559731E+02  0.13995838635E+03  0.00000000000E+00 0.  1.
         -2    1    6    6    0  503  0.14872863591E+03 -0.23411780013E+03  0.15444714026E+03  0.31746695987E+03  0.00000000000E+00 0.  1.
<mgrwt>
<rscale>  0 0.23097061E+04</rscale>
<asrwt>0</asrwt>
<pdfrwt beam="1">  1        2 0.35099495E+00 0.23097061E+04</pdfrwt>
<pdfrwt beam="2">  1       -2 0.89934403E-01 0.23097061E+04</pdfrwt>
<totfact> 0.44535462E+00</totfact>
</mgrwt>
</event>
<event>
12    1  0.4403484E-008  0.1866651E+04  0.7818608E-02  0.8671637E-01
         -2   -1    0    0    0  501 -0.00000000000E+00  0.00000000000E+00  0.94873763991E+03  0.94873763991E+03  0.00000000000E+00 0. -1.
          2   -1    0    0  501    0  0.00000000000E+00 -0.00000000000E+00 -0.91816371545E+03  0.91816371545E+03  0.00000000000E+00 0.  1.
         23    2    1    2    0    0 -0.42670344209E+03  0.22013889996E+03  0.53900291424E+03  0.72759979451E+03  0.91325553015E+02 0.  0.
        254    2    1    2    0    0  0.42670344209E+03 -0.22013889996E+03 -0.50842898978E+03  0.11393015609E+04  0.89942817732E+03 0.  0.
         23    2    4    4    0    0  0.36222772117E+03 -0.43802532028E+03 -0.64068974750E+03  0.86117587172E+03  0.89807718470E+02 0.  0.
         23    2    4    4    0    0  0.64475720921E+02  0.21788642031E+03  0.13226075772E+03  0.27812568914E+03  0.90715931238E+02 0.  0.
         13    1    3    3    0    0 -0.31952876078E+03  0.17218170842E+03  0.34462359583E+03  0.50051033204E+03  0.00000000000E+00 0. -1.
        -13    1    3    3    0    0 -0.10717468131E+03  0.47957191548E+02  0.19437931841E+03  0.22708946246E+03  0.00000000000E+00 0.  1.
          2    1    5    5  502    0  0.32448352240E+03 -0.36329995083E+03 -0.50426807963E+03  0.70111533054E+03  0.00000000000E+00 0. -1.
          3    1    6    6  503    0 -0.22982238946E+02  0.40703872558E+02  0.19733887899E+02  0.50738692137E+02  0.00000000000E+00 0. -1.
         -2    1    5    5    0  502  0.37744198774E+02 -0.74725369446E+02 -0.13642166787E+03  0.16006054118E+03  0.00000000000E+00 0.  1.
         -3    1    6    6    0  503  0.87457959866E+02  0.17718254775E+03  0.11252686983E+03  0.22738699700E+03  0.00000000000E+00 0.  1.
<mgrwt>
<rscale>  0 0.18666510E+04</rscale>
<asrwt>0</asrwt>
<pdfrwt beam="1">  1        2 0.14125596E+00 0.18666510E+04</pdfrwt>
<pdfrwt beam="2">  1       -2 0.14595964E+00 0.18666510E+04</pdfrwt>
<totfact> 0.86191810E+00</totfact>
</mgrwt>
</event>
<event>
12    1  0.4403484E-008  0.1193772E+04  0.7818608E-02  0.9118326E-01
         -1   -1    0    0    0  501 -0.00000000000E+00  0.00000000000E+00  0.35152644800E+03  0.35152644800E+03  0.00000000000E+00 0.  1.
          1   -1    0    0  501    0  0.00000000000E+00 -0.00000000000E+00 -0.10135018200E+04  0.10135018200E+04  0.00000000000E+00 0. -1.
         23    2    1    2    0    0 -0.59756162152E+02  0.82729742426E+02  0.11567319161E+03  0.17951031130E+03  0.91807708864E+02 0.  0.
        254    2    1    2    0    0  0.59756162152E+02 -0.82729742426E+02 -0.77764856362E+03  0.11855179567E+04  0.88898848586E+03 0.  0.
         23    2    4    4    0    0  0.15435664717E+03  0.36140851864E+03 -0.51081160222E+03  0.65095380392E+03  0.91489179690E+02 0.  0.
         23    2    4    4    0    0 -0.94600485021E+02 -0.44413826106E+03 -0.26683696139E+03  0.53456415280E+03  0.91371892729E+02 0.  0.
         13    1    3    3    0    0 -0.80737585416E+01  0.10351683577E+02  0.84126747843E+02  0.85144891993E+02  0.00000000000E+00 0.  1.
        -13    1    3    3    0    0 -0.51682403611E+02  0.72378058849E+02  0.31546443769E+02  0.94365419303E+02  0.00000000000E+00 0. -1.
          3    1    6    6  502    0 -0.20079229028E+02 -0.29914077926E+03 -0.18288486576E+03  0.35119119490E+03  0.00000000000E+00 0. -1.
          3    1    5    5  503    0 -0.22170158398E+01  0.85624019157E+02 -0.93271741768E+02  0.12663335117E+03  0.00000000000E+00 0. -1.
         -3    1    5    5    0  503  0.15657366301E+03  0.27578449948E+03 -0.41753986045E+03  0.52432045275E+03  0.00000000000E+00 0.  1.
         -3    1    6    6    0  502 -0.74521255993E+02 -0.14499748181E+03 -0.83952095635E+02  0.18337295789E+03  0.00000000000E+00 0.  1.
<mgrwt>
<rscale>  0 0.11937717E+04</rscale>
<asrwt>0</asrwt>
<pdfrwt beam="1">  1        1 0.15592336E+00 0.11937717E+04</pdfrwt>
<pdfrwt beam="2">  1       -1 0.54080993E-01 0.11937717E+04</pdfrwt>
<totfact> 0.50471262E+01</totfact>
</mgrwt>
</event>
<event>
12    1  0.4403484E-008  0.1314774E+04  0.7818608E-02  0.9017930E-01
         -1   -1    0    0    0  501 -0.00000000000E+00  0.00000000000E+00  0.40493913895E+03  0.40493913895E+03  0.00000000000E+00 0.  1.
          1   -1    0    0  501    0  0.00000000000E+00 -0.00000000000E+00 -0.10672168432E+04  0.10672168432E+04  0.00000000000E+00 0. -1.
         23    2    1    2    0    0  0.56112350561E+02  0.15025941407E+03  0.15557847559E+03  0.24127400062E+03  0.91005460855E+02 0.  0.
        254    2    1    2    0    0 -0.56112350561E+02 -0.15025941407E+03 -0.81785617986E+03  0.12308819816E+04  0.90578983996E+03 0.  0.
         23    2    4    4    0    0 -0.33254025739E+03  0.45177312954E+02 -0.80810360637E+03  0.87978270272E+03  0.91444808419E+02 0.  0.
         23    2    4    4    0    0  0.27642790683E+03 -0.19543672703E+03 -0.97525734852E+01  0.35109927883E+03  0.92561811585E+02 0.  0.
         11    1    3    3    0    0  0.39164130854E+02  0.15946473045E+03  0.14606892344E+03  0.21977024320E+03  0.00000000000E+00 0.  1.
        -11    1    3    3    0    0  0.16948219707E+02 -0.92053163794E+01  0.95095521527E+01  0.21503757416E+02  0.00000000000E+00 0. -1.
          2    1    5    5  502    0 -0.15734497701E+03  0.66967785636E+02 -0.37990698735E+03  0.41661906478E+03  0.00000000000E+00 0. -1.
          3    1    6    6  503    0  0.37874145555E+02 -0.72045913159E+02  0.88802456855E+01  0.81877489384E+02  0.00000000000E+00 0. -1.
         -2    1    5    5    0  502 -0.17519528038E+03 -0.21790472682E+02 -0.42819661902E+03  0.46316363794E+03  0.00000000000E+00 0.  1.
         -3    1    6    6    0  503  0.23855376127E+03 -0.12339081387E+03 -0.18632819171E+02  0.26922178945E+03  0.00000000000E+00 0.  1.
<mgrwt>
<rscale>  0 0.13147743E+04</rscale>
<asrwt>0</asrwt>
<pdfrwt beam="1">  1        1 0.16418721E+00 0.13147743E+04</pdfrwt>
<pdfrwt beam="2">  1       -1 0.62298329E-01 0.13147743E+04</pdfrwt>
<totfact> 0.34436854E+01</totfact>
</mgrwt>
</event>
<event>
12    1  0.4403484E-008  0.1754176E+04  0.7818608E-02  0.8731055E-01
          1   -1    0    0  501    0  0.00000000000E+00  0.00000000000E+00  0.10536190927E+04  0.10536190927E+04  0.00000000000E+00 0. -1.
         -1   -1    0    0    0  501 -0.00000000000E+00 -0.00000000000E+00 -0.73013430387E+03  0.73013430387E+03  0.00000000000E+00 0.  1.
         23    2    1    2    0    0  0.68530586875E+02  0.61426425044E+03 -0.69050243417E+02  0.62894869315E+03  0.93763061975E+02 0.  0.
        254    2    1    2    0    0 -0.68530586875E+02 -0.61426425044E+03  0.39253503228E+03  0.11548047034E+04  0.89301351660E+03 0.  0.
         23    2    4    4    0    0 -0.24282923485E+03 -0.67029409390E+02  0.49647092221E+03  0.56409024508E+03  0.90859501280E+02 0.  0.
         23    2    4    4    0    0  0.17429864797E+03 -0.54723484105E+03 -0.10393588993E+03  0.59071445837E+03  0.91076408388E+02 0.  0.
         13    1    3    3    0    0  0.32964366160E+01  0.25963480748E+03  0.98316995191E+01  0.25984180200E+03  0.00000000000E+00 0. -1.
        -13    1    3    3    0    0  0.65234150259E+02  0.35462944296E+03 -0.78881942936E+02  0.36910689115E+03  0.00000000000E+00 0.  1.
          4    1    5    5  502    0 -0.83201398395E+02 -0.59542538041E+02  0.25250831994E+03  0.27244859730E+03  0.00000000000E+00 0. -1.
          1    1    6    6  503    0  0.79690818226E+02 -0.34756436804E+03 -0.97491535868E+02  0.36967041538E+03  0.00000000000E+00 0. -1.
         -4    1    5    5    0  502 -0.15962783645E+03 -0.74868713491E+01  0.24396260227E+03  0.29164164778E+03  0.00000000000E+00 0.  1.
         -1    1    6    6    0  503  0.94607829748E+02 -0.19967047301E+03 -0.64443540618E+01  0.22104404299E+03  0.00000000000E+00 0.  1.
<mgrwt>
<rscale>  0 0.17541761E+04</rscale>
<asrwt>0</asrwt>
<pdfrwt beam="1">  1        1 0.16209525E+00 0.17541761E+04</pdfrwt>
<pdfrwt beam="2">  1       -1 0.11232835E+00 0.17541761E+04</pdfrwt>
<totfact> 0.94602996E+00</totfact>
</mgrwt>
</event>
<event>
12    1  0.4403484E-008  0.1653272E+04  0.7818608E-02  0.8788473E-01
          3   -1    0    0  501    0  0.00000000000E+00  0.00000000000E+00  0.15214786387E+04  0.15214786387E+04  0.00000000000E+00 0. -1.
         -3   -1    0    0    0  501 -0.00000000000E+00 -0.00000000000E+00 -0.44912026979E+03  0.44912026979E+03  0.00000000000E+00 0.  1.
         23    2    1    2    0    0 -0.48156884454E+03 -0.29938865626E+03  0.27946010251E+03  0.63836530037E+03  0.88714081713E+02 0.  0.
        254    2    1    2    0    0  0.48156884454E+03  0.29938865626E+03  0.79289826641E+03  0.13322336081E+04  0.90808403038E+03 0.  0.
         23    2    4    4    0    0  0.27550609850E+03 -0.29213994318E+03  0.46110468733E+03  0.61767488355E+03  0.87494984910E+02 0.  0.
         23    2    4    4    0    0  0.20606274604E+03  0.59152859944E+03  0.33179357908E+03  0.71455872458E+03  0.90217805835E+02 0.  0.
         13    1    3    3    0    0 -0.28262768442E+03 -0.18951155392E+03  0.12036041667E+03  0.36094274750E+03  0.00000000000E+00 0. -1.
        -13    1    3    3    0    0 -0.19894116012E+03 -0.10987710234E+03  0.15909968584E+03  0.27742255287E+03  0.00000000000E+00 0.  1.
          1    1    5    5  502    0  0.10323482273E+03 -0.77379343878E+02  0.98108530377E+02  0.16208107606E+03  0.00000000000E+00 0. -1.
          3    1    6    6  503    0  0.59534319737E+02  0.26776410471E+03  0.10930120815E+03  0.29527733591E+03  0.00000000000E+00 0. -1.
         -1    1    5    5    0  502  0.17227127577E+03 -0.21476059930E+03  0.36299615695E+03  0.45559380750E+03  0.00000000000E+00 0.  1.
         -3    1    6    6    0  503  0.14652842630E+03  0.32376449472E+03  0.22249237093E+03  0.41928138866E+03  0.00000000000E+00 0.  1.
<mgrwt>
<rscale>  0 0.16532718E+04</rscale>
<asrwt>0</asrwt>
<pdfrwt beam="1">  1        3 0.23407363E+00 0.16532718E+04</pdfrwt>
<pdfrwt beam="2">  1       -3 0.69095427E-01 0.16532718E+04</pdfrwt>
<totfact> 0.45923294E-01</totfact>
</mgrwt>
</event>
<event>
12    1  0.4403484E-008  0.1208584E+04  0.7818608E-02  0.9105376E-01
         -1   -1    0    0    0  501 -0.00000000000E+00  0.00000000000E+00  0.15751003709E+03  0.15751003709E+03  0.00000000000E+00 0.  1.
          1   -1    0    0  501    0  0.00000000000E+00 -0.00000000000E+00 -0.23183852012E+04  0.23183852012E+04  0.00000000000E+00 0. -1.
         23    2    1    2    0    0  0.29323661157E+03  0.17608808218E+02 -0.31392299166E+03  0.44005375720E+03  0.93818356631E+02 0.  0.
        254    2    1    2    0    0 -0.29323661157E+03 -0.17608808218E+02 -0.18469521725E+04  0.20358414811E+04  0.80443795805E+03 0.  0.
         23    2    4    4    0    0 -0.48354007137E+03  0.15324591267E+03 -0.15511159628E+04  0.16352365115E+04  0.10364558861E+03 0.  0.
         23    2    4    4    0    0  0.19030345979E+03 -0.17085472089E+03 -0.29583620963E+03  0.40060496960E+03  0.86939842915E+02 0.  0.
         11    1    3    3    0    0  0.26282740370E+01 -0.14565740596E+02 -0.77866295812E+01  0.16724240603E+02  0.00000000000E+00 0. -1.
        -11    1    3    3    0    0  0.29060833754E+03  0.32174548813E+02 -0.30613636208E+03  0.42332951660E+03  0.00000000000E+00 0.  1.
          1    1    5    5  502    0 -0.40859626261E+03  0.88832242019E+02 -0.12880792702E+04  0.13542489724E+04  0.00000000000E+00 0. -1.
          3    1    6    6  503    0  0.73209185453E+02 -0.14973351588E+02 -0.92350541731E+02  0.11879565922E+03  0.00000000000E+00 0. -1.
         -1    1    5    5    0  502 -0.74943808759E+02  0.64413670650E+02 -0.26303669263E+03  0.28098753906E+03  0.00000000000E+00 0.  1.
         -3    1    6    6    0  503  0.11709427434E+03 -0.15588136930E+03 -0.20348566790E+03  0.28180931038E+03  0.00000000000E+00 0.  1.
<mgrwt>
<rscale>  0 0.12085842E+04</rscale>
<asrwt>0</asrwt>
<pdfrwt beam="1">  1        1 0.35667462E+00 0.12085842E+04</pdfrwt>
<pdfrwt beam="2">  1       -1 0.24232315E-01 0.12085842E+04</pdfrwt>
<totfact> 0.26539099E+01</totfact>
</mgrwt>
</event>
<event>
12    1  0.4403484E-008  0.1974885E+04  0.7818608E-02  0.8618454E-01
          2   -1    0    0  501    0  0.00000000000E+00  0.00000000000E+00  0.19892510249E+04  0.19892510249E+04  0.00000000000E+00 0. -1.
         -2   -1    0    0    0  501 -0.00000000000E+00 -0.00000000000E+00 -0.49015554820E+03  0.49015554820E+03  0.00000000000E+00 0.  1.
         23    2    1    2    0    0  0.49012671386E+02 -0.30319066215E+03 -0.30354485885E+03  0.44140764144E+03  0.91511775297E+02 0.  0.
        254    2    1    2    0    0 -0.49012671386E+02  0.30319066215E+03  0.18026403356E+04  0.20379989317E+04  0.89977810963E+03 0.  0.
         23    2    4    4    0    0  0.33155714248E+03 -0.12888443665E+03  0.66638227594E+03  0.76092293585E+03  0.91635363702E+02 0.  0.
         23    2    4    4    0    0 -0.38056981387E+03  0.43207509880E+03  0.11362580596E+04  0.12770759958E+04  0.91205519765E+02 0.  0.
         11    1    3    3    0    0  0.73108073199E+02 -0.24537019082E+03 -0.26147338527E+03  0.36595034105E+03  0.00000000000E+00 0.  1.
        -11    1    3    3    0    0 -0.24095401813E+02 -0.57820471329E+02 -0.42071473581E+02  0.75457300392E+02  0.00000000000E+00 0. -1.
          4    1    5    5  502    0  0.93747187491E+02  0.51875219137E+00  0.13242830871E+03  0.16225307767E+03  0.00000000000E+00 0. -1.
          3    1    6    6  503    0 -0.80541693257E+02  0.42126980105E+02  0.18346029354E+03  0.20474209658E+03  0.00000000000E+00 0. -1.
         -4    1    5    5    0  502  0.23780995499E+03 -0.12940318884E+03  0.53395396723E+03  0.59866985818E+03  0.00000000000E+00 0.  1.
         -3    1    6    6    0  503 -0.30002812061E+03  0.38994811869E+03  0.95279776609E+03  0.10723338993E+04  0.00000000000E+00 0.  1.
<mgrwt>
<rscale>  0 0.19748847E+04</rscale>
<asrwt>0</asrwt>
<pdfrwt beam="1">  1        2 0.30603862E+00 0.19748847E+04</pdfrwt>
<pdfrwt beam="2">  1       -2 0.75408547E-01 0.19748847E+04</pdfrwt>
<totfact> 0.99480987E+00</totfact>
</mgrwt>
</event>
<event>
12    1  0.4403484E-008  0.1344644E+04  0.7818608E-02  0.8994893E-01
          2   -1    0    0  501    0  0.00000000000E+00  0.00000000000E+00  0.36902682849E+03  0.36902682849E+03  0.00000000000E+00 0. -1.
         -2   -1    0    0    0  501 -0.00000000000E+00 -0.00000000000E+00 -0.12248884453E+04  0.12248884453E+04  0.00000000000E+00 0.  1.
         23    2    1    2    0    0 -0.22653025023E+03 -0.15935944346E+03 -0.55474705243E+03  0.62766409858E+03  0.97501497287E+02 0.  0.
        254    2    1    2    0    0  0.22653025023E+03  0.15935944346E+03 -0.30111456435E+03  0.96625117517E+03  0.87536276261E+03 0.  0.
         23    2    4    4    0    0 -0.10997182505E+03 -0.25823549337E+03 -0.30208719326E+03  0.42225815661E+03  0.90917028939E+02 0.  0.
         23    2    4    4    0    0  0.33650207529E+03  0.41759493683E+03  0.97262890965E+00  0.54399301856E+03  0.91149768488E+02 0.  0.
         13    1    3    3    0    0 -0.89948804261E+02 -0.10440412895E+02 -0.19643458686E+03  0.21630149450E+03  0.00000000000E+00 0. -1.
        -13    1    3    3    0    0 -0.13658144597E+03 -0.14891903057E+03 -0.35831246557E+03  0.41136260408E+03  0.00000000000E+00 0.  1.
          4    1    5    5  502    0 -0.86946860815E+02 -0.16329435433E+03 -0.13615084648E+03  0.22969949012E+03  0.00000000000E+00 0. -1.
          3    1    6    6  503    0  0.24001945834E+03  0.26607496633E+03 -0.37483817623E+02  0.36029191591E+03  0.00000000000E+00 0. -1.
         -4    1    5    5    0  502 -0.23024964240E+02 -0.94941139040E+02 -0.16593634678E+03  0.19255866649E+03  0.00000000000E+00 0.  1.
         -3    1    6    6    0  503  0.96482616949E+02  0.15151997050E+03  0.38456446533E+02  0.18370110265E+03  0.00000000000E+00 0.  1.
<mgrwt>
<rscale>  0 0.13446437E+04</rscale>
<asrwt>0</asrwt>
<pdfrwt beam="1">  1        2 0.56773357E-01 0.13446437E+04</pdfrwt>
<pdfrwt beam="2">  1       -2 0.18844438E+00 0.13446437E+04</pdfrwt>
<totfact> 0.13495333E+01</totfact>
</mgrwt>
</event>
<event>
12    1  0.4403484E-008  0.3759568E+04  0.7818608E-02  0.8054888E-01
         -1   -1    0    0    0  501 -0.00000000000E+00  0.00000000000E+00  0.14551700045E+04  0.14551700045E+04  0.00000000000E+00 0.  1.
          1   -1    0    0  501    0  0.00000000000E+00 -0.00000000000E+00 -0.24282983958E+04  0.24282983958E+04  0.00000000000E+00 0. -1.
         23    2    1    2    0    0 -0.85911486415E+03  0.71786430706E+03  0.95112817701E+03  0.14717245447E+04  0.88998950828E+02 0.  0.
        254    2    1    2    0    0  0.85911486415E+03 -0.71786430706E+03 -0.19242565683E+04  0.24117438556E+04  0.92754383776E+03 0.  0.
         23    2    4    4    0    0  0.15385903307E+03 -0.49010176274E+03 -0.14146323708E+04  0.15076732760E+04  0.89563512829E+02 0.  0.
         23    2    4    4    0    0  0.70525583108E+03 -0.22776254432E+03 -0.50962419750E+03  0.90407057952E+03  0.91461610554E+02 0.  0.
         13    1    3    3    0    0 -0.81879828871E+03  0.65599991335E+03  0.89268366579E+03  0.13775524132E+04  0.00000000000E+00 0.  1.
        -13    1    3    3    0    0 -0.40316575447E+02  0.61864393708E+02  0.58444511227E+02  0.94172131532E+02  0.00000000000E+00 0. -1.
          4    1    5    5  502    0  0.15347189108E+03 -0.48257834961E+03 -0.14113645241E+04  0.14994616717E+04  0.00000000000E+00 0.  1.
          1    1    6    6  503    0 -0.27545000522E+01 -0.13077740176E+01 -0.41364557443E+01  0.51388529404E+01  0.00000000000E+00 0. -1.
         -4    1    5    5    0  502  0.38714199344E+00 -0.75234131330E+01 -0.32678466687E+01  0.82116043464E+01  0.00000000000E+00 0. -1.
         -1    1    6    6    0  503  0.70801033114E+03 -0.22645477030E+03 -0.50548774176E+03  0.89893172658E+03  0.00000000000E+00 0.  1.
<mgrwt>
<rscale>  0 0.37595675E+04</rscale>
<asrwt>0</asrwt>
<pdfrwt beam="1">  1        1 0.37358437E+00 0.37595675E+04</pdfrwt>
<pdfrwt beam="2">  1       -1 0.22387231E+00 0.37595675E+04</pdfrwt>
<totfact> 0.12571820E-01</totfact>
</mgrwt>
</event>
<event>
12    1  0.4403484E-008  0.1685276E+04  0.7818608E-02  0.8769807E-01
          1   -1    0    0  501    0  0.00000000000E+00  0.00000000000E+00  0.10201026960E+04  0.10201026960E+04  0.00000000000E+00 0. -1.
         -1   -1    0    0    0  501 -0.00000000000E+00 -0.00000000000E+00 -0.69604651856E+03  0.69604651856E+03  0.00000000000E+00 0.  1.
         23    2    1    2    0    0 -0.12095997464E+03  0.11955543576E+03 -0.46538657881E+03  0.50387343329E+03  0.91536612121E+02 0.  0.
        254    2    1    2    0    0  0.12095997464E+03 -0.11955543576E+03  0.78944275625E+03  0.12122757813E+04  0.90413930716E+03 0.  0.
         23    2    4    4    0    0  0.42883069470E+03 -0.17950428143E+03  0.15593599411E+03  0.49920586815E+03  0.93663828454E+02 0.  0.
         23    2    4    4    0    0 -0.30787072006E+03  0.59948845666E+02  0.63350676214E+03  0.71306991311E+03  0.93592942809E+02 0.  0.
         11    1    3    3    0    0  0.75722684745E+01 -0.87169976941E+01 -0.28837118349E+02  0.31062915081E+02  0.00000000000E+00 0. -1.
        -11    1    3    3    0    0 -0.12853224311E+03  0.12827243346E+03 -0.43654946046E+03  0.47281051821E+03  0.00000000000E+00 0.  1.
          2    1    5    5  502    0  0.40287887796E+03 -0.17346901545E+03  0.16832031172E+03  0.46982402766E+03  0.00000000000E+00 0. -1.
          4    1    6    6  503    0 -0.52266817894E+02  0.32695606139E+01  0.19905092487E+03  0.20582463645E+03  0.00000000000E+00 0.  1.
         -2    1    5    5    0  502  0.25951816747E+02 -0.60352659731E+01 -0.12384317609E+02  0.29381840489E+02  0.00000000000E+00 0.  1.
         -4    1    6    6    0  503 -0.25560390217E+03  0.56679285052E+02  0.43445583727E+03  0.50724527666E+03  0.00000000000E+00 0. -1.
<mgrwt>
<rscale>  0 0.16852762E+04</rscale>
<asrwt>0</asrwt>
<pdfrwt beam="1">  1        1 0.15693888E+00 0.16852762E+04</pdfrwt>
<pdfrwt beam="2">  1       -1 0.10708408E+00 0.16852762E+04</pdfrwt>
<totfact> 0.11308774E+01</totfact>
</mgrwt>
</event>
<event>
12    1  0.4403484E-008  0.1107534E+04  0.7818608E-02  0.9197880E-01
         -2   -1    0    0    0  501 -0.00000000000E+00  0.00000000000E+00  0.16644291498E+03  0.16644291498E+03  0.00000000000E+00 0.  1.
          2   -1    0    0  501    0  0.00000000000E+00 -0.00000000000E+00 -0.18424198372E+04  0.18424198372E+04  0.00000000000E+00 0. -1.
         23    2    1    2    0    0 -0.15739947488E+02 -0.18011552545E+02 -0.41919359122E+03  0.42971417829E+03  0.91426725518E+02 0.  0.
        254    2    1    2    0    0  0.15739947488E+02  0.18011552545E+02 -0.12567833310E+04  0.15791485738E+04  0.95584188823E+03 0.  0.
         23    2    4    4    0    0  0.13202879806E+03 -0.22239362782E+03 -0.12681206280E+04  0.12974478140E+04  0.91380378183E+02 0.  0.
         23    2    4    4    0    0 -0.11628885057E+03  0.24040518037E+03  0.11337297048E+02  0.28170075989E+03  0.88932762815E+02 0.  0.
         13    1    3    3    0    0 -0.41037306371E+02  0.12945436885E+02 -0.11289805444E+03  0.12082059240E+03  0.00000000000E+00 0.  1.
        -13    1    3    3    0    0  0.25297358884E+02 -0.30956989431E+02 -0.30629553677E+03  0.30889358590E+03  0.00000000000E+00 0. -1.
          2    1    5    5  502    0  0.21299943779E+02 -0.74561516912E+02 -0.22216314595E+03  0.23530739646E+03  0.00000000000E+00 0.  1.
          1    1    6    6  503    0 -0.98607120025E+02  0.24393351738E+03  0.13962522554E+02  0.26348031626E+03  0.00000000000E+00 0. -1.
         -2    1    5    5    0  502  0.11072885428E+03 -0.14783211091E+03 -0.10459574821E+04  0.10621404175E+04  0.00000000000E+00 0. -1.
         -1    1    6    6    0  503 -0.17681730546E+02 -0.35283370073E+01 -0.26252255056E+01  0.18220443631E+02  0.00000000000E+00 0.  1.
<mgrwt>
<rscale>  0 0.11075337E+04</rscale>
<asrwt>0</asrwt>
<pdfrwt beam="1">  1        2 0.28344920E+00 0.11075337E+04</pdfrwt>
<pdfrwt beam="2">  1       -2 0.25606602E-01 0.11075337E+04</pdfrwt>
<totfact> 0.11149240E+02</totfact>
</mgrwt>
</event>
<event>
12    1  0.4403484E-008  0.1155448E+04  0.7818608E-02  0.9152772E-01
          2   -1    0    0  501    0  0.00000000000E+00  0.00000000000E+00  0.16900184913E+04  0.16900184913E+04  0.00000000000E+00 0. -1.
         -2   -1    0    0    0  501 -0.00000000000E+00 -0.00000000000E+00 -0.19749199736E+03  0.19749199736E+03  0.00000000000E+00 0.  1.
         23    2    1    2    0    0 -0.63492636187E+02  0.11052195486E+03  0.56581889960E+03  0.58677034621E+03  0.88893164462E+02 0.  0.
        254    2    1    2    0    0  0.63492636187E+02 -0.11052195486E+03  0.92670759436E+03  0.13007401425E+04  0.90382052169E+03 0.  0.
         23    2    4    4    0    0 -0.36906529851E+03 -0.39097638714E+02  0.16404027922E+03  0.41631866522E+03  0.93135373957E+02 0.  0.
         23    2    4    4    0    0  0.43255793470E+03 -0.71424316149E+02  0.76266731513E+03  0.88442147725E+03  0.91280425328E+02 0.  0.
         11    1    3    3    0    0 -0.40538168519E+02 -0.35285964472E-01  0.11185138288E+03  0.11897090486E+03  0.00000000000E+00 0.  1.
        -11    1    3    3    0    0 -0.22954467668E+02  0.11055724083E+03  0.45396751672E+03  0.46779944135E+03  0.00000000000E+00 0. -1.
          4    1    5    5  502    0 -0.31734939105E+03 -0.83400493109E+01  0.11160233979E+03  0.33650449428E+03  0.00000000000E+00 0. -1.
          3    1    6    6  503    0  0.40487172304E+03 -0.87369968033E+02  0.68569917565E+03  0.80108550288E+03  0.00000000000E+00 0. -1.
         -4    1    5    5    0  502 -0.51715907459E+02 -0.30757589403E+02  0.52437939438E+02  0.79814170940E+02  0.00000000000E+00 0.  1.
         -3    1    6    6    0  503  0.27686211656E+02  0.15945651884E+02  0.76968139478E+02  0.83335974372E+02  0.00000000000E+00 0.  1.
<mgrwt>
<rscale>  0 0.11554482E+04</rscale>
<asrwt>0</asrwt>
<pdfrwt beam="1">  1        2 0.26000284E+00 0.11554482E+04</pdfrwt>
<pdfrwt beam="2">  1       -2 0.30383385E-01 0.11554482E+04</pdfrwt>
<totfact> 0.98413288E+01</totfact>
</mgrwt>
</event>
<event>
12    1  0.4403484E-008  0.1306714E+04  0.7818608E-02  0.9024258E-01
          2   -1    0    0  501    0  0.00000000000E+00  0.00000000000E+00  0.12641638981E+04  0.12641638981E+04  0.00000000000E+00 0. -1.
         -2   -1    0    0    0  501 -0.00000000000E+00 -0.00000000000E+00 -0.33767392965E+03  0.33767392965E+03  0.00000000000E+00 0.  1.
         23    2    1    2    0    0  0.27795670122E+03 -0.12926768035E+03  0.47451053880E+03  0.57189659881E+03  0.89080903440E+02 0.  0.
        254    2    1    2    0    0 -0.27795670122E+03  0.12926768035E+03  0.45197942962E+03  0.10299412289E+04  0.87322589820E+03 0.  0.
         23    2    4    4    0    0  0.59532799914E+02  0.89165537121E+02  0.62309517669E+03  0.63873586038E+03  0.90781346372E+02 0.  0.
         23    2    4    4    0    0 -0.33748950114E+03  0.40102143233E+02 -0.17111574707E+03  0.39120536854E+03  0.90849855302E+02 0.  0.
         11    1    3    3    0    0  0.28153211821E+03 -0.12357848224E+03  0.47422173987E+03  0.56517097716E+03  0.00000000000E+00 0. -1.
        -11    1    3    3    0    0 -0.35754169901E+01 -0.56891981122E+01  0.28879893715E+00  0.67256216545E+01  0.00000000000E+00 0.  1.
          4    1    5    5  502    0  0.52144007559E+01  0.20762134444E+02  0.19830808890E+02  0.29180767350E+02  0.00000000000E+00 0. -1.
          3    1    6    6  503    0 -0.29099822534E+02 -0.55789984977E+01  0.92435029693E+01  0.31038157853E+02  0.00000000000E+00 0. -1.
         -4    1    5    5    0  502  0.54318399158E+02  0.68403402677E+02  0.60326436780E+03  0.60955509303E+03  0.00000000000E+00 0.  1.
         -3    1    6    6    0  503 -0.30838967860E+03  0.45681141730E+02 -0.18035925003E+03  0.36016721068E+03  0.00000000000E+00 0.  1.
<mgrwt>
<rscale>  0 0.13067137E+04</rscale>
<asrwt>0</asrwt>
<pdfrwt beam="1">  1        2 0.19448675E+00 0.13067137E+04</pdfrwt>
<pdfrwt beam="2">  1       -2 0.51949836E-01 0.13067137E+04</pdfrwt>
<totfact> 0.59461994E+01</totfact>
</mgrwt>
</event>
<event>
12    1  0.4403484E-008  0.1459915E+04  0.7818608E-02  0.8911556E-01
         -2   -1    0    0    0  501 -0.00000000000E+00  0.00000000000E+00  0.55494574111E+03  0.55494574111E+03  0.00000000000E+00 0.  1.
          2   -1    0    0  501    0  0.00000000000E+00 -0.00000000000E+00 -0.96016202647E+03  0.96016202647E+03  0.00000000000E+00 0. -1.
         23    2    1    2    0    0 -0.18162549260E+03  0.16199619816E+03 -0.51163285304E+03  0.57382105772E+03  0.90949668469E+02 0.  0.
        254    2    1    2    0    0  0.18162549260E+03 -0.16199619816E+03  0.10641656768E+03  0.94128670986E+03  0.90303133750E+03 0.  0.
         23    2    4    4    0    0 -0.14504073390E+03  0.29820307964E+03  0.13392107459E+03  0.36881528335E+03  0.90155242890E+02 0.  0.
         23    2    4    4    0    0  0.32666622650E+03 -0.46019927779E+03 -0.27504506909E+02  0.57247142651E+03  0.92048017111E+02 0.  0.
         13    1    3    3    0    0 -0.10171411650E+03  0.87723058696E+02 -0.17924176355E+03  0.22398371888E+03  0.00000000000E+00 0.  1.
        -13    1    3    3    0    0 -0.79911376100E+02  0.74273139459E+02 -0.33239108949E+03  0.34983733884E+03  0.00000000000E+00 0. -1.
          1    1    5    5  502    0 -0.14041897494E+03  0.19872651412E+03  0.10580593140E+03  0.26533867238E+03  0.00000000000E+00 0. -1.
          1    1    6    6  503    0  0.12625018129E+03 -0.11004340908E+03  0.63591306451E+01  0.16759802713E+03  0.00000000000E+00 0. -1.
         -1    1    5    5    0  502 -0.46217589551E+01  0.99476565514E+02  0.28115143184E+02  0.10347661097E+03  0.00000000000E+00 0.  1.
         -1    1    6    6    0  503  0.20041604521E+03 -0.35015586872E+03 -0.33863637554E+02  0.40487339938E+03  0.00000000000E+00 0.  1.
<mgrwt>
<rscale>  0 0.14599148E+04</rscale>
<asrwt>0</asrwt>
<pdfrwt beam="1">  1        2 0.14771723E+00 0.14599148E+04</pdfrwt>
<pdfrwt beam="2">  1       -2 0.85376269E-01 0.14599148E+04</pdfrwt>
<totfact> 0.30912744E+01</totfact>
</mgrwt>
</event>
<event>
12    1  0.4403484E-008  0.1249905E+04  0.7818608E-02  0.9070262E-01
         -1   -1    0    0    0  501 -0.00000000000E+00  0.00000000000E+00  0.55865106969E+03  0.55865106969E+03  0.00000000000E+00 0.  1.
          1   -1    0    0  501    0  0.00000000000E+00 -0.00000000000E+00 -0.69912246828E+03  0.69912246828E+03  0.00000000000E+00 0. -1.
         23    2    1    2    0    0  0.54234879728E+02  0.27459101885E+03 -0.80967330025E+02  0.30540688801E+03  0.91520538125E+02 0.  0.
        254    2    1    2    0    0 -0.54234879728E+02 -0.27459101885E+03 -0.59504068567E+02  0.95236664996E+03  0.90836108017E+03 0.  0.
         23    2    4    4    0    0 -0.87696877623E+02 -0.49128576946E+03 -0.32087061000E+03  0.59912147379E+03  0.83283506032E+02 0.  0.
         23    2    4    4    0    0  0.33461997895E+02  0.21669475061E+03  0.26136654143E+03  0.35324517617E+03  0.91615311290E+02 0.  0.
         13    1    3    3    0    0  0.27997976424E-01  0.28369944427E+02  0.19052875940E+02  0.34174063444E+02  0.00000000000E+00 0.  1.
        -13    1    3    3    0    0  0.54206881752E+02  0.24622107442E+03 -0.10002020597E+03  0.27123282456E+03  0.00000000000E+00 0. -1.
          1    1    5    5  502    0  0.10750488087E+02 -0.58604330947E+02 -0.19399250480E+02  0.62660765388E+02  0.00000000000E+00 0. -1.
          3    1    6    6  503    0  0.55711837248E+01  0.29114005467E+02  0.99803927009E+02  0.10411285823E+03  0.00000000000E+00 0. -1.
         -1    1    5    5    0  502 -0.98447365711E+02 -0.43268143851E+03 -0.30147135952E+03  0.53646070840E+03  0.00000000000E+00 0.  1.
         -3    1    6    6    0  503  0.27890814170E+02  0.18758074514E+03  0.16156261443E+03  0.24913231794E+03  0.00000000000E+00 0.  1.
<mgrwt>
<rscale>  0 0.12499048E+04</rscale>
<asrwt>0</asrwt>
<pdfrwt beam="1">  1        1 0.10755730E+00 0.12499048E+04</pdfrwt>
<pdfrwt beam="2">  1       -1 0.85946319E-01 0.12499048E+04</pdfrwt>
<totfact> 0.35995247E+01</totfact>
</mgrwt>
</event>
<event>
12    1  0.4403484E-008  0.1832818E+04  0.7818608E-02  0.8689040E-01
          2   -1    0    0  501    0  0.00000000000E+00  0.00000000000E+00  0.40157942030E+04  0.40157942030E+04  0.00000000000E+00 0. -1.
         -2   -1    0    0    0  501 -0.00000000000E+00 -0.00000000000E+00 -0.20912552567E+03  0.20912552567E+03  0.00000000000E+00 0.  1.
         23    2    1    2    0    0 -0.12922825876E+03  0.65845293710E+03  0.18631195931E+04  0.19822446948E+04  0.88426232910E+02 0.  0.
        254    2    1    2    0    0  0.12922825876E+03 -0.65845293710E+03  0.19435490842E+04  0.22426750339E+04  0.89551552272E+03 0.  0.
         23    2    4    4    0    0 -0.36907141769E+03 -0.36654513403E+03  0.80319227938E+03  0.96123062196E+03  0.90980351224E+02 0.  0.
         23    2    4    4    0    0  0.49829967645E+03 -0.29190780307E+03  0.11403568049E+04  0.12814444119E+04  0.90406887747E+02 0.  0.
         11    1    3    3    0    0 -0.34722464080E+02  0.11218238631E+03  0.24277670236E+03  0.26968697506E+03  0.00000000000E+00 0.  1.
        -11    1    3    3    0    0 -0.94505794680E+02  0.54627055079E+03  0.16203428907E+04  0.17125577197E+04  0.00000000000E+00 0. -1.
          4    1    5    5  502    0 -0.53895432077E+02 -0.63534054596E+02  0.19634400195E+03  0.21328914833E+03  0.00000000000E+00 0.  1.
          3    1    6    6  503    0  0.49309894938E+03 -0.28407232503E+03  0.11369965312E+04  0.12714577349E+04  0.00000000000E+00 0. -1.
         -4    1    5    5    0  502 -0.31517598562E+03 -0.30301107943E+03  0.60684827743E+03  0.74794147364E+03  0.00000000000E+00 0. -1.
         -3    1    6    6    0  503  0.52007270704E+01 -0.78354780457E+01  0.33602736812E+01  0.99866769988E+01  0.00000000000E+00 0.  1.
<mgrwt>
<rscale>  0 0.18328176E+04</rscale>
<asrwt>0</asrwt>
<pdfrwt beam="1">  1        2 0.61781444E+00 0.18328176E+04</pdfrwt>
<pdfrwt beam="2">  1       -2 0.32173161E-01 0.18328176E+04</pdfrwt>
<totfact> 0.28522004E+00</totfact>
</mgrwt>
</event>
<event>
12    1  0.4403484E-008  0.2185476E+04  0.7818608E-02  0.8524498E-01
         -1   -1    0    0    0  501 -0.00000000000E+00  0.00000000000E+00  0.36888844866E+03  0.36888844866E+03  0.00000000000E+00 0.  1.
          1   -1    0    0  501    0  0.00000000000E+00 -0.00000000000E+00 -0.32369569804E+04  0.32369569804E+04  0.00000000000E+00 0. -1.
         23    2    1    2    0    0  0.48230316830E+03 -0.56201090656E+03 -0.17581438434E+04  0.19099614996E+04  0.91709054542E+02 0.  0.
        254    2    1    2    0    0 -0.48230316830E+03  0.56201090656E+03 -0.11099246883E+04  0.16958839295E+04  0.10467171935E+04 0.  0.
         23    2    4    4    0    0  0.13205892880E+03  0.62514072248E+03 -0.68103942521E+03  0.93868980563E+03  0.95306709699E+02 0.  0.
         23    2    4    4    0    0 -0.61436209710E+03 -0.63129815928E+02 -0.42888526313E+03  0.75719412383E+03  0.89298444628E+02 0.  0.
         13    1    3    3    0    0  0.28684747510E+03 -0.31405017173E+03 -0.89618932387E+03  0.99200014544E+03  0.00000000000E+00 0. -1.
        -13    1    3    3    0    0  0.19545569321E+03 -0.24796073482E+03 -0.86195451953E+03  0.91796135418E+03  0.00000000000E+00 0.  1.
          2    1    5    5  502    0  0.14424110223E+03  0.52980331155E+03 -0.59570282213E+03  0.81015979707E+03  0.00000000000E+00 0. -1.
          4    1    6    6  503    0 -0.24229462390E+03 -0.68623614583E+02 -0.16693204500E+03  0.30212943070E+03  0.00000000000E+00 0. -1.
         -2    1    5    5    0  502 -0.12182173434E+02  0.95337410935E+02 -0.85336603086E+02  0.12853000856E+03  0.00000000000E+00 0.  1.
         -4    1    6    6    0  503 -0.37206747321E+03  0.54937986558E+01 -0.26195321814E+03  0.45506469313E+03  0.00000000000E+00 0.  1.
<mgrwt>
<rscale>  0 0.21854757E+04</rscale>
<asrwt>0</asrwt>
<pdfrwt beam="1">  1        1 0.49799340E+00 0.21854757E+04</pdfrwt>
<pdfrwt beam="2">  1       -1 0.56752067E-01 0.21854757E+04</pdfrwt>
<totfact> 0.11458808E+00</totfact>
</mgrwt>
</event>
<event>
12    1  0.4403484E-008  0.2455912E+04  0.7818608E-02  0.8418863E-01
          1   -1    0    0  501    0  0.00000000000E+00  0.00000000000E+00  0.37424512893E+04  0.37424512893E+04  0.00000000000E+00 0. -1.
         -1   -1    0    0    0  501 -0.00000000000E+00 -0.00000000000E+00 -0.40291137734E+03  0.40291137734E+03  0.00000000000E+00 0.  1.
         23    2    1    2    0    0  0.30471071553E+03 -0.18073956382E+03 -0.24396546033E+03  0.43905946409E+03  0.87969637319E+02 0.  0.
        254    2    1    2    0    0 -0.30471071553E+03  0.18073956382E+03  0.35835053723E+04  0.37063032025E+04  0.87730112613E+03 0.  0.
         23    2    4    4    0    0 -0.46652479389E+03  0.39855181564E+03  0.19020777378E+04  0.20007381479E+04  0.92544490832E+02 0.  0.
         23    2    4    4    0    0  0.16181407836E+03 -0.21781225182E+03  0.16814276345E+04  0.17055650546E+04  0.90151498092E+02 0.  0.
         13    1    3    3    0    0  0.27553665341E+03 -0.13595275729E+03 -0.18153455313E+03  0.35687307767E+03  0.00000000000E+00 0.  1.
        -13    1    3    3    0    0  0.29174062120E+02 -0.44786806534E+02 -0.62430907198E+02  0.82186386425E+02  0.00000000000E+00 0. -1.
          2    1    5    5  502    0 -0.43465992191E+03  0.39595671578E+03  0.17831079401E+04  0.18775475745E+04  0.00000000000E+00 0. -1.
          3    1    6    6  503    0  0.12131497230E+03 -0.16609301283E+03  0.14656069577E+04  0.14799689071E+04  0.00000000000E+00 0. -1.
         -2    1    5    5    0  502 -0.31864871972E+02  0.25950998598E+01  0.11896979770E+03  0.12319057340E+03  0.00000000000E+00 0.  1.
         -3    1    6    6    0  503  0.40499106062E+02 -0.51719238990E+02  0.21582067671E+03  0.22559614751E+03  0.00000000000E+00 0.  1.
<mgrwt>
<rscale>  0 0.24559122E+04</rscale>
<asrwt>0</asrwt>
<pdfrwt beam="1">  1        1 0.57576171E+00 0.24559122E+04</pdfrwt>
<pdfrwt beam="2">  1       -1 0.61986368E-01 0.24559122E+04</pdfrwt>
<totfact> 0.37544368E-01</totfact>
</mgrwt>
</event>
<event>
12    1  0.4403484E-008  0.1547588E+04  0.7818608E-02  0.8853410E-01
         -1   -1    0    0    0  501 -0.00000000000E+00  0.00000000000E+00  0.48044254561E+03  0.48044254561E+03  0.00000000000E+00 0.  1.
          1   -1    0    0  501    0  0.00000000000E+00 -0.00000000000E+00 -0.12462619644E+04  0.12462619644E+04  0.00000000000E+00 0. -1.
         23    2    1    2    0    0  0.11203712643E+03  0.44878874093E+03 -0.34299042030E+02  0.47585866883E+03  0.10630802760E+03 0.  0.
        254    2    1    2    0    0 -0.11203712643E+03 -0.44878874093E+03 -0.73152037675E+03  0.12508458412E+04  0.90306677776E+03 0.  0.
         23    2    4    4    0    0 -0.31623285310E+03 -0.26418654261E+03 -0.84093214854E+03  0.94091577874E+03  0.91421428354E+02 0.  0.
         23    2    4    4    0    0  0.20419572667E+03 -0.18460219831E+03  0.10941177179E+03  0.30993006243E+03  0.91169300632E+02 0.  0.
         11    1    3    3    0    0 -0.83153332720E+01  0.12252387236E+03 -0.36436861373E+02  0.12809718550E+03  0.00000000000E+00 0. -1.
        -11    1    3    3    0    0  0.12035245970E+03  0.32626486857E+03  0.21378193429E+01  0.34776148333E+03  0.00000000000E+00 0.  1.
          2    1    5    5  502    0 -0.12295896274E+02 -0.22716486811E+02 -0.11336672138E+03  0.11627227251E+03  0.00000000000E+00 0. -1.
          3    1    6    6  503    0 -0.35480724871E-01 -0.32097162638E+02  0.27314537005E+02  0.42146328904E+02  0.00000000000E+00 0. -1.
         -2    1    5    5    0  502 -0.30393695683E+03 -0.24147005580E+03 -0.72756542716E+03  0.82464350623E+03  0.00000000000E+00 0.  1.
         -3    1    6    6    0  503  0.20423120740E+03 -0.15250503568E+03  0.82097234786E+02  0.26778373353E+03  0.00000000000E+00 0.  1.
<mgrwt>
<rscale>  0 0.15475882E+04</rscale>
<asrwt>0</asrwt>
<pdfrwt beam="1">  1        1 0.19173261E+00 0.15475882E+04</pdfrwt>
<pdfrwt beam="2">  1       -1 0.73914238E-01 0.15475882E+04</pdfrwt>
<totfact> 0.17564559E+01</totfact>
</mgrwt>
</event>
<event>
12    1  0.4403484E-008  0.1789136E+04  0.7818608E-02  0.8712098E-01
          2   -1    0    0  501    0  0.00000000000E+00  0.00000000000E+00  0.64417199954E+03  0.64417199954E+03  0.00000000000E+00 0. -1.
         -2   -1    0    0    0  501 -0.00000000000E+00 -0.00000000000E+00 -0.12422957331E+04  0.12422957331E+04  0.00000000000E+00 0.  1.
         23    2    1    2    0    0 -0.44603725179E+03 -0.38401120155E+03  0.88491285243E+02  0.60432895550E+03  0.10473273599E+03 0.  0.
        254    2    1    2    0    0  0.44603725179E+03  0.38401120155E+03 -0.68661501876E+03  0.12821387771E+04  0.90885962990E+03 0.  0.
         23    2    4    4    0    0 -0.22839283346E+03 -0.69232699600E+02 -0.94219233488E+02  0.27240298902E+03  0.91485908191E+02 0.  0.
         23    2    4    4    0    0  0.67443008525E+03  0.45324390115E+03 -0.59239578527E+03  0.10097357881E+04  0.91365318982E+02 0.  0.
         11    1    3    3    0    0 -0.16260178405E+02 -0.55280919747E+01  0.21845355759E+02  0.27787996884E+02  0.00000000000E+00 0.  1.
        -11    1    3    3    0    0 -0.42977707339E+03 -0.37848310957E+03  0.66645929484E+02  0.57654095861E+03  0.00000000000E+00 0. -1.
          2    1    5    5  502    0 -0.21733115539E+03 -0.36798298485E+02 -0.73491100256E+02  0.23235293777E+03  0.00000000000E+00 0. -1.
          4    1    6    6  503    0  0.35194142337E+03  0.26038460643E+03 -0.26790401130E+03  0.51325964971E+03  0.00000000000E+00 0. -1.
         -2    1    5    5    0  502 -0.11061678066E+02 -0.32434401115E+02 -0.20728133231E+02  0.40050051243E+02  0.00000000000E+00 0.  1.
         -4    1    6    6    0  503  0.32248866188E+03  0.19285929472E+03 -0.32449177397E+03  0.49647613837E+03  0.00000000000E+00 0.  1.
<mgrwt>
<rscale>  0 0.17891362E+04</rscale>
<asrwt>0</asrwt>
<pdfrwt beam="1">  1        2 0.99103384E-01 0.17891362E+04</pdfrwt>
<pdfrwt beam="2">  1       -2 0.19112242E+00 0.17891362E+04</pdfrwt>
<totfact> 0.65391534E+00</totfact>
</mgrwt>
</event>
<event>
12    1  0.4403484E-008  0.2308993E+04  0.7818608E-02  0.8474384E-01
         -1   -1    0    0    0  501 -0.00000000000E+00  0.00000000000E+00  0.75577578734E+03  0.75577578734E+03  0.00000000000E+00 0.  1.
          1   -1    0    0  501    0  0.00000000000E+00 -0.00000000000E+00 -0.17635679462E+04  0.17635679462E+04  0.00000000000E+00 0. -1.
         23    2    1    2    0    0  0.35923584208E+03 -0.73655219279E+03  0.14729238491E+03  0.83768428945E+03  0.91980428414E+02 0.  0.
        254    2    1    2    0    0 -0.35923584208E+03  0.73655219279E+03 -0.11550845438E+04  0.16816594441E+04  0.90675170787E+03 0.  0.
         23    2    4    4    0    0 -0.53621261475E+03  0.18223987771E+03 -0.31224109390E+03  0.65322910196E+03  0.92078323627E+02 0.  0.
         23    2    4    4    0    0  0.17697677267E+03  0.55431231508E+03 -0.84284344991E+03  0.10284303422E+04  0.93278973624E+02 0.  0.
         11    1    3    3    0    0  0.30100443934E+03 -0.65050289502E+03  0.15555936570E+03  0.73345511464E+03  0.00000000000E+00 0.  1.
        -11    1    3    3    0    0  0.58231402739E+02 -0.86049297763E+02 -0.82669807929E+01  0.10422917481E+03  0.00000000000E+00 0. -1.
          3    1    5    5  502    0 -0.74959713939E+02 -0.63633299819E+01 -0.34939588238E+02  0.82947124776E+02  0.00000000000E+00 0. -1.
          3    1    6    6  503    0  0.73968015966E+02  0.12192701620E+03 -0.16812454869E+03  0.22046162600E+03  0.00000000000E+00 0. -1.
         -3    1    5    5    0  502 -0.46125290081E+03  0.18860320769E+03 -0.27730150566E+03  0.57028197718E+03  0.00000000000E+00 0.  1.
         -3    1    6    6    0  503  0.10300875670E+03  0.43238529888E+03 -0.67471890122E+03  0.80796871617E+03  0.00000000000E+00 0.  1.
<mgrwt>
<rscale>  0 0.23089928E+04</rscale>
<asrwt>0</asrwt>
<pdfrwt beam="1">  1        1 0.27131814E+00 0.23089928E+04</pdfrwt>
<pdfrwt beam="2">  1       -1 0.11627320E+00 0.23089928E+04</pdfrwt>
<totfact> 0.26038516E+00</totfact>
</mgrwt>
</event>
<event>
12    1  0.4403484E-008  0.1384737E+04  0.7818608E-02  0.8964941E-01
         -2   -1    0    0    0  501 -0.00000000000E+00  0.00000000000E+00  0.42081364633E+03  0.42081364633E+03  0.00000000000E+00 0.  1.
          2   -1    0    0  501    0  0.00000000000E+00 -0.00000000000E+00 -0.11391599003E+04  0.11391599003E+04  0.00000000000E+00 0. -1.
         23    2    1    2    0    0 -0.15996328899E+03  0.31640069084E+03 -0.39858169841E+03  0.54164810043E+03  0.93902307790E+02 0.  0.
        254    2    1    2    0    0  0.15996328899E+03 -0.31640069084E+03 -0.31976455559E+03  0.10183254462E+04  0.89946633758E+03 0.  0.
         23    2    4    4    0    0  0.51550902786E+03 -0.12410270828E+03 -0.26650777277E+03  0.60066330170E+03  0.92838402911E+02 0.  0.
         23    2    4    4    0    0 -0.35554573887E+03 -0.19229798256E+03 -0.53256782826E+02  0.41766214453E+03  0.90631647512E+02 0.  0.
         11    1    3    3    0    0 -0.99962267882E+02  0.25283060198E+03 -0.34449571989E+03  0.43885426889E+03  0.00000000000E+00 0.  1.
        -11    1    3    3    0    0 -0.60001021105E+02  0.63570088862E+02 -0.54085978515E+02  0.10279383154E+03  0.00000000000E+00 0. -1.
          4    1    6    6  502    0 -0.10523894200E+03 -0.56372741486E+02 -0.58135015052E+02  0.13278855700E+03  0.00000000000E+00 0. -1.
          4    1    5    5  503    0  0.13660927906E+03 -0.17127260691E+01 -0.39015832530E+02  0.14208189098E+03  0.00000000000E+00 0. -1.
         -4    1    5    5    0  503  0.37889974880E+03 -0.12238998221E+03 -0.22749194024E+03  0.45858141072E+03  0.00000000000E+00 0.  1.
         -4    1    6    6    0  502 -0.25030679688E+03 -0.13592524107E+03  0.48782322257E+01  0.28487358753E+03  0.00000000000E+00 0.  1.
<mgrwt>
<rscale>  0 0.13847368E+04</rscale>
<asrwt>0</asrwt>
<pdfrwt beam="1">  1        2 0.17525537E+00 0.13847368E+04</pdfrwt>
<pdfrwt beam="2">  1       -2 0.64740562E-01 0.13847368E+04</pdfrwt>
<totfact> 0.44231154E+01</totfact>
</mgrwt>
</event>
<event>
12    1  0.4403484E-008  0.2195401E+04  0.7818608E-02  0.8520345E-01
         -2   -1    0    0    0  501 -0.00000000000E+00  0.00000000000E+00  0.12569622885E+04  0.12569622885E+04  0.00000000000E+00 0. -1.
          2   -1    0    0  501    0  0.00000000000E+00 -0.00000000000E+00 -0.95861737344E+03  0.95861737344E+03  0.00000000000E+00 0.  1.
         23    2    1    2    0    0  0.47371148400E+02 -0.47529066511E+03 -0.65043547438E+03  0.81194819991E+03  0.89712490578E+02 0.  0.
        254    2    1    2    0    0 -0.47371148400E+02  0.47529066511E+03  0.94878038942E+03  0.14036314620E+04  0.91752482896E+03 0.  0.
         23    2    4    4    0    0 -0.12584061399E+03  0.68463523650E+03  0.92466190066E+03  0.11610723011E+04  0.92347120046E+02 0.  0.
         23    2    4    4    0    0  0.78469465591E+02 -0.20934457139E+03  0.24118488758E+02  0.24255916094E+03  0.90943050620E+02 0.  0.
         13    1    3    3    0    0 -0.16838530190E+02 -0.37807941116E+02 -0.35390566726E+02  0.54456117412E+02  0.00000000000E+00 0. -1.
        -13    1    3    3    0    0  0.64209678590E+02 -0.43748272399E+03 -0.61504490765E+03  0.75749208250E+03  0.00000000000E+00 0.  1.
          2    1    5    5  502    0 -0.19078817348E+02  0.28249114333E+03  0.42776011595E+03  0.51297559799E+03  0.00000000000E+00 0. -1.
          4    1    6    6  503    0  0.85016581288E+02 -0.17406237915E+03  0.47849910575E+02  0.19953732701E+03  0.00000000000E+00 0. -1.
         -2    1    5    5    0  502 -0.10676179664E+03  0.40214409317E+03  0.49690178471E+03  0.64809670308E+03  0.00000000000E+00 0.  1.
         -4    1    6    6    0  503 -0.65471156968E+01 -0.35282192244E+02 -0.23731421817E+02  0.43021833933E+02  0.00000000000E+00 0.  1.
<mgrwt>
<rscale>  0 0.21954005E+04</rscale>
<asrwt>0</asrwt>
<pdfrwt beam="1">  1        2 0.14747960E+00 0.21954005E+04</pdfrwt>
<pdfrwt beam="2">  1       -2 0.19337881E+00 0.21954005E+04</pdfrwt>
<totfact> 0.36042731E+00</totfact>
</mgrwt>
</event>
<event>
12    1  0.4403484E-008  0.1689885E+04  0.7818608E-02  0.8767154E-01
          1   -1    0    0  501    0  0.00000000000E+00  0.00000000000E+00  0.12881248322E+04  0.12881248322E+04  0.00000000000E+00 0. -1.
         -1   -1    0    0    0  501 -0.00000000000E+00 -0.00000000000E+00 -0.55423822245E+03  0.55423822245E+03  0.00000000000E+00 0.  1.
         23    2    1    2    0    0 -0.55236974738E+03 -0.20723709345E+03  0.13356343926E+03  0.60886978356E+03  0.69452647845E+02 0.  0.
        254    2    1    2    0    0  0.55236974738E+03  0.20723709345E+03  0.60032317046E+03  0.12334932711E+04  0.90169739383E+03 0.  0.
         23    2    4    4    0    0  0.49807015122E+02 -0.31421240283E+03  0.29123649389E+03  0.44092974457E+03  0.91597878956E+02 0.  0.
         23    2    4    4    0    0  0.50256273226E+03  0.52144949628E+03  0.30908667658E+03  0.79256352650E+03  0.90241303526E+02 0.  0.
         11    1    3    3    0    0 -0.93843910433E+02 -0.84246372861E+01  0.23966454003E+02  0.97221628027E+02  0.00000000000E+00 0. -1.
        -11    1    3    3    0    0 -0.45852583695E+03 -0.19881245617E+03  0.10959698526E+03  0.51164815553E+03  0.00000000000E+00 0.  1.
          1    1    5    5  502    0  0.31266680338E+02 -0.24843221484E+03  0.17293766765E+03  0.30430840863E+03  0.00000000000E+00 0. -1.
          3    1    6    6  503    0  0.49109820730E+03  0.48000620900E+03  0.29378347103E+03  0.74692177485E+03  0.00000000000E+00 0. -1.
         -1    1    5    5    0  502  0.18540334784E+02 -0.65780187988E+02  0.11829882624E+03  0.13662133594E+03  0.00000000000E+00 0.  1.
         -3    1    6    6    0  503  0.11464524959E+02  0.41443287281E+02  0.15303205548E+02  0.45641751645E+02  0.00000000000E+00 0.  1.
<mgrwt>
<rscale>  0 0.16898852E+04</rscale>
<asrwt>0</asrwt>
<pdfrwt beam="1">  1        1 0.19817305E+00 0.16898852E+04</pdfrwt>
<pdfrwt beam="2">  1       -1 0.85267419E-01 0.16898852E+04</pdfrwt>
<totfact> 0.11947206E+01</totfact>
</mgrwt>
</event>
<event>
12    1  0.4403484E-008  0.1254411E+04  0.7818608E-02  0.9066520E-01
          1   -1    0    0  501    0  0.00000000000E+00  0.00000000000E+00  0.36613662184E+03  0.36613662184E+03  0.00000000000E+00 0. -1.
         -1   -1    0    0    0  501 -0.00000000000E+00 -0.00000000000E+00 -0.10744256542E+04  0.10744256542E+04  0.00000000000E+00 0.  1.
         23    2    1    2    0    0 -0.60069508144E+02  0.11786277006E+02  0.16192948990E+03  0.19586747463E+03  0.91627756631E+02 0.  0.
        254    2    1    2    0    0  0.60069508144E+02 -0.11786277006E+02 -0.87021852225E+03  0.12446948014E+04  0.88782746636E+03 0.  0.
         23    2    4    4    0    0 -0.33525681601E+03  0.21916264629E+03 -0.30371697560E+03  0.51046647111E+03  0.88896673994E+02 0.  0.
         23    2    4    4    0    0  0.39532632415E+03 -0.23094892330E+03 -0.56650154665E+03  0.73422833029E+03  0.92449612757E+02 0.  0.
         11    1    3    3    0    0  0.24725633833E+02  0.14602799165E+01  0.37148632063E+02  0.44648742984E+02  0.00000000000E+00 0. -1.
        -11    1    3    3    0    0 -0.84795141978E+02  0.10325997089E+02  0.12478085783E+03  0.15121873165E+03  0.00000000000E+00 0.  1.
          1    1    5    5  502    0 -0.28062911512E+03  0.19434833999E+03 -0.21519045953E+03  0.40352312373E+03  0.00000000000E+00 0. -1.
          3    1    6    6  503    0  0.37621114149E+03 -0.19510700979E+03 -0.49187819292E+03  0.64926552728E+03  0.00000000000E+00 0. -1.
         -1    1    5    5    0  502 -0.54627700889E+02  0.24814306307E+02 -0.88526516070E+02  0.10694334738E+03  0.00000000000E+00 0.  1.
         -3    1    6    6    0  503  0.19115182665E+02 -0.35841913509E+02 -0.74623353734E+02  0.84962803008E+02  0.00000000000E+00 0.  1.
<mgrwt>
<rscale>  0 0.12544107E+04</rscale>
<asrwt>0</asrwt>
<pdfrwt beam="1">  1        1 0.56328711E-01 0.12544107E+04</pdfrwt>
<pdfrwt beam="2">  1       -1 0.16529625E+00 0.12544107E+04</pdfrwt>
<totfact> 0.17736395E+01</totfact>
</mgrwt>
</event>
<event>
12    1  0.4403484E-008  0.1325019E+04  0.7818608E-02  0.9009957E-01
          2   -1    0    0  501    0  0.00000000000E+00  0.00000000000E+00  0.11949071966E+04  0.11949071966E+04  0.00000000000E+00 0. -1.
         -2   -1    0    0    0  501 -0.00000000000E+00 -0.00000000000E+00 -0.36732450006E+03  0.36732450006E+03  0.00000000000E+00 0.  1.
         23    2    1    2    0    0 -0.31190231610E+03  0.86083850065E+02  0.37502936226E+03  0.50360166483E+03  0.90962246214E+02 0.  0.
        254    2    1    2    0    0  0.31190231610E+03 -0.86083850065E+02  0.45255333425E+03  0.10586300318E+04  0.90066616450E+03 0.  0.
         23    2    4    4    0    0 -0.71595877116E+02  0.34854538784E+03  0.21775629128E+03  0.42664301399E+03  0.89423721621E+02 0.  0.
         23    2    4    4    0    0  0.38349819321E+03 -0.43462923791E+03  0.23479704297E+03  0.63198701782E+03  0.91129033027E+02 0.  0.
         11    1    3    3    0    0 -0.51541461116E+02 -0.14468016442E+01  0.11197796457E+03  0.12327887085E+03  0.00000000000E+00 0. -1.
        -11    1    3    3    0    0 -0.26036085498E+03  0.87530651709E+02  0.26305139769E+03  0.38032279398E+03  0.00000000000E+00 0.  1.
          1    1    5    5  502    0 -0.22633890256E+02  0.27349700393E+03  0.14038539537E+03  0.30825470536E+03  0.00000000000E+00 0. -1.
          3    1    6    6  503    0  0.24363144459E+03 -0.31615505688E+03  0.19583707553E+03  0.44459246612E+03  0.00000000000E+00 0. -1.
         -1    1    5    5    0  502 -0.48961986860E+02  0.75048383914E+02  0.77370895914E+02  0.11838830863E+03  0.00000000000E+00 0.  1.
         -3    1    6    6    0  503  0.13986674862E+03 -0.11847418103E+03  0.38959967437E+02  0.18739455169E+03  0.00000000000E+00 0.  1.
<mgrwt>
<rscale>  0 0.13250188E+04</rscale>
<asrwt>0</asrwt>
<pdfrwt beam="1">  1        2 0.18383187E+00 0.13250188E+04</pdfrwt>
<pdfrwt beam="2">  1       -2 0.56511462E-01 0.13250188E+04</pdfrwt>
<totfact> 0.54829261E+01</totfact>
</mgrwt>
</event>
<event>
12    1  0.4403484E-008  0.1822309E+04  0.7818608E-02  0.8694525E-01
          2   -1    0    0  501    0  0.00000000000E+00  0.00000000000E+00  0.10844244673E+04  0.10844244673E+04  0.00000000000E+00 0. -1.
         -2   -1    0    0    0  501 -0.00000000000E+00 -0.00000000000E+00 -0.76556955780E+03  0.76556955780E+03  0.00000000000E+00 0.  1.
         23    2    1    2    0    0 -0.26562250255E+03  0.74326001256E+01 -0.51578494884E+03  0.58966282668E+03  0.10515502037E+03 0.  0.
        254    2    1    2    0    0  0.26562250255E+03 -0.74326001256E+01  0.83463985835E+03  0.12603311984E+04  0.90620112512E+03 0.  0.
         23    2    4    4    0    0 -0.23425380859E+03 -0.15697660007E+03  0.62392389428E+03  0.69024278308E+03  0.87393214445E+02 0.  0.
         23    2    4    4    0    0  0.49987631115E+03  0.14954399994E+03  0.21071596406E+03  0.57008841534E+03  0.91432212200E+02 0.  0.
         11    1    3    3    0    0 -0.70204410753E+02  0.48235632777E+02 -0.17714478692E+03  0.19655943399E+03  0.00000000000E+00 0. -1.
        -11    1    3    3    0    0 -0.19541809180E+03 -0.40803032651E+02 -0.33864016192E+03  0.39310339269E+03  0.00000000000E+00 0.  1.
          2    1    5    5  502    0 -0.20249771768E+03 -0.15031095413E+03  0.47468403028E+03  0.53751617389E+03  0.00000000000E+00 0. -1.
          2    1    6    6  503    0  0.17456565470E+03  0.15181098179E+02  0.96580368706E+02  0.20007848750E+03  0.00000000000E+00 0. -1.
         -2    1    5    5    0  502 -0.31756090915E+02 -0.66656459380E+01  0.14923986401E+03  0.15272660919E+03  0.00000000000E+00 0.  1.
         -2    1    6    6    0  503  0.32531065645E+03  0.13436290176E+03  0.11413559536E+03  0.37000992784E+03  0.00000000000E+00 0.  1.
<mgrwt>
<rscale>  0 0.18223088E+04</rscale>
<asrwt>0</asrwt>
<pdfrwt beam="1">  1        2 0.16683453E+00 0.18223088E+04</pdfrwt>
<pdfrwt beam="2">  1       -2 0.11777993E+00 0.18223088E+04</pdfrwt>
<totfact> 0.11676126E+01</totfact>
</mgrwt>
</event>
<event>
12    1  0.4403484E-008  0.1656336E+04  0.7818608E-02  0.8786667E-01
          2   -1    0    0  501    0  0.00000000000E+00  0.00000000000E+00  0.11913301141E+04  0.11913301141E+04  0.00000000000E+00 0. -1.
         -2   -1    0    0    0  501 -0.00000000000E+00 -0.00000000000E+00 -0.57571124819E+03  0.57571124819E+03  0.00000000000E+00 0.  1.
         23    2    1    2    0    0 -0.41521983754E+03  0.23522937242E+03  0.56391981150E+03  0.74427002810E+03  0.90509390621E+02 0.  0.
        254    2    1    2    0    0  0.41521983754E+03 -0.23522937242E+03  0.51699054414E+02  0.10227713342E+04  0.90313234837E+03 0.  0.
         23    2    4    4    0    0  0.26787797564E+03 -0.28275365373E+03 -0.38204948184E+03  0.55310380144E+03  0.90850261737E+02 0.  0.
         23    2    4    4    0    0  0.14734186190E+03  0.47524281308E+02  0.43374853626E+03  0.46966753275E+03  0.92095694958E+02 0.  0.
         13    1    3    3    0    0 -0.11246809176E+03  0.28763541036E+02  0.17406329206E+03  0.20922342747E+03  0.00000000000E+00 0.  1.
        -13    1    3    3    0    0 -0.30275174578E+03  0.20646583139E+03  0.38985651943E+03  0.53504660063E+03  0.00000000000E+00 0. -1.
          4    1    5    5  502    0  0.14115171482E+02 -0.41145975706E+01 -0.45549955017E+02  0.47864040586E+02  0.00000000000E+00 0. -1.
          3    1    6    6  503    0  0.66924345431E+02  0.64128712965E+01  0.79643909291E+02  0.10422641324E+03  0.00000000000E+00 0. -1.
         -4    1    5    5    0  502  0.25376280416E+03 -0.27863905616E+03 -0.33649952683E+03  0.50523976085E+03  0.00000000000E+00 0.  1.
         -3    1    6    6    0  503  0.80417516469E+02  0.41111410012E+02  0.35410462697E+03  0.36544111951E+03  0.00000000000E+00 0.  1.
<mgrwt>
<rscale>  0 0.16563359E+04</rscale>
<asrwt>0</asrwt>
<pdfrwt beam="1">  1        2 0.18328156E+00 0.16563359E+04</pdfrwt>
<pdfrwt beam="2">  1       -2 0.88570961E-01 0.16563359E+04</pdfrwt>
<totfact> 0.20072096E+01</totfact>
</mgrwt>
</event>
<event>
12    1  0.4403484E-008  0.1731149E+04  0.7818608E-02  0.8743795E-01
          1   -1    0    0  501    0  0.00000000000E+00  0.00000000000E+00  0.19784478278E+04  0.19784478278E+04  0.00000000000E+00 0. -1.
         -1   -1    0    0    0  501 -0.00000000000E+00 -0.00000000000E+00 -0.37869057596E+03  0.37869057596E+03  0.00000000000E+00 0.  1.
         23    2    1    2    0    0  0.40350433936E+03 -0.16533468654E+03  0.12006382676E+04  0.12805711871E+04  0.90437852693E+02 0.  0.
        254    2    1    2    0    0 -0.40350433936E+03  0.16533468654E+03  0.39911898427E+03  0.10765672167E+04  0.89974979740E+03 0.  0.
         23    2    4    4    0    0  0.12224878456E+03 -0.21034292202E+03 -0.74350620394E+02  0.27030472479E+03  0.91365854239E+02 0.  0.
         23    2    4    4    0    0 -0.52575312392E+03  0.37567760857E+03  0.47346960466E+03  0.80626249186E+03  0.91300199130E+02 0.  0.
         11    1    3    3    0    0  0.39448142833E+03 -0.15053783178E+03  0.10962042055E+04  0.11747088560E+04  0.00000000000E+00 0. -1.
        -11    1    3    3    0    0  0.90229110346E+01 -0.14796854761E+02  0.10443406207E+03  0.10586233114E+03  0.00000000000E+00 0.  1.
          2    1    5    5  502    0  0.30103307011E+02 -0.36900508911E+02 -0.55305452340E+02  0.72983215258E+02  0.00000000000E+00 0. -1.
          3    1    6    6  503    0 -0.34556306049E+03  0.23992344487E+03  0.36017533495E+03  0.55380805347E+03  0.00000000000E+00 0. -1.
         -2    1    5    5    0  502  0.92145477546E+02 -0.17344241311E+03 -0.19045168054E+02  0.19732150953E+03  0.00000000000E+00 0.  1.
         -3    1    6    6    0  503 -0.18019006342E+03  0.13575416370E+03  0.11329426971E+03  0.25245443840E+03  0.00000000000E+00 0.  1.
<mgrwt>
<rscale>  0 0.17311494E+04</rscale>
<asrwt>0</asrwt>
<pdfrwt beam="1">  1        1 0.30437658E+00 0.17311494E+04</pdfrwt>
<pdfrwt beam="2">  1       -1 0.58260090E-01 0.17311494E+04</pdfrwt>
<totfact> 0.87341402E+00</totfact>
</mgrwt>
</event>
<event>
12    1  0.4403484E-008  0.1198789E+04  0.7818608E-02  0.9113917E-01
          2   -1    0    0  501    0  0.00000000000E+00  0.00000000000E+00  0.28121826662E+04  0.28121826662E+04  0.00000000000E+00 0. -1.
         -2   -1    0    0    0  501 -0.00000000000E+00 -0.00000000000E+00 -0.12775622961E+03  0.12775622961E+03  0.00000000000E+00 0.  1.
         23    2    1    2    0    0 -0.34806183099E+02 -0.75722993939E+02  0.44958350542E+01  0.12242674612E+03  0.89569266156E+02 0.  0.
        254    2    1    2    0    0  0.34806183099E+02  0.75722993939E+02  0.26799306016E+04  0.28175121497E+04  0.86567964188E+03 0.  0.
         23    2    4    4    0    0 -0.29811996368E+03 -0.50800051437E+02  0.21461414113E+04  0.21693284332E+04  0.92772493679E+02 0.  0.
         23    2    4    4    0    0  0.33292614678E+03  0.12652304538E+03  0.53378919023E+03  0.64818371653E+03  0.91451246862E+02 0.  0.
         11    1    3    3    0    0  0.10671205509E+02 -0.18674116115E+02 -0.33774307914E+02  0.40041242672E+02  0.00000000000E+00 0.  1.
        -11    1    3    3    0    0 -0.45477388608E+02 -0.57048877824E+02  0.38270142968E+02  0.82385503447E+02  0.00000000000E+00 0. -1.
          2    1    5    5  502    0 -0.18078582736E+03 -0.92675497093E+01  0.98141834270E+03  0.99797363003E+03  0.00000000000E+00 0. -1.
          3    1    6    6  503    0  0.31388974816E+02  0.44898003264E+02  0.92705398811E+02  0.10768188987E+03  0.00000000000E+00 0. -1.
         -2    1    5    5    0  502 -0.11733413632E+03 -0.41532501728E+02  0.11647230686E+04  0.11713548032E+04  0.00000000000E+00 0.  1.
         -3    1    6    6    0  503  0.30153717196E+03  0.81625042112E+02  0.44108379142E+03  0.54050182667E+03  0.00000000000E+00 0.  1.
<mgrwt>
<rscale>  0 0.11987891E+04</rscale>
<asrwt>0</asrwt>
<pdfrwt beam="1">  1        2 0.43264344E+00 0.11987891E+04</pdfrwt>
<pdfrwt beam="2">  1       -2 0.19654807E-01 0.11987891E+04</pdfrwt>
<totfact> 0.49999023E+01</totfact>
</mgrwt>
</event>
<event>
12    1  0.4403484E-008  0.3130434E+04  0.7818608E-02  0.8207435E-01
         -2   -1    0    0    0  501 -0.00000000000E+00  0.00000000000E+00  0.12357626791E+04  0.12357626791E+04  0.00000000000E+00 0.  1.
          2   -1    0    0  501    0  0.00000000000E+00 -0.00000000000E+00 -0.19825034661E+04  0.19825034661E+04  0.00000000000E+00 0. -1.
         23    2    1    2    0    0  0.14018198515E+04 -0.24594067505E+02 -0.65164712850E+02  0.14064945834E+04  0.90976970558E+02 0.  0.
        254    2    1    2    0    0 -0.14018198515E+04  0.24594067505E+02 -0.68157607419E+03  0.18117715618E+04  0.92318280059E+03 0.  0.
         23    2    4    4    0    0 -0.20654557806E+03 -0.15095113512E+03  0.17946134062E+03  0.32533440638E+03  0.90491890175E+02 0.  0.
         23    2    4    4    0    0 -0.11952742734E+04  0.17554520263E+03 -0.86103741481E+03  0.14864371555E+04  0.92807761722E+02 0.  0.
         13    1    3    3    0    0  0.13761198918E+04 -0.22800006678E+02 -0.51360365108E+02  0.13772667439E+04  0.00000000000E+00 0. -1.
        -13    1    3    3    0    0  0.25699959683E+02 -0.17940608273E+01 -0.13804347742E+02  0.29227839444E+02  0.00000000000E+00 0.  1.
          1    1    5    5  502    0 -0.14741908728E+03 -0.56964253667E+02  0.12586469343E+03  0.20203770575E+03  0.00000000000E+00 0. -1.
          3    1    6    6  503    0 -0.84735635611E+03  0.99390881140E+02 -0.64883738233E+03  0.10718588014E+04  0.00000000000E+00 0. -1.
         -1    1    5    5    0  502 -0.59126490786E+02 -0.93986881458E+02  0.53596647185E+02  0.12329670064E+03  0.00000000000E+00 0.  1.
         -3    1    6    6    0  503 -0.34791791727E+03  0.76154321490E+02 -0.21220003248E+03  0.41457835402E+03  0.00000000000E+00 0.  1.
<mgrwt>
<rscale>  0 0.31304337E+04</rscale>
<asrwt>0</asrwt>
<pdfrwt beam="1">  1        2 0.30500053E+00 0.31304337E+04</pdfrwt>
<pdfrwt beam="2">  1       -2 0.19011733E+00 0.31304337E+04</pdfrwt>
<totfact> 0.89537298E-01</totfact>
</mgrwt>
</event>
<event>
12    1  0.4403484E-008  0.3272650E+04  0.7818608E-02  0.8169890E-01
          2   -1    0    0  501    0  0.00000000000E+00  0.00000000000E+00  0.33382767137E+04  0.33382767137E+04  0.00000000000E+00 0. -1.
         -2   -1    0    0    0  501 -0.00000000000E+00 -0.00000000000E+00 -0.80207828913E+03  0.80207828913E+03  0.00000000000E+00 0.  1.
         23    2    1    2    0    0  0.10262492522E+04 -0.79108534564E+03  0.21367660677E+04  0.25007112748E+04  0.93723531892E+02 0.  0.
        254    2    1    2    0    0 -0.10262492522E+04  0.79108534564E+03  0.39943235684E+03  0.16396437279E+04  0.92189033795E+03 0.  0.
         23    2    4    4    0    0  0.41000988689E+02  0.37602864935E+03  0.29087287765E+03  0.48575259050E+03  0.90939111578E+02 0.  0.
         23    2    4    4    0    0 -0.10672502409E+04  0.41505669629E+03  0.10855947919E+03  0.11538911374E+04  0.91566690347E+02 0.  0.
         13    1    3    3    0    0  0.94651551257E+03 -0.75312447091E+03  0.19618093188E+04  0.23047307625E+04  0.00000000000E+00 0. -1.
        -13    1    3    3    0    0  0.79733739613E+02 -0.37960874728E+02  0.17495674893E+03  0.19598051239E+03  0.00000000000E+00 0.  1.
          2    1    5    5  502    0 -0.53062675240E+01  0.29870408432E+03  0.22916394248E+03  0.37652144560E+03  0.00000000000E+00 0. -1.
          3    1    6    6  503    0 -0.10247097300E+04  0.40313101462E+03  0.86605279257E+02  0.11045565265E+04  0.00000000000E+00 0. -1.
         -2    1    5    5    0  502  0.46307256213E+02  0.77324565029E+02  0.61708935178E+02  0.10923114490E+03  0.00000000000E+00 0.  1.
         -3    1    6    6    0  503 -0.42540510847E+02  0.11925681669E+02  0.21954199929E+02  0.49334610984E+02  0.00000000000E+00 0.  1.
<mgrwt>
<rscale>  0 0.32726499E+04</rscale>
<asrwt>0</asrwt>
<pdfrwt beam="1">  1        2 0.51358103E+00 0.32726499E+04</pdfrwt>
<pdfrwt beam="2">  1       -2 0.12339666E+00 0.32726499E+04</pdfrwt>
<totfact> 0.43475310E-01</totfact>
</mgrwt>
</event>
<event>
12    1  0.4403484E-008  0.2142648E+04  0.7818608E-02  0.8542686E-01
          2   -1    0    0  501    0  0.00000000000E+00  0.00000000000E+00  0.11645627735E+04  0.11645627735E+04  0.00000000000E+00 0. -1.
         -2   -1    0    0    0  501 -0.00000000000E+00 -0.00000000000E+00 -0.98555061259E+03  0.98555061259E+03  0.00000000000E+00 0.  1.
         23    2    1    2    0    0 -0.35794746331E+03  0.62114920165E+03 -0.44071113901E+03  0.84647243909E+03  0.91304791206E+02 0.  0.
        254    2    1    2    0    0  0.35794746331E+03 -0.62114920165E+03  0.61972329992E+03  0.13036409470E+04  0.89524858729E+03 0.  0.
         23    2    4    4    0    0  0.53985216470E+03 -0.11285896137E+03  0.48474863280E+03  0.73980389813E+03  0.90283253101E+02 0.  0.
         23    2    4    4    0    0 -0.18190470139E+03 -0.50829024027E+03  0.13497466712E+03  0.56383704888E+03  0.90806212223E+02 0.  0.
         11    1    3    3    0    0 -0.29188042941E+03  0.48424036960E+03 -0.30361437627E+03  0.64176678794E+03  0.00000000000E+00 0. -1.
        -11    1    3    3    0    0 -0.66067033904E+02  0.13690883204E+03 -0.13709676273E+03  0.20470565115E+03  0.00000000000E+00 0.  1.
          4    1    5    5  502    0  0.47958310954E+03 -0.72940397454E+02  0.43903928371E+03  0.65427498285E+03  0.00000000000E+00 0. -1.
          1    1    6    6  503    0 -0.10888918103E+03 -0.28930151225E+03  0.12299470002E+03  0.33268591038E+03  0.00000000000E+00 0. -1.
         -4    1    5    5    0  502  0.60269055161E+02 -0.39918563918E+02  0.45709349090E+02  0.85528915283E+02  0.00000000000E+00 0.  1.
         -1    1    6    6    0  503 -0.73015520362E+02 -0.21898872803E+03  0.11979967100E+02  0.23115113850E+03  0.00000000000E+00 0.  1.
<mgrwt>
<rscale>  0 0.21426484E+04</rscale>
<asrwt>0</asrwt>
<pdfrwt beam="1">  1        2 0.17916350E+00 0.21426484E+04</pdfrwt>
<pdfrwt beam="2">  1       -2 0.15162317E+00 0.21426484E+04</pdfrwt>
<totfact> 0.53197453E+00</totfact>
</mgrwt>
</event>
<event>
12    1  0.4403484E-008  0.1575775E+04  0.7818608E-02  0.8835570E-01
          2   -1    0    0  501    0  0.00000000000E+00  0.00000000000E+00  0.26920830576E+04  0.26920830576E+04  0.00000000000E+00 0. -1.
         -2   -1    0    0    0  501 -0.00000000000E+00 -0.00000000000E+00 -0.23058976177E+03  0.23058976177E+03  0.00000000000E+00 0.  1.
         23    2    1    2    0    0 -0.36915136091E+03 -0.36959990240E+03  0.78344382282E+03  0.94598654053E+03  0.90716570966E+02 0.  0.
        254    2    1    2    0    0  0.36915136091E+03  0.36959990240E+03  0.16780494730E+04  0.19766862788E+04  0.90474404994E+03 0.  0.
         23    2    4    4    0    0 -0.12259026169E+03  0.44652087953E+03  0.46713374053E+03  0.66423731778E+03  0.92671541887E+02 0.  0.
         23    2    4    4    0    0  0.49174162260E+03 -0.76920977138E+02  0.12109157324E+04  0.13124489610E+04  0.92079878611E+02 0.  0.
         13    1    3    3    0    0 -0.93689158734E+02 -0.75347235370E+02  0.12114694188E+03  0.17067936568E+03  0.00000000000E+00 0.  1.
        -13    1    3    3    0    0 -0.27546220218E+03 -0.29425266703E+03  0.66229688094E+03  0.77530717486E+03  0.00000000000E+00 0. -1.
          4    1    5    5  502    0 -0.27584505215E+02  0.30107611511E+02  0.69899451693E+02  0.80952495612E+02  0.00000000000E+00 0. -1.
          1    1    6    6  503    0  0.66383300708E+02 -0.34014566068E+02  0.12722687982E+03  0.14748020974E+03  0.00000000000E+00 0. -1.
         -4    1    5    5    0  502 -0.95005756475E+02  0.41641326802E+03  0.39723428883E+03  0.58328482217E+03  0.00000000000E+00 0.  1.
         -1    1    6    6    0  503  0.42535832190E+03 -0.42906411070E+02  0.10836888526E+04  0.11649687513E+04  0.00000000000E+00 0.  1.
<mgrwt>
<rscale>  0 0.15757751E+04</rscale>
<asrwt>0</asrwt>
<pdfrwt beam="1">  1        2 0.41416660E+00 0.15757751E+04</pdfrwt>
<pdfrwt beam="2">  1       -2 0.35475350E-01 0.15757751E+04</pdfrwt>
<totfact> 0.19321848E+01</totfact>
</mgrwt>
</event>
<event>
12    1  0.4403484E-008  0.2272384E+04  0.7818608E-02  0.8488890E-01
         -2   -1    0    0    0  501 -0.00000000000E+00  0.00000000000E+00  0.68962785108E+03  0.68962785108E+03  0.00000000000E+00 0.  1.
          2   -1    0    0  501    0  0.00000000000E+00 -0.00000000000E+00 -0.18719253916E+04  0.18719253916E+04  0.00000000000E+00 0. -1.
         23    2    1    2    0    0  0.21629235866E+03 -0.64545875935E+03  0.25292584430E+03  0.73193552615E+03  0.91426130223E+02 0.  0.
        254    2    1    2    0    0 -0.21629235866E+03  0.64545875935E+03 -0.14352233849E+04  0.18296177166E+04  0.90787412668E+03 0.  0.
         23    2    4    4    0    0 -0.17278379945E+03  0.53327065121E+03 -0.22587242170E+03  0.61093220562E+03  0.89375500992E+02 0.  0.
         23    2    4    4    0    0 -0.43508559211E+02  0.11218810813E+03 -0.12093509632E+04  0.12186855110E+04  0.90473510888E+02 0.  0.
         13    1    3    3    0    0  0.33560746795E+02 -0.16884702974E+03  0.99963501662E+02  0.19906869377E+03  0.00000000000E+00 0. -1.
        -13    1    3    3    0    0  0.18273161187E+03 -0.47661172961E+03  0.15296234264E+03  0.53286683237E+03  0.00000000000E+00 0.  1.
          2    1    5    5  502    0  0.54908072964E+01  0.51922240438E+02 -0.36968108827E+02  0.63974284577E+02  0.00000000000E+00 0.  1.
          3    1    6    6  503    0 -0.66654239745E+02  0.80187484886E+02 -0.10163644211E+04  0.10216992986E+04  0.00000000000E+00 0. -1.
         -2    1    5    5    0  502 -0.17827460675E+03  0.48134841078E+03 -0.18890431287E+03  0.54695792104E+03  0.00000000000E+00 0. -1.
         -3    1    6    6    0  503  0.23145680534E+02  0.32000623248E+02 -0.19298654210E+03  0.19698621233E+03  0.00000000000E+00 0.  1.
<mgrwt>
<rscale>  0 0.22723837E+04</rscale>
<asrwt>0</asrwt>
<pdfrwt beam="1">  1        2 0.28798852E+00 0.22723837E+04</pdfrwt>
<pdfrwt beam="2">  1       -2 0.10609659E+00 0.22723837E+04</pdfrwt>
<totfact> 0.51275405E+00</totfact>
</mgrwt>
</event>
<event>
12    1  0.4403484E-008  0.2447734E+04  0.7818608E-02  0.8421846E-01
         -2   -1    0    0    0  501 -0.00000000000E+00  0.00000000000E+00  0.15092710351E+04  0.15092710351E+04  0.00000000000E+00 0.  1.
          2   -1    0    0  501    0  0.00000000000E+00 -0.00000000000E+00 -0.99243335331E+03  0.99243335331E+03  0.00000000000E+00 0. -1.
         23    2    1    2    0    0  0.14346880994E+03  0.61888358551E+03  0.10848618290E+04  0.12604806627E+04  0.91028134153E+02 0.  0.
        254    2    1    2    0    0 -0.14346880994E+03 -0.61888358551E+03 -0.56802414720E+03  0.12412237257E+04  0.90243266430E+03 0.  0.
         23    2    4    4    0    0  0.14469450397E+03 -0.59590684249E+03 -0.27036947574E+02  0.62079225825E+03  0.92793140719E+02 0.  0.
         23    2    4    4    0    0 -0.28816331390E+03 -0.22976743023E+02 -0.54098719963E+03  0.62043146745E+03  0.93284668855E+02 0.  0.
         13    1    3    3    0    0  0.73108860954E+02  0.21244092710E+03  0.45706883960E+03  0.50930146003E+03  0.00000000000E+00 0. -1.
        -13    1    3    3    0    0  0.70359948982E+02  0.40644265841E+03  0.62779298938E+03  0.75117920267E+03  0.00000000000E+00 0.  1.
          2    1    5    5  502    0  0.15426896870E+03 -0.58560349075E+03 -0.22452317957E+02  0.60599873735E+03  0.00000000000E+00 0. -1.
          4    1    6    6  503    0 -0.28811718044E+03 -0.28832450857E+02 -0.54199185212E+03  0.61449002242E+03  0.00000000000E+00 0. -1.
         -2    1    5    5    0  502 -0.95744647344E+01 -0.10303351740E+02 -0.45846296164E+01  0.14793520904E+02  0.00000000000E+00 0.  1.
         -4    1    6    6    0  503 -0.46133462675E-01  0.58557078340E+01  0.10046524856E+01  0.59414450389E+01  0.00000000000E+00 0.  1.
<mgrwt>
<rscale>  0 0.24477344E+04</rscale>
<asrwt>0</asrwt>
<pdfrwt beam="1">  1        2 0.15268205E+00 0.24477344E+04</pdfrwt>
<pdfrwt beam="2">  1       -2 0.23219554E+00 0.24477344E+04</pdfrwt>
<totfact> 0.18897398E+00</totfact>
</mgrwt>
</event>
<event>
12    1  0.4403484E-008  0.1964211E+04  0.7818608E-02  0.8623538E-01
         -2   -1    0    0    0  501 -0.00000000000E+00  0.00000000000E+00  0.71070860519E+03  0.71070860519E+03  0.00000000000E+00 0. -1.
          2   -1    0    0  501    0  0.00000000000E+00 -0.00000000000E+00 -0.13571401030E+04  0.13571401030E+04  0.00000000000E+00 0.  1.
         23    2    1    2    0    0  0.72712942964E+03 -0.15178776904E+03 -0.19109019739E+02  0.74879189828E+03  0.92560348004E+02 0.  0.
        254    2    1    2    0    0 -0.72712942964E+03  0.15178776904E+03 -0.62732247810E+03  0.13190568099E+04  0.89141496625E+03 0.  0.
         23    2    4    4    0    0  0.56821759270E+02  0.23249332797E+03 -0.43207729321E+03  0.50212268118E+03  0.90302490396E+02 0.  0.
         23    2    4    4    0    0 -0.78395118891E+03 -0.80705558929E+02 -0.19524518489E+03  0.81693412876E+03  0.90376073605E+02 0.  0.
         11    1    3    3    0    0  0.41675488326E+03 -0.69088974842E+02 -0.53222711788E+02  0.42578231083E+03  0.00000000000E+00 0.  1.
        -11    1    3    3    0    0  0.31037454638E+03 -0.82698794196E+02  0.34113692049E+02  0.32300958746E+03  0.00000000000E+00 0. -1.
          2    1    5    5  502    0  0.56502390301E+00  0.10726940374E+03 -0.11866866348E+03  0.15996654626E+03  0.00000000000E+00 0. -1.
          4    1    6    6  503    0 -0.34185948165E+03  0.45826689063E+01 -0.62755922168E+02  0.34760208833E+03  0.00000000000E+00 0. -1.
         -2    1    5    5    0  502  0.56256735367E+02  0.12522392423E+03 -0.31340862974E+03  0.34215613493E+03  0.00000000000E+00 0.  1.
         -4    1    6    6    0  503 -0.44209170726E+03 -0.85288227835E+02 -0.13248926272E+03  0.46933204042E+03  0.00000000000E+00 0.  1.
<mgrwt>
<rscale>  0 0.19642109E+04</rscale>
<asrwt>0</asrwt>
<pdfrwt beam="1">  1        2 0.20879078E+00 0.19642109E+04</pdfrwt>
<pdfrwt beam="2">  1       -2 0.10933979E+00 0.19642109E+04</pdfrwt>
<totfact> 0.95152813E+00</totfact>
</mgrwt>
</event>
<event>
12    1  0.4403484E-008  0.1193080E+04  0.7818608E-02  0.9118935E-01
          1   -1    0    0  501    0  0.00000000000E+00  0.00000000000E+00  0.14220513899E+04  0.14220513899E+04  0.00000000000E+00 0. -1.
         -1   -1    0    0    0  501 -0.00000000000E+00 -0.00000000000E+00 -0.25024407326E+03  0.25024407326E+03  0.00000000000E+00 0.  1.
         23    2    1    2    0    0 -0.11512605160E+03 -0.11376694895E+03  0.52403599299E+03  0.55628723038E+03  0.92977601080E+02 0.  0.
        254    2    1    2    0    0  0.11512605160E+03  0.11376694895E+03  0.64777132369E+03  0.11160082328E+04  0.89424256301E+03 0.  0.
         23    2    4    4    0    0  0.22822172186E+03  0.45325525099E+02 -0.15788238764E+03  0.29495920345E+03  0.89075955349E+02 0.  0.
         23    2    4    4    0    0 -0.11309567025E+03  0.68441423853E+02  0.80565371133E+03  0.82104902938E+03  0.86998545572E+02 0.  0.
         11    1    3    3    0    0 -0.54356765586E+02 -0.49696450399E+01  0.23978479954E+03  0.24591890010E+03  0.00000000000E+00 0.  1.
        -11    1    3    3    0    0 -0.60769286016E+02 -0.10879730391E+03  0.28425119345E+03  0.31036833027E+03  0.00000000000E+00 0. -1.
          2    1    5    5  502    0  0.29714181912E+01 -0.15444685818E+02 -0.12216493719E+02  0.19915078832E+02  0.00000000000E+00 0. -1.
          2    1    6    6  503    0 -0.37218384761E+02  0.71899379362E+02  0.36228759165E+03  0.37122368996E+03  0.00000000000E+00 0.  1.
         -2    1    5    5    0  502  0.22525030366E+03  0.60770210917E+02 -0.14566589392E+03  0.27504412462E+03  0.00000000000E+00 0.  1.
         -2    1    6    6    0  503 -0.75877285493E+02 -0.34579555087E+01  0.44336611967E+03  0.44982533942E+03  0.00000000000E+00 0. -1.
<mgrwt>
<rscale>  0 0.11930799E+04</rscale>
<asrwt>0</asrwt>
<pdfrwt beam="1">  1        1 0.21877713E+00 0.11930799E+04</pdfrwt>
<pdfrwt beam="2">  1       -1 0.38499089E-01 0.11930799E+04</pdfrwt>
<totfact> 0.47934107E+01</totfact>
</mgrwt>
</event>
<event>
12    1  0.4403484E-008  0.2036045E+04  0.7818608E-02  0.8589952E-01
          2   -1    0    0  501    0  0.00000000000E+00  0.00000000000E+00  0.17789424273E+04  0.17789424273E+04  0.00000000000E+00 0. -1.
         -2   -1    0    0    0  501 -0.00000000000E+00 -0.00000000000E+00 -0.58257608065E+03  0.58257608065E+03  0.00000000000E+00 0.  1.
         23    2    1    2    0    0  0.25211957903E+03 -0.43991729585E+03  0.12339209878E+04  0.13370450368E+04  0.89648853339E+02 0.  0.
        254    2    1    2    0    0 -0.25211957903E+03  0.43991729585E+03 -0.37554641201E+02  0.10244734711E+04  0.88940656207E+03 0.  0.
         23    2    4    4    0    0 -0.36950257108E+03  0.65462251711E+03  0.17817645458E+02  0.75761040044E+03  0.92699840489E+02 0.  0.
         23    2    4    4    0    0  0.11738299205E+03 -0.21470522126E+03 -0.55372286659E+02  0.26686307068E+03  0.90954436416E+02 0.  0.
         11    1    3    3    0    0  0.24782628577E+02 -0.16634774584E+02  0.38747361716E+02  0.48910657781E+02  0.00000000000E+00 0.  1.
        -11    1    3    3    0    0  0.22733695045E+03 -0.42328252126E+03  0.11951736261E+04  0.12881343790E+04  0.00000000000E+00 0. -1.
          1    1    5    5  502    0 -0.18078065480E+02  0.36309899674E+02 -0.20357893126E+02  0.45383577188E+02  0.00000000000E+00 0. -1.
          3    1    6    6  503    0  0.92045441635E+02 -0.99441053999E+02  0.22716010076E+01  0.13552138841E+03  0.00000000000E+00 0. -1.
         -1    1    5    5    0  502 -0.35142450560E+03  0.61831261744E+03  0.38175538585E+02  0.71222682326E+03  0.00000000000E+00 0.  1.
         -3    1    6    6    0  503  0.25337550418E+02 -0.11526416727E+03 -0.57643887667E+02  0.13134168227E+03  0.00000000000E+00 0.  1.
<mgrwt>
<rscale>  0 0.20360445E+04</rscale>
<asrwt>0</asrwt>
<pdfrwt beam="1">  1        2 0.27368345E+00 0.20360445E+04</pdfrwt>
<pdfrwt beam="2">  1       -2 0.89627090E-01 0.20360445E+04</pdfrwt>
<totfact> 0.87612553E+00</totfact>
</mgrwt>
</event>
<event>
12    1  0.4403484E-008  0.1936339E+04  0.7818608E-02  0.8636977E-01
         -2   -1    0    0    0  501 -0.00000000000E+00  0.00000000000E+00  0.11662779182E+04  0.11662779182E+04  0.00000000000E+00 0. -1.
          2   -1    0    0  501    0  0.00000000000E+00 -0.00000000000E+00 -0.80371264284E+03  0.80371264284E+03  0.00000000000E+00 0.  1.
         23    2    1    2    0    0 -0.28457780022E+03  0.59386966368E+03 -0.25262403961E+03  0.71101083448E+03  0.89731820156E+02 0.  0.
        254    2    1    2    0    0  0.28457780022E+03 -0.59386966368E+03  0.61518931492E+03  0.12589797265E+04  0.87915092946E+03 0.  0.
         23    2    4    4    0    0 -0.30767996783E+02 -0.31696892424E+02  0.59920006949E+03  0.60761206252E+03  0.90555687996E+02 0.  0.
         23    2    4    4    0    0  0.31534579700E+03 -0.56217277126E+03  0.15989245429E+02  0.65136766399E+03  0.92428249456E+02 0.  0.
         11    1    3    3    0    0 -0.44692168706E+01  0.21918664453E+00  0.42046815712E+01  0.61401375666E+01  0.00000000000E+00 0. -1.
        -11    1    3    3    0    0 -0.28010858335E+03  0.59365047703E+03 -0.25682872118E+03  0.70487069692E+03  0.00000000000E+00 0.  1.
          2    1    5    5  502    0  0.18197745278E+02 -0.72226141150E+01  0.30240697450E+02  0.36025322623E+02  0.00000000000E+00 0. -1.
          4    1    6    6  503    0  0.21738388414E+03 -0.30125449892E+03 -0.84767834640E+01  0.37159370562E+03  0.00000000000E+00 0.  1.
         -2    1    5    5    0  502 -0.48965742061E+02 -0.24474278309E+02  0.56895937204E+03  0.57158673990E+03  0.00000000000E+00 0.  1.
         -4    1    6    6    0  503  0.97961912864E+02 -0.26091827234E+03  0.24466028893E+02  0.27977395837E+03  0.00000000000E+00 0. -1.
<mgrwt>
<rscale>  0 0.19363391E+04</rscale>
<asrwt>0</asrwt>
<pdfrwt beam="1">  1        2 0.12364810E+00 0.19363391E+04</pdfrwt>
<pdfrwt beam="2">  1       -2 0.17942737E+00 0.19363391E+04</pdfrwt>
<totfact> 0.58470067E+00</totfact>
</mgrwt>
</event>
<event>
12    1  0.4403484E-008  0.1446061E+04  0.7818608E-02  0.8921136E-01
         -1   -1    0    0    0  501 -0.00000000000E+00  0.00000000000E+00  0.17189541861E+04  0.17189541861E+04  0.00000000000E+00 0.  1.
          1   -1    0    0  501    0  0.00000000000E+00 -0.00000000000E+00 -0.30412265321E+03  0.30412265321E+03  0.00000000000E+00 0. -1.
         23    2    1    2    0    0 -0.36118154212E+03  0.56068438761E+01  0.75421088663E+03  0.84124115832E+03  0.91482686154E+02 0.  0.
        254    2    1    2    0    0  0.36118154212E+03 -0.56068438761E+01  0.66062064623E+03  0.11818356810E+04  0.91095136836E+03 0.  0.
         23    2    4    4    0    0 -0.23597943437E+03  0.18584347370E+03  0.36369929267E+03  0.48050781129E+03  0.91577786960E+02 0.  0.
         23    2    4    4    0    0  0.59716097649E+03 -0.19145031758E+03  0.29692135356E+03  0.70132786967E+03  0.10219605979E+03 0.  0.
         11    1    3    3    0    0 -0.33638802207E+03 -0.98482430354E+01  0.63686656777E+03  0.72031445524E+03  0.00000000000E+00 0. -1.
        -11    1    3    3    0    0 -0.24793520045E+02  0.15455086911E+02  0.11734431886E+03  0.12092670307E+03  0.00000000000E+00 0.  1.
          4    1    5    5  502    0  0.11416726162E+01  0.97707804604E+01 -0.24026628181E+01  0.10126418705E+02  0.00000000000E+00 0. -1.
          1    1    6    6  503    0  0.18750454218E+03 -0.14584410167E+02  0.69439762331E+02  0.20048076952E+03  0.00000000000E+00 0. -1.
         -4    1    5    5    0  502 -0.23712110699E+03  0.17607269324E+03  0.36610195548E+03  0.47038139259E+03  0.00000000000E+00 0.  1.
         -1    1    6    6    0  503  0.40965643431E+03 -0.17686590741E+03  0.22748159123E+03  0.50084710015E+03  0.00000000000E+00 0.  1.
<mgrwt>
<rscale>  0 0.14460607E+04</rscale>
<asrwt>0</asrwt>
<pdfrwt beam="1">  1        1 0.46788101E-01 0.14460607E+04</pdfrwt>
<pdfrwt beam="2">  1       -1 0.26445448E+00 0.14460607E+04</pdfrwt>
<totfact> 0.47032321E+00</totfact>
</mgrwt>
</event>
<event>
12    1  0.4403484E-008  0.1461397E+04  0.7818608E-02  0.8910537E-01
          1   -1    0    0  501    0  0.00000000000E+00  0.00000000000E+00  0.17679202635E+04  0.17679202635E+04  0.00000000000E+00 0. -1.
         -1   -1    0    0    0  501 -0.00000000000E+00 -0.00000000000E+00 -0.30200464450E+03  0.30200464450E+03  0.00000000000E+00 0.  1.
         23    2    1    2    0    0 -0.42162366839E+03  0.64396644971E+02  0.66428795109E+03  0.79464644216E+03  0.90945260688E+02 0.  0.
        254    2    1    2    0    0  0.42162366839E+03 -0.64396644971E+02  0.80162766796E+03  0.12752784659E+04  0.89544112140E+03 0.  0.
         23    2    4    4    0    0  0.61175554558E+03 -0.18469811356E+03  0.80416220513E+03  0.10311626087E+04  0.90891324005E+02 0.  0.
         23    2    4    4    0    0 -0.19013187719E+03  0.12030146859E+03 -0.25345371631E+01  0.24411585717E+03  0.94676046467E+02 0.  0.
         11    1    3    3    0    0 -0.32606583425E+02 -0.17241155583E+02  0.78447285554E+02  0.86685773569E+02  0.00000000000E+00 0.  1.
        -11    1    3    3    0    0 -0.38901708496E+03  0.81637800554E+02  0.58584066553E+03  0.70796066859E+03  0.00000000000E+00 0. -1.
          3    1    5    5  502    0  0.10537022627E+03 -0.65478679771E+02  0.18026486986E+03  0.21882816408E+03  0.00000000000E+00 0. -1.
          3    1    6    6  503    0  0.84897196572E+01  0.78100103152E+01 -0.10659247502E+02  0.15706405008E+02  0.00000000000E+00 0. -1.
         -3    1    5    5    0  502  0.50638531931E+03 -0.11921943379E+03  0.62389733526E+03  0.81233444464E+03  0.00000000000E+00 0.  1.
         -3    1    6    6    0  503 -0.19862159685E+03  0.11249145827E+03  0.81247103388E+01  0.22840945216E+03  0.00000000000E+00 0.  1.
<mgrwt>
<rscale>  0 0.14613968E+04</rscale>
<asrwt>0</asrwt>
<pdfrwt beam="1">  1        1 0.27198773E+00 0.14613968E+04</pdfrwt>
<pdfrwt beam="2">  1       -1 0.46462254E-01 0.14613968E+04</pdfrwt>
<totfact> 0.19177179E+01</totfact>
</mgrwt>
</event>
<event>
12    1  0.4403484E-008  0.1266504E+04  0.7818608E-02  0.9056558E-01
         -2   -1    0    0    0  501 -0.00000000000E+00  0.00000000000E+00  0.23457284034E+04  0.23457284034E+04  0.00000000000E+00 0.  1.
          2   -1    0    0  501    0  0.00000000000E+00 -0.00000000000E+00 -0.17095240221E+03  0.17095240221E+03  0.00000000000E+00 0. -1.
         23    2    1    2    0    0  0.20046865208E+03 -0.20918797328E+03  0.70534861964E+03  0.76823877131E+03  0.93417588745E+02 0.  0.
        254    2    1    2    0    0 -0.20046865208E+03  0.20918797328E+03  0.14694273815E+04  0.17484420343E+04  0.90215598929E+03 0.  0.
         23    2    4    4    0    0  0.32794168352E+03 -0.46073437617E+02  0.41761367739E+03  0.54064874114E+03  0.90726888528E+02 0.  0.
         23    2    4    4    0    0 -0.52841033560E+03  0.25526141090E+03  0.10518137041E+04  0.12077932932E+04  0.89870462834E+02 0.  0.
         11    1    3    3    0    0  0.11141889975E+03 -0.11547549045E+03  0.26981946716E+03  0.31392882151E+03  0.00000000000E+00 0. -1.
        -11    1    3    3    0    0  0.89049752326E+02 -0.93712482830E+02  0.43552915248E+03  0.45430994980E+03  0.00000000000E+00 0.  1.
          4    1    5    5  502    0  0.18645485257E+03  0.18823065727E+02  0.21679108314E+03  0.28656254741E+03  0.00000000000E+00 0. -1.
          3    1    6    6  503    0 -0.35862037475E+03  0.14680214829E+03  0.76140290821E+03  0.85433824248E+03  0.00000000000E+00 0. -1.
         -4    1    5    5    0  502  0.14148683096E+03 -0.64896503344E+02  0.20082259426E+03  0.25408619373E+03  0.00000000000E+00 0.  1.
         -3    1    6    6    0  503 -0.16978996085E+03  0.10845926261E+03  0.29041079594E+03  0.35345505067E+03  0.00000000000E+00 0.  1.
<mgrwt>
<rscale>  0 0.12665037E+04</rscale>
<asrwt>0</asrwt>
<pdfrwt beam="1">  1        2 0.26300371E-01 0.12665037E+04</pdfrwt>
<pdfrwt beam="2">  1       -2 0.36088127E+00 0.12665037E+04</pdfrwt>
<totfact> 0.27352020E+00</totfact>
</mgrwt>
</event>
<event>
12    1  0.4403484E-008  0.1409697E+04  0.7818608E-02  0.8946829E-01
          1   -1    0    0  501    0  0.00000000000E+00  0.00000000000E+00  0.79779397303E+03  0.79779397303E+03  0.00000000000E+00 0. -1.
         -1   -1    0    0    0  501 -0.00000000000E+00 -0.00000000000E+00 -0.62273187496E+03  0.62273187496E+03  0.00000000000E+00 0.  1.
         23    2    1    2    0    0 -0.16042056698E+02  0.35041582962E+03 -0.16647493769E+03  0.39883034807E+03  0.91121569533E+02 0.  0.
        254    2    1    2    0    0  0.16042056698E+02 -0.35041582962E+03  0.34153703576E+03  0.10216954999E+04  0.89675277894E+03 0.  0.
         23    2    4    4    0    0 -0.40823469236E+03 -0.27138812064E+02  0.12499383494E+03  0.43708517170E+03  0.89598601449E+02 0.  0.
         23    2    4    4    0    0  0.42427674906E+03 -0.32327701755E+03  0.21654320082E+03  0.58461032822E+03  0.10178157092E+03 0.  0.
         13    1    3    3    0    0  0.23335948867E+01  0.35838256625E+02  0.10504196266E+02  0.37418771254E+02  0.00000000000E+00 0. -1.
        -13    1    3    3    0    0 -0.18375651585E+02  0.31457757299E+03 -0.17697913396E+03  0.36141157682E+03  0.00000000000E+00 0.  1.
          4    1    5    5  502    0 -0.17729095636E+03  0.32171445657E+02  0.60618412200E+02  0.19010964473E+03  0.00000000000E+00 0. -1.
          4    1    6    6  503    0  0.32910136933E+03 -0.19267659889E+03  0.15639471077E+03  0.41217870956E+03  0.00000000000E+00 0.  1.
         -4    1    5    5    0  502 -0.23094373600E+03 -0.59310257720E+02  0.64375422739E+02  0.24697552697E+03  0.00000000000E+00 0.  1.
         -4    1    6    6    0  503  0.95175379721E+02 -0.13060041867E+03  0.60148490052E+02  0.17243161867E+03  0.00000000000E+00 0. -1.
<mgrwt>
<rscale>  0 0.14096975E+04</rscale>
<asrwt>0</asrwt>
<pdfrwt beam="1">  1        1 0.12273753E+00 0.14096975E+04</pdfrwt>
<pdfrwt beam="2">  1       -1 0.95804904E-01 0.14096975E+04</pdfrwt>
<totfact> 0.22741840E+01</totfact>
</mgrwt>
</event>
<event>
12    1  0.4403484E-008  0.3180551E+04  0.7818608E-02  0.8193972E-01
          1   -1    0    0  501    0  0.00000000000E+00  0.00000000000E+00  0.24754046921E+04  0.24754046921E+04  0.00000000000E+00 0. -1.
         -1   -1    0    0    0  501 -0.00000000000E+00 -0.00000000000E+00 -0.10216417658E+04  0.10216417658E+04  0.00000000000E+00 0.  1.
         23    2    1    2    0    0 -0.50791561111E+03 -0.13780765259E+04  0.64181493651E+03  0.16054121779E+04  0.91371050838E+02 0.  0.
        254    2    1    2    0    0  0.50791561111E+03  0.13780765259E+04  0.81194798979E+03  0.18916342800E+04  0.87289606010E+03 0.  0.
         23    2    4    4    0    0  0.26917736446E+03  0.87459843235E+03  0.21086190956E+02  0.91992787922E+03  0.91890174167E+02 0.  0.
         23    2    4    4    0    0  0.23873824665E+03  0.50347809355E+03  0.79086179884E+03  0.97170640074E+03  0.90910963472E+02 0.  0.
         11    1    3    3    0    0 -0.47263344330E+03 -0.13277830134E+04  0.62471531049E+03  0.15416417617E+04  0.00000000000E+00 0. -1.
        -11    1    3    3    0    0 -0.35282167813E+02 -0.50293512547E+02  0.17099626020E+02  0.63770416181E+02  0.00000000000E+00 0.  1.
          2    1    5    5  502    0  0.25050207690E+03  0.81070730020E+03 -0.47094367185E+01  0.84853980221E+03  0.00000000000E+00 0.  1.
          1    1    6    6  503    0  0.36513168996E+02  0.28271125347E+02  0.89554051483E+02  0.10075909972E+03  0.00000000000E+00 0. -1.
         -2    1    5    5    0  502  0.18675287565E+02  0.63891132142E+02  0.25795627674E+02  0.71388077010E+02  0.00000000000E+00 0. -1.
         -1    1    6    6    0  503  0.20222507766E+03  0.47520696821E+03  0.70130774736E+03  0.87094730103E+03  0.00000000000E+00 0.  1.
<mgrwt>
<rscale>  0 0.31805514E+04</rscale>
<asrwt>0</asrwt>
<pdfrwt beam="1">  1        1 0.38083149E+00 0.31805514E+04</pdfrwt>
<pdfrwt beam="2">  1       -1 0.15717566E+00 0.31805514E+04</pdfrwt>
<totfact> 0.36249899E-01</totfact>
</mgrwt>
</event>
<event>
12    1  0.4403484E-008  0.1643787E+04  0.7818608E-02  0.8794090E-01
          2   -1    0    0  501    0  0.00000000000E+00  0.00000000000E+00  0.16823133479E+04  0.16823133479E+04  0.00000000000E+00 0. -1.
         -2   -1    0    0    0  501 -0.00000000000E+00 -0.00000000000E+00 -0.40153596243E+03  0.40153596243E+03  0.00000000000E+00 0.  1.
         23    2    1    2    0    0  0.82733839614E+02 -0.50118234375E+03  0.81984820485E+03  0.96874517911E+03  0.91035779431E+02 0.  0.
        254    2    1    2    0    0 -0.82733839614E+02  0.50118234375E+03  0.46092918065E+03  0.11151041313E+04  0.87918876474E+03 0.  0.
         23    2    4    4    0    0  0.22572174584E+03 -0.45640067272E+02  0.40909778763E+03  0.47763451496E+03  0.87979587142E+02 0.  0.
         23    2    4    4    0    0 -0.30845558545E+03  0.54682241102E+03  0.51831393022E+02  0.63746961629E+03  0.97577768974E+02 0.  0.
         13    1    3    3    0    0  0.13872157286E+02 -0.32884940442E+02  0.24792558122E+02  0.43457185756E+02  0.00000000000E+00 0.  1.
        -13    1    3    3    0    0  0.68861682327E+02 -0.46829740331E+03  0.79505564673E+03  0.92528799335E+03  0.00000000000E+00 0. -1.
          2    1    5    5  502    0  0.13827664463E+01 -0.19261204575E+02  0.20560828866E+02  0.28207334655E+02  0.00000000000E+00 0. -1.
          3    1    6    6  503    0 -0.10322031508E+03  0.10723630820E+03  0.30042439961E+02  0.15184402339E+03  0.00000000000E+00 0. -1.
         -2    1    5    5    0  502  0.22433897939E+03 -0.26378862697E+02  0.38853695876E+03  0.44942718030E+03  0.00000000000E+00 0.  1.
         -3    1    6    6    0  503 -0.20523527037E+03  0.43958610283E+03  0.21788953062E+02  0.48562559290E+03  0.00000000000E+00 0.  1.
<mgrwt>
<rscale>  0 0.16437875E+04</rscale>
<asrwt>0</asrwt>
<pdfrwt beam="1">  1        2 0.25881743E+00 0.16437875E+04</pdfrwt>
<pdfrwt beam="2">  1       -2 0.61774764E-01 0.16437875E+04</pdfrwt>
<totfact> 0.23338180E+01</totfact>
</mgrwt>
</event>
<event>
12    1  0.4403484E-008  0.1840221E+04  0.7818608E-02  0.8685198E-01
         -2   -1    0    0    0  501 -0.00000000000E+00  0.00000000000E+00  0.81819656935E+03  0.81819656935E+03  0.00000000000E+00 0.  1.
          2   -1    0    0  501    0  0.00000000000E+00 -0.00000000000E+00 -0.10347186175E+04  0.10347186175E+04  0.00000000000E+00 0. -1.
         23    2    1    2    0    0  0.47387114070E+03  0.15759531775E+02 -0.59215535328E+03  0.76381442359E+03  0.89231667242E+02 0.  0.
        254    2    1    2    0    0 -0.47387114070E+03 -0.15759531775E+02  0.37563330511E+03  0.10891007633E+04  0.90566984704E+03 0.  0.
         23    2    4    4    0    0  0.63130606540E+01 -0.38854044460E+03  0.80691383374E+02  0.40743294672E+03  0.92124778966E+02 0.  0.
         23    2    4    4    0    0 -0.48018420135E+03  0.37278091282E+03  0.29494192174E+03  0.68166781656E+03  0.90209748605E+02 0.  0.
         13    1    3    3    0    0  0.36230362512E+03  0.26306929434E+02 -0.50381797059E+03  0.62111876384E+03  0.00000000000E+00 0. -1.
        -13    1    3    3    0    0  0.11156751558E+03 -0.10547397658E+02 -0.88337382690E+02  0.14269565975E+03  0.00000000000E+00 0.  1.
          4    1    5    5  502    0 -0.16001836781E+01 -0.38838023064E+03  0.70832117936E+02  0.39478975806E+03  0.00000000000E+00 0. -1.
          3    1    6    6  503    0 -0.46935165885E+03  0.34165562479E+03  0.26952862737E+03  0.64005095624E+03  0.00000000000E+00 0. -1.
         -4    1    5    5    0  502  0.79132443321E+01 -0.16021395368E+00  0.98592654376E+01  0.12643188654E+02  0.00000000000E+00 0.  1.
         -3    1    6    6    0  503 -0.10832542501E+02  0.31125288027E+02  0.25413294366E+02  0.41616860313E+02  0.00000000000E+00 0.  1.
<mgrwt>
<rscale>  0 0.18402209E+04</rscale>
<asrwt>0</asrwt>
<pdfrwt beam="1">  1        2 0.15918748E+00 0.18402209E+04</pdfrwt>
<pdfrwt beam="2">  1       -2 0.12587640E+00 0.18402209E+04</pdfrwt>
<totfact> 0.10612159E+01</totfact>
</mgrwt>
</event>
<event>
12    1  0.4403484E-008  0.1311820E+04  0.7818608E-02  0.9020244E-01
         -2   -1    0    0    0  501 -0.00000000000E+00  0.00000000000E+00  0.18764200280E+03  0.18764200280E+03  0.00000000000E+00 0.  1.
          2   -1    0    0  501    0  0.00000000000E+00 -0.00000000000E+00 -0.22927580131E+04  0.22927580131E+04  0.00000000000E+00 0. -1.
         23    2    1    2    0    0  0.46888119576E+02 -0.76899197051E+02 -0.11844126644E+04  0.11912422648E+04  0.90071035115E+02 0.  0.
        254    2    1    2    0    0 -0.46888119576E+02  0.76899197051E+02 -0.92070334589E+03  0.12891577512E+04  0.89784245503E+03 0.  0.
         23    2    4    4    0    0 -0.42741199194E+03  0.77193532458E+01 -0.23372353406E+03  0.49570558601E+03  0.91415197600E+02 0.  0.
         23    2    4    4    0    0  0.38052387237E+03  0.69179843805E+02 -0.68697981182E+03  0.79345216518E+03  0.89670554509E+02 0.  0.
         13    1    3    3    0    0  0.95772320136E+01  0.20159815585E+02 -0.27496204280E+03  0.27586639252E+03  0.00000000000E+00 0.  1.
        -13    1    3    3    0    0  0.37310887563E+02 -0.97059012636E+02 -0.90945062164E+03  0.91537587223E+03  0.00000000000E+00 0. -1.
          3    1    6    6  502    0  0.25954732424E+03  0.79397353963E+01 -0.48578283875E+03  0.55082921069E+03  0.00000000000E+00 0. -1.
          3    1    5    5  503    0 -0.42277756170E+03  0.75992138904E+01 -0.21109956862E+03  0.47261151340E+03  0.00000000000E+00 0. -1.
         -3    1    5    5    0  503 -0.46344302441E+01  0.12013935540E+00 -0.22623965443E+02  0.23094072606E+02  0.00000000000E+00 0.  1.
         -3    1    6    6    0  502  0.12097654812E+03  0.61240108409E+02 -0.20119697307E+03  0.24262295449E+03  0.00000000000E+00 0.  1.
<mgrwt>
<rscale>  0 0.13118197E+04</rscale>
<asrwt>0</asrwt>
<pdfrwt beam="1">  1        2 0.35273201E+00 0.13118197E+04</pdfrwt>
<pdfrwt beam="2">  1       -2 0.28868000E-01 0.13118197E+04</pdfrwt>
<totfact> 0.49512941E+01</totfact>
</mgrwt>
</event>
<event>
12    1  0.4403484E-008  0.1379414E+04  0.7818608E-02  0.8968856E-01
          1   -1    0    0  501    0  0.00000000000E+00  0.00000000000E+00  0.53086131784E+03  0.53086131784E+03  0.00000000000E+00 0. -1.
         -1   -1    0    0    0  501 -0.00000000000E+00 -0.00000000000E+00 -0.89608327136E+03  0.89608327136E+03  0.00000000000E+00 0.  1.
         23    2    1    2    0    0 -0.37779170937E+03 -0.32045215600E+02 -0.28776200694E+02  0.38959083149E+03  0.84849718581E+02 0.  0.
        254    2    1    2    0    0  0.37779170937E+03  0.32045215600E+02 -0.33644575283E+03  0.10373537577E+04  0.90507104834E+03 0.  0.
         23    2    4    4    0    0  0.42022516761E+03 -0.17509009667E+03  0.15894066722E+03  0.49106274537E+03  0.92923359523E+02 0.  0.
         23    2    4    4    0    0 -0.42433458243E+02  0.20713531227E+03 -0.49538642005E+03  0.54629101235E+03  0.91216933936E+02 0.  0.
         13    1    3    3    0    0 -0.34804226910E+03 -0.20276005094E+02 -0.48525466896E+02  0.35199326471E+03  0.00000000000E+00 0. -1.
        -13    1    3    3    0    0 -0.29749440267E+02 -0.11769210506E+02  0.19749266202E+02  0.37597566779E+02  0.00000000000E+00 0.  1.
          4    1    5    5  502    0  0.14209904125E+03 -0.96287805635E+02  0.90292956386E+02  0.19394921245E+03  0.00000000000E+00 0.  1.
          1    1    6    6  503    0 -0.29534767034E+02  0.20482943570E+03 -0.49038832366E+03  0.53226695198E+03  0.00000000000E+00 0. -1.
         -4    1    5    5    0  502  0.27812612637E+03 -0.78802291031E+02  0.68647710834E+02  0.29711353292E+03  0.00000000000E+00 0. -1.
         -1    1    6    6    0  503 -0.12898691209E+02  0.23058765664E+01 -0.49980963946E+01  0.14024060368E+02  0.00000000000E+00 0.  1.
<mgrwt>
<rscale>  0 0.13794143E+04</rscale>
<asrwt>0</asrwt>
<pdfrwt beam="1">  1        1 0.81670973E-01 0.13794143E+04</pdfrwt>
<pdfrwt beam="2">  1       -1 0.13785896E+00 0.13794143E+04</pdfrwt>
<totfact> 0.17380317E+01</totfact>
</mgrwt>
</event>
<event>
12    1  0.4403484E-008  0.2314020E+04  0.7818608E-02  0.8472414E-01
          1   -1    0    0  501    0  0.00000000000E+00  0.00000000000E+00  0.21133809135E+04  0.21133809135E+04  0.00000000000E+00 0. -1.
         -1   -1    0    0    0  501 -0.00000000000E+00 -0.00000000000E+00 -0.63342698473E+03  0.63342698473E+03  0.00000000000E+00 0.  1.
         23    2    1    2    0    0 -0.75313244127E+03 -0.57094594287E+03  0.94181555751E+03  0.13373358780E+04  0.90900838876E+02 0.  0.
        254    2    1    2    0    0  0.75313244127E+03  0.57094594287E+03  0.53813837130E+03  0.14094720202E+04  0.89656607419E+03 0.  0.
         23    2    4    4    0    0  0.94696711533E+03  0.44551292349E+03  0.47306979334E+03  0.11521906910E+04  0.92303177733E+02 0.  0.
         23    2    4    4    0    0 -0.19383467406E+03  0.12543301938E+03  0.65068577957E+02  0.25728132920E+03  0.93029238946E+02 0.  0.
         11    1    3    3    0    0 -0.19992475494E+03 -0.18574000632E+03  0.22892945635E+03  0.35619931720E+03  0.00000000000E+00 0.  1.
        -11    1    3    3    0    0 -0.55320768633E+03 -0.38520593655E+03  0.71288610116E+03  0.98113656083E+03  0.00000000000E+00 0. -1.
          2    1    5    5  502    0  0.87340139232E+03  0.40320965542E+03  0.40653428398E+03  0.10443553717E+04  0.00000000000E+00 0. -1.
          4    1    6    6  503    0 -0.18298164938E+03  0.77861076855E+02  0.41715894375E+02  0.20318672974E+03  0.00000000000E+00 0. -1.
         -2    1    5    5    0  502  0.73565723007E+02  0.42303268074E+02  0.66535509364E+02  0.10783531934E+03  0.00000000000E+00 0.  1.
         -4    1    6    6    0  503 -0.10853024681E+02  0.47571942528E+02  0.23352683581E+02  0.54094599463E+02  0.00000000000E+00 0.  1.
<mgrwt>
<rscale>  0 0.23140203E+04</rscale>
<asrwt>0</asrwt>
<pdfrwt beam="1">  1        1 0.32513552E+00 0.23140203E+04</pdfrwt>
<pdfrwt beam="2">  1       -1 0.97450307E-01 0.23140203E+04</pdfrwt>
<totfact> 0.22771049E+00</totfact>
</mgrwt>
</event>
<event>
12    1  0.4403484E-008  0.1087234E+04  0.7818608E-02  0.9217724E-01
         -2   -1    0    0    0  501 -0.00000000000E+00  0.00000000000E+00  0.21115466706E+03  0.21115466706E+03  0.00000000000E+00 0.  1.
          2   -1    0    0  501    0  0.00000000000E+00 -0.00000000000E+00 -0.13995414162E+04  0.13995414162E+04  0.00000000000E+00 0. -1.
         23    2    1    2    0    0  0.11661798081E+03 -0.81246526716E+02 -0.24736182162E+03  0.29982099056E+03  0.92217156909E+02 0.  0.
        254    2    1    2    0    0 -0.11661798081E+03  0.81246526716E+02 -0.94102492754E+03  0.13108750927E+04  0.90147925265E+03 0.  0.
         23    2    4    4    0    0 -0.84777642603E+02  0.33659633498E+03 -0.28916729831E+02  0.35891544454E+03  0.86601256685E+02 0.  0.
         23    2    4    4    0    0 -0.31840338209E+02 -0.25534980827E+03 -0.91210819771E+03  0.95195964820E+03  0.89824694500E+02 0.  0.
         11    1    3    3    0    0 -0.43354201237E+01 -0.32691931166E+02 -0.22518521464E+02  0.39932969335E+02  0.00000000000E+00 0.  1.
        -11    1    3    3    0    0  0.12095340094E+03 -0.48554595550E+02 -0.22484330016E+03  0.25988802122E+03  0.00000000000E+00 0. -1.
          1    1    5    5  502    0 -0.69328024227E+02  0.10926969130E+03 -0.14548081153E+01  0.12941544284E+03  0.00000000000E+00 0. -1.
          1    1    6    6  503    0 -0.16782054055E+02 -0.25683300266E+03 -0.86518352708E+03  0.90265572847E+03  0.00000000000E+00 0. -1.
         -1    1    5    5    0  502 -0.15449618376E+02  0.22732664368E+03 -0.27461921715E+02  0.22950000170E+03  0.00000000000E+00 0.  1.
         -1    1    6    6    0  503 -0.15058284155E+02  0.14831943945E+01 -0.46924670629E+02  0.49303919732E+02  0.00000000000E+00 0.  1.
<mgrwt>
<rscale>  0 0.10872345E+04</rscale>
<asrwt>0</asrwt>
<pdfrwt beam="1">  1        2 0.21531406E+00 0.10872345E+04</pdfrwt>
<pdfrwt beam="2">  1       -2 0.32485334E-01 0.10872345E+04</pdfrwt>
<totfact> 0.12690229E+02</totfact>
</mgrwt>
</event>
<event>
12    1  0.4403484E-008  0.1683837E+04  0.7818608E-02  0.8770637E-01
          2   -1    0    0  501    0  0.00000000000E+00  0.00000000000E+00  0.20422683994E+04  0.20422683994E+04  0.00000000000E+00 0. -1.
         -2   -1    0    0    0  501 -0.00000000000E+00 -0.00000000000E+00 -0.34707808122E+03  0.34707808122E+03  0.00000000000E+00 0.  1.
         23    2    1    2    0    0 -0.27902986018E+03  0.48300824579E+03  0.88741053031E+03  0.10521386986E+04  0.91344203246E+02 0.  0.
        254    2    1    2    0    0  0.27902986018E+03 -0.48300824579E+03  0.80777978790E+03  0.13372077820E+04  0.90799880958E+03 0.  0.
         23    2    4    4    0    0  0.78897179870E+02 -0.37100331505E+03  0.96760021957E+03  0.10430900876E+04  0.88986072793E+02 0.  0.
         23    2    4    4    0    0  0.20013268031E+03 -0.11200493075E+03 -0.15982043167E+03  0.29411769443E+03  0.91457386578E+02 0.  0.
         13    1    3    3    0    0 -0.23688361442E+03  0.42230470763E+03  0.81903625780E+03  0.95145967043E+03  0.00000000000E+00 0.  1.
        -13    1    3    3    0    0 -0.42146245755E+02  0.60703538165E+02  0.68374272512E+02  0.10067902820E+03  0.00000000000E+00 0. -1.
          2    1    5    5  502    0  0.38696671051E+02 -0.40708020721E+02  0.16298614457E+03  0.17239216520E+03  0.00000000000E+00 0. -1.
          4    1    6    6  503    0 -0.66631596689E+01 -0.98268709038E+01  0.24144239654E+01  0.12115879317E+02  0.00000000000E+00 0. -1.
         -2    1    5    5    0  502  0.40200508818E+02 -0.33029529432E+03  0.80461407500E+03  0.87069792239E+03  0.00000000000E+00 0.  1.
         -4    1    6    6    0  503  0.20679583998E+03 -0.10217805984E+03 -0.16223485564E+03  0.28200181511E+03  0.00000000000E+00 0.  1.
<mgrwt>
<rscale>  0 0.16838368E+04</rscale>
<asrwt>0</asrwt>
<pdfrwt beam="1">  1        2 0.31419513E+00 0.16838368E+04</pdfrwt>
<pdfrwt beam="2">  1       -2 0.53396629E-01 0.16838368E+04</pdfrwt>
<totfact> 0.19936916E+01</totfact>
</mgrwt>
</event>
<event>
12    1  0.4403484E-008  0.1705822E+04  0.7818608E-02  0.8758051E-01
          1   -1    0    0  501    0  0.00000000000E+00  0.00000000000E+00  0.17101417747E+04  0.17101417747E+04  0.00000000000E+00 0. -1.
         -1   -1    0    0    0  501 -0.00000000000E+00 -0.00000000000E+00 -0.42537839383E+03  0.42537839383E+03  0.00000000000E+00 0.  1.
         23    2    1    2    0    0 -0.42498518718E+03 -0.40992171128E+03  0.26674358759E+03  0.65433771525E+03  0.91419283399E+02 0.  0.
        254    2    1    2    0    0  0.42498518718E+03  0.40992171128E+03  0.10180197933E+04  0.14811824533E+04  0.89938253356E+03 0.  0.
         23    2    4    4    0    0  0.21125064397E+03  0.33150009554E+03  0.11381821741E+04  0.12075788392E+04  0.90933182269E+02 0.  0.
         23    2    4    4    0    0  0.21373454322E+03  0.78421615740E+02 -0.12016238077E+03  0.27360361407E+03  0.92668954352E+02 0.  0.
         11    1    3    3    0    0 -0.41470077808E+03 -0.40614343156E+03  0.24510598074E+03  0.63008425161E+03  0.00000000000E+00 0.  1.
        -11    1    3    3    0    0 -0.10284409100E+02 -0.37782797208E+01  0.21637606846E+02  0.24253463633E+02  0.00000000000E+00 0. -1.
          4    1    5    5  502    0  0.88091049133E+02  0.16825411988E+03  0.42186577364E+03  0.46264480195E+03  0.00000000000E+00 0. -1.
          1    1    6    6  503    0  0.11674132933E+02  0.14275488131E+02 -0.45074010416E+02  0.48700527267E+02  0.00000000000E+00 0. -1.
         -4    1    5    5    0  502  0.12315959483E+03  0.16324597565E+03  0.71631640043E+03  0.74493403727E+03  0.00000000000E+00 0.  1.
         -1    1    6    6    0  503  0.20206041028E+03  0.64146127609E+02 -0.75088370356E+02  0.22490308680E+03  0.00000000000E+00 0.  1.
<mgrwt>
<rscale>  0 0.17058222E+04</rscale>
<asrwt>0</asrwt>
<pdfrwt beam="1">  1        1 0.26309873E+00 0.17058222E+04</pdfrwt>
<pdfrwt beam="2">  1       -1 0.65442831E-01 0.17058222E+04</pdfrwt>
<totfact> 0.10559961E+01</totfact>
</mgrwt>
</event>
<event>
12    1  0.4403484E-008  0.1740365E+04  0.7818608E-02  0.8738672E-01
         -1   -1    0    0    0  501 -0.00000000000E+00  0.00000000000E+00  0.80714930429E+03  0.80714930429E+03  0.00000000000E+00 0.  1.
          1   -1    0    0  501    0  0.00000000000E+00 -0.00000000000E+00 -0.93813796814E+03  0.93813796814E+03  0.00000000000E+00 0. -1.
         23    2    1    2    0    0 -0.27606798361E+02  0.11640269460E+02  0.57085554802E+03  0.57826438699E+03  0.87269773510E+02 0.  0.
        254    2    1    2    0    0  0.27606798361E+02 -0.11640269460E+02 -0.70184421186E+03  0.11670228854E+04  0.93191173737E+03 0.  0.
         23    2    4    4    0    0  0.42971455113E+03  0.11733113000E+03 -0.53977873690E+03  0.70594246493E+03  0.92587739321E+02 0.  0.
         23    2    4    4    0    0 -0.40210775277E+03 -0.12897139946E+03 -0.16206547496E+03  0.46108042051E+03  0.89474405759E+02 0.  0.
         13    1    3    3    0    0 -0.57542230086E+02  0.19166997691E+02  0.34194810595E+03  0.34728516987E+03  0.00000000000E+00 0. -1.
        -13    1    3    3    0    0  0.29935431725E+02 -0.75267282309E+01  0.22890744206E+03  0.23097921712E+03  0.00000000000E+00 0.  1.
          1    1    5    5  502    0  0.10850568391E+03  0.26801979049E+02 -0.78407038131E+02  0.13652652911E+03  0.00000000000E+00 0. -1.
          1    1    6    6  503    0 -0.24804015230E+03 -0.91290613961E+02 -0.14523611423E+03  0.30158153495E+03  0.00000000000E+00 0. -1.
         -1    1    5    5    0  502  0.32120886722E+03  0.90529150955E+02 -0.46137169876E+03  0.56941593583E+03  0.00000000000E+00 0.  1.
         -1    1    6    6    0  503 -0.15406760047E+03 -0.37680785503E+02 -0.16829360738E+02  0.15949888556E+03  0.00000000000E+00 0.  1.
<mgrwt>
<rscale>  0 0.17403648E+04</rscale>
<asrwt>0</asrwt>
<pdfrwt beam="1">  1        1 0.14432892E+00 0.17403648E+04</pdfrwt>
<pdfrwt beam="2">  1       -1 0.12417682E+00 0.17403648E+04</pdfrwt>
<totfact> 0.91429279E+00</totfact>
</mgrwt>
</event>
<event>
12    1  0.4403484E-008  0.2315860E+04  0.7818608E-02  0.8471694E-01
          2   -1    0    0  501    0  0.00000000000E+00  0.00000000000E+00  0.70284648838E+03  0.70284648838E+03  0.00000000000E+00 0. -1.
         -2   -1    0    0    0  501 -0.00000000000E+00 -0.00000000000E+00 -0.19076735528E+04  0.19076735528E+04  0.00000000000E+00 0.  1.
         23    2    1    2    0    0 -0.35219039812E+03 -0.77927527433E+02 -0.15542135008E+04  0.15980751537E+04  0.90298476174E+02 0.  0.
        254    2    1    2    0    0  0.35219039812E+03  0.77927527433E+02  0.34938643639E+03  0.10124448874E+04  0.87912626631E+03 0.  0.
         23    2    4    4    0    0  0.61014879074E+03  0.13319874676E+02  0.38742738788E+03  0.72868810436E+03  0.91800907724E+02 0.  0.
         23    2    4    4    0    0 -0.25795839262E+03  0.64607652757E+02 -0.38040951488E+02  0.28375678308E+03  0.91400857974E+02 0.  0.
         11    1    3    3    0    0 -0.10686837835E+03  0.90139450869E+01 -0.57169081340E+03  0.58166355191E+03  0.00000000000E+00 0. -1.
        -11    1    3    3    0    0 -0.24532201977E+03 -0.86941472520E+02 -0.98252268740E+03  0.10164116018E+04  0.00000000000E+00 0.  1.
          2    1    5    5  502    0  0.25859776645E+03 -0.39068237952E+02  0.17329225676E+03  0.31373450286E+03  0.00000000000E+00 0. -1.
          1    1    6    6  503    0 -0.23639623154E+03  0.36147992951E+02 -0.53161546940E+02  0.24498164371E+03  0.00000000000E+00 0. -1.
         -2    1    5    5    0  502  0.35155102429E+03  0.52388112628E+02  0.21413513112E+03  0.41495360150E+03  0.00000000000E+00 0.  1.
         -1    1    6    6    0  503 -0.21562161075E+02  0.28459659806E+02  0.15120595452E+02  0.38775139372E+02  0.00000000000E+00 0.  1.
<mgrwt>
<rscale>  0 0.23158598E+04</rscale>
<asrwt>0</asrwt>
<pdfrwt beam="1">  1        2 0.10813023E+00 0.23158598E+04</pdfrwt>
<pdfrwt beam="2">  1       -2 0.29348824E+00 0.23158598E+04</pdfrwt>
<totfact> 0.12861349E+00</totfact>
</mgrwt>
</event>
<event>
12    1  0.4403484E-008  0.2608426E+04  0.7818608E-02  0.8365345E-01
         -2   -1    0    0    0  501 -0.00000000000E+00  0.00000000000E+00  0.17865361666E+04  0.17865361666E+04  0.00000000000E+00 0.  1.
          2   -1    0    0  501    0  0.00000000000E+00 -0.00000000000E+00 -0.95210598915E+03  0.95210598915E+03  0.00000000000E+00 0. -1.
         23    2    1    2    0    0 -0.46579323860E+02  0.10798047188E+04  0.76697594739E+03  0.13279193896E+04  0.83486149458E+02 0.  0.
        254    2    1    2    0    0  0.46579323860E+02 -0.10798047188E+04  0.67454230098E+02  0.14107227662E+04  0.90412431987E+03 0.  0.
         23    2    4    4    0    0  0.21096800513E+03 -0.68634345530E+02  0.27143671675E+03  0.36188676066E+03  0.89810710739E+02 0.  0.
         23    2    4    4    0    0 -0.16438868127E+03 -0.10111703733E+04 -0.20398248665E+03  0.10488360056E+04  0.94651726656E+02 0.  0.
         11    1    3    3    0    0 -0.29823536078E+02  0.50559381947E+03  0.30942438196E+03  0.59351327006E+03  0.00000000000E+00 0. -1.
        -11    1    3    3    0    0 -0.16755787782E+02  0.57421089934E+03  0.45755156542E+03  0.73440611951E+03  0.00000000000E+00 0.  1.
          4    1    5    5  502    0  0.18896353442E+03 -0.81744457676E+02  0.26480794952E+03  0.33542901459E+03  0.00000000000E+00 0. -1.
          3    1    6    6  503    0 -0.11190316404E+03 -0.66887363001E+03 -0.18030946949E+03  0.70173054361E+03  0.00000000000E+00 0. -1.
         -4    1    5    5    0  502  0.22004470713E+02  0.13110112146E+02  0.66287672275E+01  0.26457746064E+02  0.00000000000E+00 0.  1.
         -3    1    6    6    0  503 -0.52485517231E+02 -0.34229674327E+03 -0.23673017164E+02  0.34710546195E+03  0.00000000000E+00 0.  1.
<mgrwt>
<rscale>  0 0.26084262E+04</rscale>
<asrwt>0</asrwt>
<pdfrwt beam="1">  1        2 0.14647785E+00 0.26084262E+04</pdfrwt>
<pdfrwt beam="2">  1       -2 0.27485172E+00 0.26084262E+04</pdfrwt>
<totfact> 0.10829715E+00</totfact>
</mgrwt>
</event>
<event>
12    1  0.4403484E-008  0.2136871E+04  0.7818608E-02  0.8545173E-01
         -4   -1    0    0    0  501 -0.00000000000E+00  0.00000000000E+00  0.98826036261E+03  0.98826036261E+03  0.00000000000E+00 0.  1.
          4   -1    0    0  501    0  0.00000000000E+00 -0.00000000000E+00 -0.11551155369E+04  0.11551155369E+04  0.00000000000E+00 0. -1.
         23    2    1    2    0    0 -0.60773302542E+03  0.57853452467E+03  0.17747665036E+03  0.86420612215E+03  0.10636086551E+03 0.  0.
        254    2    1    2    0    0  0.60773302542E+03 -0.57853452467E+03 -0.34433182466E+03  0.12791697774E+04  0.90203618964E+03 0.  0.
         23    2    4    4    0    0  0.38835875723E+03 -0.76072410348E+03 -0.44012887700E+03  0.96508389488E+03  0.90276297335E+02 0.  0.
         23    2    4    4    0    0  0.21937426819E+03  0.18218957880E+03  0.95797052337E+02  0.31408588249E+03  0.90303677512E+02 0.  0.
         11    1    3    3    0    0 -0.61094024884E+03  0.56598056180E+03  0.17535068280E+03  0.85107569930E+03  0.00000000000E+00 0.  1.
        -11    1    3    3    0    0  0.32072234232E+01  0.12553962878E+02  0.21259675621E+01  0.13130422845E+02  0.00000000000E+00 0. -1.
          4    1    6    6  502    0  0.11928023475E+03  0.51659148642E+02  0.15078653935E+02  0.13085796821E+03  0.00000000000E+00 0. -1.
          4    1    5    5  503    0  0.13636914505E+03 -0.34879214081E+03 -0.16423077069E+03  0.40893061423E+03  0.00000000000E+00 0. -1.
         -4    1    5    5    0  503  0.25198961218E+03 -0.41193196266E+03 -0.27589810631E+03  0.55615328064E+03  0.00000000000E+00 0.  1.
         -4    1    6    6    0  502  0.10009403344E+03  0.13053043016E+03  0.80718398403E+02  0.18322791427E+03  0.00000000000E+00 0.  1.
<mgrwt>
<rscale>  0 0.21368715E+04</rscale>
<asrwt>0</asrwt>
<pdfrwt beam="1">  1        4 0.17771008E+00 0.21368715E+04</pdfrwt>
<pdfrwt beam="2">  1       -4 0.15204006E+00 0.21368715E+04</pdfrwt>
<totfact> 0.98431700E-02</totfact>
</mgrwt>
</event>
<event>
12    1  0.4403484E-008  0.1221121E+04  0.7818608E-02  0.9094568E-01
          1   -1    0    0  501    0  0.00000000000E+00  0.00000000000E+00  0.16985069314E+04  0.16985069314E+04  0.00000000000E+00 0. -1.
         -1   -1    0    0    0  501 -0.00000000000E+00 -0.00000000000E+00 -0.21947739859E+03  0.21947739859E+03  0.00000000000E+00 0.  1.
         23    2    1    2    0    0 -0.16598688103E+01  0.24931899504E+03  0.19789104350E+03  0.33008240496E+03  0.87354522022E+02 0.  0.
        254    2    1    2    0    0  0.16598688103E+01 -0.24931899504E+03  0.12811384893E+04  0.15879019250E+04  0.90440808171E+03 0.  0.
         23    2    4    4    0    0 -0.15098093059E+03 -0.25006948914E+03  0.13577750005E+04  0.13917331992E+04  0.89656873370E+02 0.  0.
         23    2    4    4    0    0  0.15264079940E+03  0.75049409964E+00 -0.76636511236E+02  0.19616872580E+03  0.96484388604E+02 0.  0.
         11    1    3    3    0    0 -0.36101594845E+02  0.13584585200E+03  0.13898771589E+03  0.19767398874E+03  0.00000000000E+00 0. -1.
        -11    1    3    3    0    0  0.34441726035E+02  0.11347314304E+03  0.58903327610E+02  0.13240841623E+03  0.00000000000E+00 0.  1.
          2    1    6    6  502    0  0.12380078616E+03 -0.27534263932E+00 -0.10783237583E+02  0.12426982208E+03  0.00000000000E+00 0. -1.
          2    1    5    5  503    0 -0.13326860187E+03 -0.19525994047E+03  0.12148501657E+04  0.12376380286E+04  0.00000000000E+00 0. -1.
         -2    1    5    5    0  503 -0.17712328719E+02 -0.54809548664E+02  0.14292483481E+03  0.15409517065E+03  0.00000000000E+00 0.  1.
         -2    1    6    6    0  502  0.28840013236E+02  0.10258367390E+01 -0.65853273653E+02  0.71898903714E+02  0.00000000000E+00 0.  1.
<mgrwt>
<rscale>  0 0.12211206E+04</rscale>
<asrwt>0</asrwt>
<pdfrwt beam="1">  1        1 0.26130875E+00 0.12211206E+04</pdfrwt>
<pdfrwt beam="2">  1       -1 0.33765755E-01 0.12211206E+04</pdfrwt>
<totfact> 0.39077613E+01</totfact>
</mgrwt>
</event>
<event>
12    1  0.4403484E-008  0.1369968E+04  0.7818608E-02  0.8975849E-01
          3   -1    0    0  501    0  0.00000000000E+00  0.00000000000E+00  0.29622706427E+03  0.29622706427E+03  0.00000000000E+00 0. -1.
         -3   -1    0    0    0  501 -0.00000000000E+00 -0.00000000000E+00 -0.15839297677E+04  0.15839297677E+04  0.00000000000E+00 0.  1.
         23    2    1    2    0    0  0.22843607948E+03  0.26867352361E+03 -0.27756728848E+03  0.45833334332E+03  0.93044877732E+02 0.  0.
        254    2    1    2    0    0 -0.22843607948E+03 -0.26867352361E+03 -0.10101354149E+04  0.14218234886E+04  0.93639733642E+03 0.  0.
         23    2    4    4    0    0 -0.56181571679E+03 -0.59231132534E+02 -0.43141662354E+03  0.71615239459E+03  0.87227991620E+02 0.  0.
         23    2    4    4    0    0  0.33337963731E+03 -0.20944239108E+03 -0.57871879140E+03  0.70567109405E+03  0.89711513813E+02 0.  0.
         11    1    3    3    0    0  0.19995297797E+02  0.64099867237E+02 -0.85773790522E+02  0.10893001448E+03  0.00000000000E+00 0.  1.
        -11    1    3    3    0    0  0.20844078168E+03  0.20457365637E+03 -0.19179349796E+03  0.34940332885E+03  0.00000000000E+00 0. -1.
          3    1    5    5  502    0 -0.10770346116E+03 -0.27871645885E+01 -0.12698419449E+03  0.16653164709E+03  0.00000000000E+00 0. -1.
          3    1    6    6  503    0  0.45772811818E+02 -0.64428950571E+02 -0.14869429827E+03  0.16839309461E+03  0.00000000000E+00 0. -1.
         -3    1    5    5    0  502 -0.45411225562E+03 -0.56443967945E+02 -0.30443242906E+03  0.54962074750E+03  0.00000000000E+00 0.  1.
         -3    1    6    6    0  503  0.28760682549E+03 -0.14501344050E+03 -0.43002449312E+03  0.53727799944E+03  0.00000000000E+00 0.  1.
<mgrwt>
<rscale>  0 0.13699677E+04</rscale>
<asrwt>0</asrwt>
<pdfrwt beam="1">  1        3 0.45573394E-01 0.13699677E+04</pdfrwt>
<pdfrwt beam="2">  1       -3 0.24368150E+00 0.13699677E+04</pdfrwt>
<totfact> 0.97674488E-01</totfact>
</mgrwt>
</event>
<event>
12    1  0.4403484E-008  0.1851792E+04  0.7818608E-02  0.8679232E-01
          1   -1    0    0  501    0  0.00000000000E+00  0.00000000000E+00  0.67073915743E+03  0.67073915743E+03  0.00000000000E+00 0. -1.
         -1   -1    0    0    0  501 -0.00000000000E+00 -0.00000000000E+00 -0.12781178994E+04  0.12781178994E+04  0.00000000000E+00 0.  1.
         23    2    1    2    0    0 -0.42472773244E+02  0.52673273158E+03 -0.74201129959E+03  0.91550412787E+03  0.91190637936E+02 0.  0.
        254    2    1    2    0    0  0.42472773244E+02 -0.52673273158E+03  0.13463255766E+03  0.10333529289E+04  0.87774771042E+03 0.  0.
         23    2    4    4    0    0 -0.30984182202E+03  0.47620945829E+02 -0.45830208166E+02  0.32980293715E+03  0.91650751332E+02 0.  0.
         23    2    4    4    0    0  0.35231459527E+03 -0.57435367741E+03  0.18046276582E+03  0.70354999177E+03  0.91695475777E+02 0.  0.
         11    1    3    3    0    0  0.17263181920E+02  0.30186468790E+03 -0.38841662179E+03  0.49222736549E+03  0.00000000000E+00 0.  1.
        -11    1    3    3    0    0 -0.59735955164E+02  0.22486804369E+03 -0.35359467780E+03  0.42327676239E+03  0.00000000000E+00 0. -1.
          2    1    5    5  502    0 -0.50345247866E+02  0.11464955340E+02  0.26446824583E+02  0.58013133980E+02  0.00000000000E+00 0. -1.
          4    1    6    6  503    0  0.31622560343E+03 -0.44689171970E+03  0.14100018061E+03  0.56532459024E+03  0.00000000000E+00 0.  1.
         -2    1    5    5    0  502 -0.25949657416E+03  0.36155990489E+02 -0.72277032748E+02  0.27178980317E+03  0.00000000000E+00 0.  1.
         -4    1    6    6    0  503  0.36088991833E+02 -0.12746195772E+03  0.39462585210E+02  0.13822540153E+03  0.00000000000E+00 0. -1.
<mgrwt>
<rscale>  0 0.18517923E+04</rscale>
<asrwt>0</asrwt>
<pdfrwt beam="1">  1        1 0.10319064E+00 0.18517923E+04</pdfrwt>
<pdfrwt beam="2">  1       -1 0.19663352E+00 0.18517923E+04</pdfrwt>
<totfact> 0.43349744E+00</totfact>
</mgrwt>
</event>
<event>
12    1  0.4403484E-008  0.1543798E+04  0.7818608E-02  0.8855839E-01
         -2   -1    0    0    0  501 -0.00000000000E+00  0.00000000000E+00  0.42642607695E+03  0.42642607695E+03  0.00000000000E+00 0.  1.
          2   -1    0    0  501    0  0.00000000000E+00 -0.00000000000E+00 -0.13972597866E+04  0.13972597866E+04  0.00000000000E+00 0. -1.
         23    2    1    2    0    0 -0.23438357281E+03 -0.44689504850E+03 -0.28524960119E+03  0.58486011062E+03  0.77737831498E+02 0.  0.
        254    2    1    2    0    0  0.23438357281E+03  0.44689504850E+03 -0.68558410847E+03  0.12388257529E+04  0.90000712929E+03 0.  0.
         23    2    4    4    0    0 -0.31131931667E+03  0.18211867558E+03 -0.44530798626E+03  0.58010916103E+03  0.90224759124E+02 0.  0.
         23    2    4    4    0    0  0.54570288948E+03  0.26477637292E+03 -0.24027612221E+03  0.65871659191E+03  0.90976713005E+02 0.  0.
         13    1    3    3    0    0 -0.32335184488E+02 -0.10744825692E+03 -0.91963777305E+02  0.14507938657E+03  0.00000000000E+00 0.  1.
        -13    1    3    3    0    0 -0.20204838832E+03 -0.33944679158E+03 -0.19328582388E+03  0.43978072406E+03  0.00000000000E+00 0. -1.
          2    1    6    6  502    0  0.15335001762E+03  0.12065813557E+03 -0.84710969821E+02  0.21272179482E+03  0.00000000000E+00 0. -1.
          2    1    5    5  503    0 -0.68632885733E+02  0.34769752002E+02 -0.44337002601E+02  0.88798527341E+02  0.00000000000E+00 0.  1.
         -2    1    5    5    0  503 -0.24268643093E+03  0.14734892358E+03 -0.40097098366E+03  0.49131063369E+03  0.00000000000E+00 0. -1.
         -2    1    6    6    0  502  0.39235287186E+03  0.14411823735E+03 -0.15556515239E+03  0.44599479709E+03  0.00000000000E+00 0.  1.
<mgrwt>
<rscale>  0 0.15437979E+04</rscale>
<asrwt>0</asrwt>
<pdfrwt beam="1">  1        2 0.21496304E+00 0.15437979E+04</pdfrwt>
<pdfrwt beam="2">  1       -2 0.65604012E-01 0.15437979E+04</pdfrwt>
<totfact> 0.29929394E+01</totfact>
</mgrwt>
</event>
<event>
12    1  0.4403484E-008  0.2609685E+04  0.7818608E-02  0.8364919E-01
          1   -1    0    0  501    0  0.00000000000E+00  0.00000000000E+00  0.32787514767E+04  0.32787514767E+04  0.00000000000E+00 0. -1.
         -1   -1    0    0    0  501 -0.00000000000E+00 -0.00000000000E+00 -0.51928729457E+03  0.51928729457E+03  0.00000000000E+00 0.  1.
         23    2    1    2    0    0  0.24715728777E+03  0.97845899496E+03  0.19859914514E+04  0.22300634182E+04  0.10272329142E+03 0.  0.
        254    2    1    2    0    0 -0.24715728777E+03 -0.97845899496E+03  0.77347273080E+03  0.15679753531E+04  0.91750635580E+03 0.  0.
         23    2    4    4    0    0 -0.20550441246E+03 -0.10223550788E+04  0.91259040457E+03  0.13885509710E+04  0.88377496789E+02 0.  0.
         23    2    4    4    0    0 -0.41652875311E+02  0.43896083855E+02 -0.13911767377E+03  0.17942438206E+03  0.95799548665E+02 0.  0.
         11    1    3    3    0    0  0.22386140709E+03  0.93919487708E+03  0.19281270584E+04  0.21563568582E+04  0.00000000000E+00 0. -1.
        -11    1    3    3    0    0  0.23295880687E+02  0.39264117875E+02  0.57864392982E+02  0.73706559984E+02  0.00000000000E+00 0.  1.
          4    1    5    5  502    0 -0.20348878225E+03 -0.88753116893E+03  0.77235376215E+03  0.11940056927E+04  0.00000000000E+00 0. -1.
          1    1    6    6  503    0 -0.61982841436E+02  0.60406229852E+02 -0.11404515245E+03  0.14316802029E+03  0.00000000000E+00 0. -1.
         -4    1    5    5    0  502 -0.20156302153E+01 -0.13482390988E+03  0.14023664241E+03  0.19454527832E+03  0.00000000000E+00 0.  1.
         -1    1    6    6    0  503  0.20329966125E+02 -0.16510145997E+02 -0.25072521322E+02  0.36256361772E+02  0.00000000000E+00 0.  1.
<mgrwt>
<rscale>  0 0.26096850E+04</rscale>
<asrwt>0</asrwt>
<pdfrwt beam="1">  1        1 0.50442329E+00 0.26096850E+04</pdfrwt>
<pdfrwt beam="2">  1       -1 0.79890355E-01 0.26096850E+04</pdfrwt>
<totfact> 0.51032944E-01</totfact>
</mgrwt>
</event>
<event>
12    1  0.4403484E-008  0.1147443E+04  0.7818608E-02  0.9160146E-01
         -1   -1    0    0    0  501 -0.00000000000E+00  0.00000000000E+00  0.10518863809E+03  0.10518863809E+03  0.00000000000E+00 0.  1.
          1   -1    0    0  501    0  0.00000000000E+00 -0.00000000000E+00 -0.31291988702E+04  0.31291988702E+04  0.00000000000E+00 0. -1.
         23    2    1    2    0    0 -0.11501535850E+03  0.36790838010E+02 -0.13540791068E+03  0.20371389868E+03  0.92638824413E+02 0.  0.
        254    2    1    2    0    0  0.11501535850E+03 -0.36790838010E+02 -0.28886023214E+04  0.30306736096E+04  0.90905283573E+03 0.  0.
         23    2    4    4    0    0 -0.31818501031E+03 -0.50163477676E+02 -0.50304506404E+03  0.60410478464E+03  0.90167505699E+02 0.  0.
         23    2    4    4    0    0  0.43320036881E+03  0.13372639666E+02 -0.23855572574E+04  0.24265688250E+04  0.97526647717E+02 0.  0.
         13    1    3    3    0    0 -0.11390951718E+02  0.87571447432E+01  0.13786616517E+02  0.19912613090E+02  0.00000000000E+00 0.  1.
        -13    1    3    3    0    0 -0.10362440679E+03  0.28033693267E+02 -0.14919452720E+03  0.18380128559E+03  0.00000000000E+00 0. -1.
          3    1    5    5  502    0 -0.12812223872E+03 -0.49355963855E+02 -0.15142659562E+03  0.20440482647E+03  0.00000000000E+00 0. -1.
          3    1    6    6  503    0  0.15889838727E+02  0.20215890070E+02 -0.18539026139E+03  0.18716494919E+03  0.00000000000E+00 0. -1.
         -3    1    5    5    0  502 -0.19006277159E+03 -0.80751382137E+00 -0.35161846842E+03  0.39969995817E+03  0.00000000000E+00 0.  1.
         -3    1    6    6    0  503  0.41731053009E+03 -0.68432504043E+01 -0.22001669960E+04  0.22394038758E+04  0.00000000000E+00 0.  1.
<mgrwt>
<rscale>  0 0.11474427E+04</rscale>
<asrwt>0</asrwt>
<pdfrwt beam="1">  1        1 0.48141523E+00 0.11474427E+04</pdfrwt>
<pdfrwt beam="2">  1       -1 0.16182867E-01 0.11474427E+04</pdfrwt>
<totfact> 0.14106167E+01</totfact>
</mgrwt>
</event>
<event>
12    1  0.4403484E-008  0.1613958E+04  0.7818608E-02  0.8812018E-01
          2   -1    0    0  501    0  0.00000000000E+00  0.00000000000E+00  0.39836326736E+04  0.39836326736E+04  0.00000000000E+00 0.  1.
         -2   -1    0    0    0  501 -0.00000000000E+00 -0.00000000000E+00 -0.16347274927E+03  0.16347274927E+03  0.00000000000E+00 0. -1.
         23    2    1    2    0    0  0.22520946961E+03  0.11907391415E+03  0.25683503500E+04  0.25825383084E+04  0.90458232299E+02 0.  0.
        254    2    1    2    0    0 -0.22520946961E+03 -0.11907391415E+03  0.12518095743E+04  0.15645671144E+04  0.90329681890E+03 0.  0.
         23    2    4    4    0    0 -0.56325722020E+03 -0.67219238295E+01  0.73787826632E+03  0.93269305123E+03  0.90266890585E+02 0.  0.
         23    2    4    4    0    0  0.33804775059E+03 -0.11235199032E+03  0.51393130798E+03  0.63187406320E+03  0.90775497945E+02 0.  0.
         13    1    3    3    0    0  0.20878806967E+03  0.13072284620E+03  0.24624891968E+04  0.24747795791E+04  0.00000000000E+00 0.  1.
        -13    1    3    3    0    0  0.16421399942E+02 -0.11648932045E+02  0.10586115324E+03  0.10775872938E+03  0.00000000000E+00 0. -1.
          4    1    6    6  502    0  0.74192321026E+02 -0.30838224290E+02  0.58993784600E+02  0.99678298531E+02  0.00000000000E+00 0. -1.
          4    1    5    5  503    0 -0.26962170975E+03  0.14218397653E+02  0.42132600653E+03  0.50041346203E+03  0.00000000000E+00 0. -1.
         -4    1    5    5    0  503 -0.29363551046E+03 -0.20940321483E+02  0.31655225979E+03  0.43227958920E+03  0.00000000000E+00 0.  1.
         -4    1    6    6    0  502  0.26385542956E+03 -0.81513766031E+02  0.45493752338E+03  0.53219576467E+03  0.00000000000E+00 0.  1.
<mgrwt>
<rscale>  0 0.16139583E+04</rscale>
<asrwt>0</asrwt>
<pdfrwt beam="1">  1        2 0.61286649E+00 0.16139583E+04</pdfrwt>
<pdfrwt beam="2">  1       -2 0.25149657E-01 0.16139583E+04</pdfrwt>
<totfact> 0.48890101E+00</totfact>
</mgrwt>
</event>
<event>
12    1  0.4403484E-008  0.1704859E+04  0.7818608E-02  0.8758598E-01
          1   -1    0    0  501    0  0.00000000000E+00  0.00000000000E+00  0.65359201569E+03  0.65359201569E+03  0.00000000000E+00 0. -1.
         -1   -1    0    0    0  501 -0.00000000000E+00 -0.00000000000E+00 -0.11117579769E+04  0.11117579769E+04  0.00000000000E+00 0.  1.
         23    2    1    2    0    0  0.45810958540E+03 -0.39909374114E+03 -0.10172918103E+03  0.62275104975E+03  0.91267942023E+02 0.  0.
        254    2    1    2    0    0 -0.45810958540E+03  0.39909374114E+03 -0.35643678016E+03  0.11425989428E+04  0.89963601496E+03 0.  0.
         23    2    4    4    0    0 -0.21735829774E+03  0.36772828160E+03 -0.62934001697E+03  0.76606136543E+03  0.91172583421E+02 0.  0.
         23    2    4    4    0    0 -0.24075128766E+03  0.31365459541E+02  0.27290323681E+03  0.37653757738E+03  0.91429732323E+02 0.  0.
         13    1    3    3    0    0  0.29825144424E+02 -0.63095922352E+02 -0.17132201778E+02  0.71861999660E+02  0.00000000000E+00 0.  1.
        -13    1    3    3    0    0  0.42828444098E+03 -0.33599781879E+03 -0.84596979256E+02  0.55088905009E+03  0.00000000000E+00 0. -1.
          1    1    5    5  502    0 -0.52822315225E+02  0.15264009104E+03 -0.18388819922E+03  0.24475306778E+03  0.00000000000E+00 0. -1.
          3    1    6    6  503    0 -0.11536211180E+03  0.52697522028E+02  0.98011610427E+02  0.16028637324E+03  0.00000000000E+00 0. -1.
         -1    1    5    5    0  502 -0.16453598252E+03  0.21508819056E+03 -0.44545181775E+03  0.52130829765E+03  0.00000000000E+00 0.  1.
         -3    1    6    6    0  503 -0.12538917586E+03 -0.21332062487E+02  0.17489162638E+03  0.21625120414E+03  0.00000000000E+00 0.  1.
<mgrwt>
<rscale>  0 0.17048591E+04</rscale>
<asrwt>0</asrwt>
<pdfrwt beam="1">  1        1 0.10055262E+00 0.17048591E+04</pdfrwt>
<pdfrwt beam="2">  1       -1 0.17103969E+00 0.17048591E+04</pdfrwt>
<totfact> 0.69467595E+00</totfact>
</mgrwt>
</event>
<event>
12    1  0.4403484E-008  0.1464339E+04  0.7818608E-02  0.8908520E-01
          2   -1    0    0  501    0  0.00000000000E+00  0.00000000000E+00  0.20271069902E+04  0.20271069902E+04  0.00000000000E+00 0. -1.
         -2   -1    0    0    0  501 -0.00000000000E+00 -0.00000000000E+00 -0.26445168525E+03  0.26445168525E+03  0.00000000000E+00 0.  1.
         23    2    1    2    0    0 -0.66530206192E+02  0.34675368019E+00  0.12776089263E+04  0.12826727715E+04  0.92403904331E+02 0.  0.
        254    2    1    2    0    0  0.66530206192E+02 -0.34675368019E+00  0.48504637864E+03  0.10088859040E+04  0.88213059646E+03 0.  0.
         23    2    4    4    0    0  0.68404634686E+02 -0.48877080300E+02  0.73125291804E+03  0.74195951510E+03  0.93300208398E+02 0.  0.
         23    2    4    4    0    0 -0.18744284942E+01  0.48530326620E+02 -0.24620653940E+03  0.26692638886E+03  0.90957852583E+02 0.  0.
         11    1    3    3    0    0  0.62276330707E+01 -0.27162075168E+01  0.62553308074E+01  0.92352780385E+01  0.00000000000E+00 0.  1.
        -11    1    3    3    0    0 -0.72757839263E+02  0.30629611970E+01  0.12713535955E+04  0.12734374935E+04  0.00000000000E+00 0. -1.
          2    1    5    5  502    0 -0.22151001297E+02 -0.29398988162E+01  0.18547850503E+03  0.18681966088E+03  0.00000000000E+00 0.  1.
          1    1    6    6  503    0 -0.44706047083E+02  0.22616587848E+02 -0.91455409798E+02  0.10427958896E+03  0.00000000000E+00 0. -1.
         -2    1    5    5    0  502  0.90555635984E+02 -0.45937181484E+02  0.54577441301E+03  0.55513985423E+03  0.00000000000E+00 0. -1.
         -1    1    6    6    0  503  0.42831618589E+02  0.25913738772E+02 -0.15475112960E+03  0.16264679991E+03  0.00000000000E+00 0.  1.
<mgrwt>
<rscale>  0 0.14643386E+04</rscale>
<asrwt>0</asrwt>
<pdfrwt beam="1">  1        2 0.31186260E+00 0.14643386E+04</pdfrwt>
<pdfrwt beam="2">  1       -2 0.40684876E-01 0.14643386E+04</pdfrwt>
<totfact> 0.35779389E+01</totfact>
</mgrwt>
</event>
<event>
12    1  0.4403484E-008  0.1231766E+04  0.7818608E-02  0.9085498E-01
          2   -1    0    0  501    0  0.00000000000E+00  0.00000000000E+00  0.68540036527E+03  0.68540036527E+03  0.00000000000E+00 0. -1.
         -2   -1    0    0    0  501 -0.00000000000E+00 -0.00000000000E+00 -0.55341632043E+03  0.55341632043E+03  0.00000000000E+00 0.  1.
         23    2    1    2    0    0  0.19847656737E+03  0.48092199084E+02 -0.15533037702E+03  0.27571472827E+03  0.10092213807E+03 0.  0.
        254    2    1    2    0    0 -0.19847656737E+03 -0.48092199084E+02  0.28731442186E+03  0.96310195743E+03  0.89627562501E+03 0.  0.
         23    2    4    4    0    0 -0.16580044613E+03  0.57952340194E+02  0.59233535347E+03  0.62498685464E+03  0.94335231073E+02 0.  0.
         23    2    4    4    0    0 -0.32676121237E+02 -0.10604453928E+03 -0.30502093162E+03  0.33811510280E+03  0.94714733831E+02 0.  0.
         13    1    3    3    0    0  0.17020772158E+03  0.16827880288E+02 -0.15884162972E+03  0.23341917097E+03  0.00000000000E+00 0.  1.
        -13    1    3    3    0    0  0.28268845788E+02  0.31264318795E+02  0.35112527069E+01  0.42295557302E+02  0.00000000000E+00 0. -1.
          1    1    5    5  502    0 -0.17767752938E+03  0.55149337126E+02  0.53672402792E+03  0.56805231800E+03  0.00000000000E+00 0. -1.
          1    1    6    6  503    0 -0.24824282187E+02 -0.44769949041E+02 -0.25063799206E+03  0.25581242423E+03  0.00000000000E+00 0. -1.
         -1    1    5    5    0  502  0.11877083250E+02  0.28030030687E+01  0.55611325551E+02  0.56934536639E+02  0.00000000000E+00 0.  1.
         -1    1    6    6    0  503 -0.78518390497E+01 -0.61274590237E+02 -0.54382939552E+02  0.82302678568E+02  0.00000000000E+00 0.  1.
<mgrwt>
<rscale>  0 0.12317658E+04</rscale>
<asrwt>0</asrwt>
<pdfrwt beam="1">  1        2 0.10544621E+00 0.12317658E+04</pdfrwt>
<pdfrwt beam="2">  1       -2 0.85140972E-01 0.12317658E+04</pdfrwt>
<totfact> 0.49760902E+01</totfact>
</mgrwt>
</event>
<event>
12    1  0.4403484E-008  0.1285472E+04  0.7818608E-02  0.9041166E-01
         -2   -1    0    0    0  501 -0.00000000000E+00  0.00000000000E+00  0.21022259807E+03  0.21022259807E+03  0.00000000000E+00 0.  1.
          2   -1    0    0  501    0  0.00000000000E+00 -0.00000000000E+00 -0.19651059627E+04  0.19651059627E+04  0.00000000000E+00 0. -1.
         23    2    1    2    0    0  0.28697984127E+03  0.31335019373E+02 -0.70523618506E+03  0.76709236544E+03  0.87939227084E+02 0.  0.
        254    2    1    2    0    0 -0.28697984127E+03 -0.31335019373E+02 -0.10496471796E+04  0.14082361954E+04  0.89332562235E+03 0.  0.
         23    2    4    4    0    0 -0.40440177373E+03 -0.21055682566E+03 -0.10772774705E+04  0.11734998304E+04  0.93274498263E+02 0.  0.
         23    2    4    4    0    0  0.11742193246E+03  0.17922180628E+03  0.27630290935E+02  0.23473636495E+03  0.91811556912E+02 0.  0.
         11    1    3    3    0    0  0.26314110565E+03  0.28250243024E+02 -0.55412510947E+03  0.61408139091E+03  0.00000000000E+00 0.  1.
        -11    1    3    3    0    0  0.23838735625E+02  0.30847763483E+01 -0.15111107559E+03  0.15301097453E+03  0.00000000000E+00 0. -1.
          1    1    5    5  502    0 -0.17792863960E+03 -0.47538201741E+02 -0.48466265145E+03  0.51847504002E+03  0.00000000000E+00 0. -1.
          1    1    6    6  503    0  0.99859367291E+01 -0.96719299983E+01  0.91494148676E+01  0.16642624633E+02  0.00000000000E+00 0. -1.
         -1    1    5    5    0  502 -0.22647313413E+03 -0.16301862392E+03 -0.59261481909E+03  0.65502479040E+03  0.00000000000E+00 0.  1.
         -1    1    6    6    0  503  0.10743599573E+03  0.18889373628E+03  0.18480876067E+02  0.21809374032E+03  0.00000000000E+00 0.  1.
<mgrwt>
<rscale>  0 0.12854722E+04</rscale>
<asrwt>0</asrwt>
<pdfrwt beam="1">  1        2 0.30232400E+00 0.12854722E+04</pdfrwt>
<pdfrwt beam="2">  1       -2 0.32341938E-01 0.12854722E+04</pdfrwt>
<totfact> 0.61078925E+01</totfact>
</mgrwt>
</event>
<event>
12    1  0.4403484E-008  0.1872943E+04  0.7818608E-02  0.8668443E-01
         -2   -1    0    0    0  501 -0.00000000000E+00  0.00000000000E+00  0.34283492043E+03  0.34283492043E+03  0.00000000000E+00 0.  1.
          2   -1    0    0  501    0  0.00000000000E+00 -0.00000000000E+00 -0.25580216687E+04  0.25580216687E+04  0.00000000000E+00 0. -1.
         23    2    1    2    0    0  0.16452662900E+03  0.48694072773E+03 -0.16156367780E+04  0.16978713332E+04  0.91129477244E+02 0.  0.
        254    2    1    2    0    0 -0.16452662900E+03 -0.48694072773E+03 -0.59954997023E+03  0.12029852559E+04  0.90748723141E+03 0.  0.
         23    2    4    4    0    0 -0.24871291565E+03 -0.71698066634E+03 -0.34164013819E+03  0.83711372246E+03  0.90122194828E+02 0.  0.
         23    2    4    4    0    0  0.84186286652E+02  0.23003993861E+03 -0.25790983204E+03  0.36587153345E+03  0.85666757320E+02 0.  0.
         13    1    3    3    0    0  0.42861312720E+01  0.80760591357E+02 -0.18074967606E+03  0.19801790180E+03  0.00000000000E+00 0.  1.
        -13    1    3    3    0    0  0.16024049773E+03  0.40618013637E+03 -0.14348871019E+04  0.14998534314E+04  0.00000000000E+00 0. -1.
          2    1    5    5  502    0 -0.20866803535E+03 -0.49329192848E+03 -0.21670161429E+03  0.57778790687E+03  0.00000000000E+00 0. -1.
          1    1    6    6  503    0  0.95837230081E+02  0.14588344912E+03 -0.17284498334E+03  0.24564637929E+03  0.00000000000E+00 0. -1.
         -2    1    5    5    0  502 -0.40044880298E+02 -0.22368873786E+03 -0.12493852390E+03  0.25932581560E+03  0.00000000000E+00 0.  1.
         -1    1    6    6    0  503 -0.11650943430E+02  0.84156489492E+02 -0.85064848706E+02  0.12022515416E+03  0.00000000000E+00 0.  1.
<mgrwt>
<rscale>  0 0.18729433E+04</rscale>
<asrwt>0</asrwt>
<pdfrwt beam="1">  1        2 0.39354179E+00 0.18729433E+04</pdfrwt>
<pdfrwt beam="2">  1       -2 0.52743835E-01 0.18729433E+04</pdfrwt>
<totfact> 0.10261769E+01</totfact>
</mgrwt>
</event>
<event>
12    1  0.4403484E-008  0.2272109E+04  0.7818608E-02  0.8489000E-01
         -2   -1    0    0    0  501 -0.00000000000E+00  0.00000000000E+00  0.12511596380E+04  0.12511596380E+04  0.00000000000E+00 0.  1.
          2   -1    0    0  501    0  0.00000000000E+00 -0.00000000000E+00 -0.10315388472E+04  0.10315388472E+04  0.00000000000E+00 0. -1.
         23    2    1    2    0    0  0.72882158035E+03 -0.23048229711E+03 -0.48670784105E+03  0.91084254378E+03  0.91905558956E+02 0.  0.
        254    2    1    2    0    0 -0.72882158035E+03  0.23048229711E+03  0.70632863189E+03  0.13718559414E+04  0.89374806436E+03 0.  0.
         23    2    4    4    0    0 -0.10426997386E+03  0.47782260807E+03  0.28478460400E+03  0.57370229760E+03  0.94049898290E+02 0.  0.
         23    2    4    4    0    0 -0.62455160648E+03 -0.24734031096E+03  0.42154402789E+03  0.79815364383E+03  0.90044062064E+02 0.  0.
         11    1    3    3    0    0  0.37983786491E+02  0.24113061542E+01 -0.86147768798E+01  0.39023029281E+02  0.00000000000E+00 0.  1.
        -11    1    3    3    0    0  0.69083779386E+03 -0.23289360326E+03 -0.47809306417E+03  0.87181951450E+03  0.00000000000E+00 0. -1.
          2    1    5    5  502    0  0.13698170654E+02  0.12672937217E+03  0.66261588732E+02  0.14366130930E+03  0.00000000000E+00 0. -1.
          2    1    6    6  503    0 -0.13444418432E+03 -0.15216661262E+02  0.91019617087E+02  0.16306856279E+03  0.00000000000E+00 0. -1.
         -2    1    5    5    0  502 -0.11796814452E+03  0.35109323590E+03  0.21852301527E+03  0.43004098830E+03  0.00000000000E+00 0.  1.
         -2    1    6    6    0  503 -0.49010742217E+03 -0.23212364970E+03  0.33052441080E+03  0.63508508103E+03  0.00000000000E+00 0.  1.
<mgrwt>
<rscale>  0 0.22721090E+04</rscale>
<asrwt>0</asrwt>
<pdfrwt beam="1">  1        2 0.15869828E+00 0.22721090E+04</pdfrwt>
<pdfrwt beam="2">  1       -2 0.19248610E+00 0.22721090E+04</pdfrwt>
<totfact> 0.32587498E+00</totfact>
</mgrwt>
</event>
<event>
12    1  0.4403484E-008  0.1707154E+04  0.7818608E-02  0.8757295E-01
         -2   -1    0    0    0  501 -0.00000000000E+00  0.00000000000E+00  0.96809696681E+03  0.96809696681E+03  0.00000000000E+00 0.  1.
          2   -1    0    0  501    0  0.00000000000E+00 -0.00000000000E+00 -0.75260427815E+03  0.75260427815E+03  0.00000000000E+00 0. -1.
         23    2    1    2    0    0  0.26210013645E+03  0.55173285256E+03  0.12986274254E+03  0.63196328141E+03  0.96992963789E+02 0.  0.
        254    2    1    2    0    0 -0.26210013645E+03 -0.55173285256E+03  0.85629946126E+02  0.10887379636E+04  0.89716901612E+03 0.  0.
         23    2    4    4    0    0 -0.36202572278E+03 -0.25202999076E+03 -0.33017029239E+03  0.55854042805E+03  0.91505451189E+02 0.  0.
         23    2    4    4    0    0  0.99925586323E+02 -0.29970286180E+03  0.41580023851E+03  0.53019753550E+03  0.91720554587E+02 0.  0.
         13    1    3    3    0    0  0.13162000473E+03  0.27005529089E+03  0.11334566659E+03  0.32109332898E+03  0.00000000000E+00 0.  1.
        -13    1    3    3    0    0  0.13048013172E+03  0.28167756167E+03  0.16517075954E+02  0.31086995242E+03  0.00000000000E+00 0. -1.
          4    1    5    5  502    0 -0.12199806322E+03 -0.13801258280E+03 -0.12143503049E+03  0.22062970577E+03  0.00000000000E+00 0. -1.
          1    1    6    6  503    0  0.17035596892E+02 -0.41797964678E+01  0.48293646453E+02  0.51380526931E+02  0.00000000000E+00 0. -1.
         -4    1    5    5    0  502 -0.24002765956E+03 -0.11401740797E+03 -0.20873526190E+03  0.33791072228E+03  0.00000000000E+00 0.  1.
         -1    1    6    6    0  503  0.82889989431E+02 -0.29552306533E+03  0.36750659206E+03  0.47881700857E+03  0.00000000000E+00 0.  1.
<mgrwt>
<rscale>  0 0.17071543E+04</rscale>
<asrwt>0</asrwt>
<pdfrwt beam="1">  1        2 0.11578527E+00 0.17071543E+04</pdfrwt>
<pdfrwt beam="2">  1       -2 0.14893800E+00 0.17071543E+04</pdfrwt>
<totfact> 0.10834546E+01</totfact>
</mgrwt>
</event>
<event>
12    1  0.4403484E-008  0.2221859E+04  0.7818608E-02  0.8509385E-01
         -1   -1    0    0    0  501 -0.00000000000E+00  0.00000000000E+00  0.87843392805E+03  0.87843392805E+03  0.00000000000E+00 0.  1.
          1   -1    0    0  501    0  0.00000000000E+00 -0.00000000000E+00 -0.14049597999E+04  0.14049597999E+04  0.00000000000E+00 0. -1.
         23    2    1    2    0    0  0.21072924220E+03  0.68776890418E+03 -0.78079206700E+03  0.10654402680E+04  0.89965736408E+02 0.  0.
        254    2    1    2    0    0 -0.21072924220E+03 -0.68776890418E+03  0.25426619513E+03  0.12179534600E+04  0.94938214307E+03 0.  0.
         23    2    4    4    0    0  0.28842105178E+03 -0.80557438908E+02 -0.12913645011E+03  0.33870410247E+03  0.91477003707E+02 0.  0.
         23    2    4    4    0    0 -0.49915029398E+03 -0.60721146527E+03  0.38340264523E+03  0.87924935749E+03  0.90692142672E+02 0.  0.
         11    1    3    3    0    0  0.29179443031E+02  0.71363950151E+02 -0.12810797646E+03  0.14951891823E+03  0.00000000000E+00 0.  1.
        -11    1    3    3    0    0  0.18154979917E+03  0.61640495402E+03 -0.65268409054E+03  0.91592134977E+03  0.00000000000E+00 0. -1.
          2    1    5    5  502    0  0.39962850508E+02 -0.71358307487E+01  0.13717943250E+02  0.42850104646E+02  0.00000000000E+00 0. -1.
          4    1    6    6  503    0 -0.22963968648E+03 -0.34401502024E+03  0.17938204572E+03  0.45084214320E+03  0.00000000000E+00 0. -1.
         -2    1    5    5    0  502  0.24845820127E+03 -0.73421608159E+02 -0.14285439336E+03  0.29585399782E+03  0.00000000000E+00 0.  1.
         -4    1    6    6    0  503 -0.26951060751E+03 -0.26319644502E+03  0.20402059951E+03  0.42840721429E+03  0.00000000000E+00 0.  1.
<mgrwt>
<rscale>  0 0.22218590E+04</rscale>
<asrwt>0</asrwt>
<pdfrwt beam="1">  1        1 0.21614766E+00 0.22218590E+04</pdfrwt>
<pdfrwt beam="2">  1       -1 0.13514368E+00 0.22218590E+04</pdfrwt>
<totfact> 0.31861668E+00</totfact>
</mgrwt>
</event>
<event>
12    1  0.4403484E-008  0.2395237E+04  0.7818608E-02  0.8441289E-01
          2   -1    0    0  501    0  0.00000000000E+00  0.00000000000E+00  0.25321022827E+04  0.25321022827E+04  0.00000000000E+00 0. -1.
         -2   -1    0    0    0  501 -0.00000000000E+00 -0.00000000000E+00 -0.56644241118E+03  0.56644241118E+03  0.00000000000E+00 0.  1.
         23    2    1    2    0    0  0.65669963978E+02 -0.79242429325E+03  0.90996585021E+01  0.80042996026E+03  0.91413963935E+02 0.  0.
        254    2    1    2    0    0 -0.65669963978E+02  0.79242429325E+03  0.19565602130E+04  0.22981147336E+04  0.90606548164E+03 0.  0.
         23    2    4    4    0    0 -0.13381760466E+03  0.96252661846E+03  0.14276969850E+04  0.17295368960E+04  0.92814605864E+02 0.  0.
         23    2    4    4    0    0  0.68147640687E+02 -0.17010232522E+03  0.52886322800E+03  0.56857783761E+03  0.10002770372E+03 0.  0.
         11    1    3    3    0    0  0.52643629531E+02 -0.75330337554E+03 -0.94905611822E+01  0.75520023708E+03  0.00000000000E+00 0. -1.
        -11    1    3    3    0    0  0.13026334447E+02 -0.39120917705E+02  0.18590219684E+02  0.45229723182E+02  0.00000000000E+00 0.  1.
          2    1    5    5  502    0 -0.13916446772E+03  0.85984776686E+03  0.12372368985E+04  0.15130961880E+04  0.00000000000E+00 0. -1.
          3    1    6    6  503    0  0.82312728020E+02 -0.10605563191E+03  0.42533198983E+03  0.44601623718E+03  0.00000000000E+00 0. -1.
         -2    1    5    5    0  502  0.53468630570E+01  0.10267885160E+03  0.19046008648E+03  0.21644070794E+03  0.00000000000E+00 0.  1.
         -3    1    6    6    0  503 -0.14165087333E+02 -0.64046693307E+02  0.10353123817E+03  0.12256160043E+03  0.00000000000E+00 0.  1.
<mgrwt>
<rscale>  0 0.23952370E+04</rscale>
<asrwt>0</asrwt>
<pdfrwt beam="1">  1        2 0.38955419E+00 0.23952370E+04</pdfrwt>
<pdfrwt beam="2">  1       -2 0.87144988E-01 0.23952370E+04</pdfrwt>
<totfact> 0.34140544E+00</totfact>
</mgrwt>
</event>
<event>
12    1  0.4403484E-008  0.1724847E+04  0.7818608E-02  0.8747319E-01
          2   -1    0    0  501    0  0.00000000000E+00  0.00000000000E+00  0.55750220099E+03  0.55750220099E+03  0.00000000000E+00 0. -1.
         -2   -1    0    0    0  501 -0.00000000000E+00 -0.00000000000E+00 -0.13341191153E+04  0.13341191153E+04  0.00000000000E+00 0.  1.
         23    2    1    2    0    0  0.37598756169E+03 -0.40109556877E+03 -0.60413048509E+03  0.82214210424E+03  0.93272153999E+02 0.  0.
        254    2    1    2    0    0 -0.37598756169E+03  0.40109556877E+03 -0.17248642918E+03  0.10694792120E+04  0.90099384839E+03 0.  0.
         23    2    4    4    0    0 -0.50006097889E+03  0.55316248477E+03  0.57267882874E+02  0.75350365659E+03  0.91860943406E+02 0.  0.
         23    2    4    4    0    0  0.12407341721E+03 -0.15206691599E+03 -0.22975431205E+03  0.31597555542E+03  0.92384781850E+02 0.  0.
         13    1    3    3    0    0  0.82087309533E+02 -0.40779619990E+02 -0.11835035954E+03  0.14969339129E+03  0.00000000000E+00 0. -1.
        -13    1    3    3    0    0  0.29390025216E+03 -0.36031594878E+03 -0.48578012555E+03  0.67244871295E+03  0.00000000000E+00 0.  1.
          2    1    5    5  502    0 -0.24161670413E+03  0.19983508038E+03  0.26314049788E+02  0.31465079100E+03  0.00000000000E+00 0.  1.
          3    1    6    6  503    0 -0.11516975480E+02 -0.18583463102E+02 -0.48459687844E+02  0.53163212573E+02  0.00000000000E+00 0. -1.
         -2    1    5    5    0  502 -0.25844427476E+03  0.35332740439E+03  0.30953833086E+02  0.43885286559E+03  0.00000000000E+00 0. -1.
         -3    1    6    6    0  503  0.13559039269E+03 -0.13348345289E+03 -0.18129462421E+03  0.26281234285E+03  0.00000000000E+00 0.  1.
<mgrwt>
<rscale>  0 0.17248471E+04</rscale>
<asrwt>0</asrwt>
<pdfrwt beam="1">  1        2 0.85769570E-01 0.17248471E+04</pdfrwt>
<pdfrwt beam="2">  1       -2 0.20524909E+00 0.17248471E+04</pdfrwt>
<totfact> 0.63174246E+00</totfact>
</mgrwt>
</event>
<event>
12    1  0.4403484E-008  0.2646887E+04  0.7818608E-02  0.8352447E-01
          1   -1    0    0  501    0  0.00000000000E+00  0.00000000000E+00  0.11091274336E+04  0.11091274336E+04  0.00000000000E+00 0. -1.
         -1   -1    0    0    0  501 -0.00000000000E+00 -0.00000000000E+00 -0.15791719444E+04  0.15791719444E+04  0.00000000000E+00 0.  1.
         23    2    1    2    0    0  0.18050309638E+03  0.85409681060E+03  0.58027064459E+03  0.10522559213E+04  0.92009636610E+02 0.  0.
        254    2    1    2    0    0 -0.18050309638E+03 -0.85409681060E+03 -0.10503151554E+04  0.16360434567E+04  0.90078495590E+03 0.  0.
         23    2    4    4    0    0  0.61582863690E+02 -0.74751805086E+03 -0.11172458645E+04  0.13489047985E+04  0.93435262346E+02 0.  0.
         23    2    4    4    0    0 -0.24208596007E+03 -0.10657875974E+03  0.66930709120E+02  0.28713865814E+03  0.89466446718E+02 0.  0.
         13    1    3    3    0    0  0.14033715106E+03  0.59157488231E+03  0.45025723897E+03  0.75656258075E+03  0.00000000000E+00 0. -1.
        -13    1    3    3    0    0  0.40165945317E+02  0.26252192829E+03  0.13001340563E+03  0.29569334054E+03  0.00000000000E+00 0.  1.
          1    1    6    6  502    0 -0.16426398256E+03 -0.54028114649E+02  0.19278283736E+01  0.17293180639E+03  0.00000000000E+00 0. -1.
          1    1    5    5  503    0 -0.23472692115E+02 -0.20910293998E+03 -0.32950893447E+03  0.39096181998E+03  0.00000000000E+00 0. -1.
         -1    1    5    5    0  503  0.85055555805E+02 -0.53841511087E+03 -0.78773693003E+03  0.95794297853E+03  0.00000000000E+00 0.  1.
         -1    1    6    6    0  502 -0.77821977510E+02 -0.52550645091E+02  0.65002880746E+02  0.11420685176E+03  0.00000000000E+00 0.  1.
<mgrwt>
<rscale>  0 0.26468872E+04</rscale>
<asrwt>0</asrwt>
<pdfrwt beam="1">  1        1 0.17063499E+00 0.26468872E+04</pdfrwt>
<pdfrwt beam="2">  1       -1 0.24294953E+00 0.26468872E+04</pdfrwt>
<totfact> 0.84874938E-01</totfact>
</mgrwt>
</event>
<event>
12    1  0.4403484E-008  0.2495309E+04  0.7818608E-02  0.8404659E-01
          2   -1    0    0  501    0  0.00000000000E+00  0.00000000000E+00  0.22312322482E+04  0.22312322482E+04  0.00000000000E+00 0.  1.
         -2   -1    0    0    0  501 -0.00000000000E+00 -0.00000000000E+00 -0.69765994093E+03  0.69765994093E+03  0.00000000000E+00 0. -1.
         23    2    1    2    0    0 -0.59913365266E+03  0.46251103029E+03 -0.24318427915E+03  0.80016628895E+03  0.90829012197E+02 0.  0.
        254    2    1    2    0    0  0.59913365266E+03 -0.46251103029E+03  0.17767565864E+04  0.21287259002E+04  0.89539511048E+03 0.  0.
         23    2    4    4    0    0  0.41022741701E+03 -0.28262266470E+03  0.17822414571E+04  0.18528131359E+04  0.91486615865E+02 0.  0.
         23    2    4    4    0    0  0.18890623565E+03 -0.17988836559E+03 -0.54848706942E+01  0.27591276428E+03  0.89735053028E+02 0.  0.
         13    1    3    3    0    0 -0.39941079466E+03  0.28042443599E+03 -0.19549369937E+03  0.52572296287E+03  0.00000000000E+00 0. -1.
        -13    1    3    3    0    0 -0.19972285800E+03  0.18208659430E+03 -0.47690579772E+02  0.27444332608E+03  0.00000000000E+00 0.  1.
          1    1    5    5  502    0  0.30662938513E+03 -0.25591741940E+03  0.13896070242E+04  0.14458640970E+04  0.00000000000E+00 0. -1.
          3    1    6    6  503    0  0.19082273146E+03 -0.17632115558E+03 -0.20252003493E+02  0.26060047658E+03  0.00000000000E+00 0. -1.
         -1    1    5    5    0  502  0.10359803189E+03 -0.26705245300E+02  0.39263443294E+03  0.40694903891E+03  0.00000000000E+00 0.  1.
         -3    1    6    6    0  503 -0.19164958108E+01 -0.35672100110E+01  0.14767132799E+02  0.15312287699E+02  0.00000000000E+00 0.  1.
<mgrwt>
<rscale>  0 0.24953087E+04</rscale>
<asrwt>0</asrwt>
<pdfrwt beam="1">  1        2 0.34326650E+00 0.24953087E+04</pdfrwt>
<pdfrwt beam="2">  1       -2 0.10733230E+00 0.24953087E+04</pdfrwt>
<totfact> 0.30842210E+00</totfact>
</mgrwt>
</event>
<event>
12    1  0.4403484E-008  0.1716534E+04  0.7818608E-02  0.8751990E-01
          2   -1    0    0  501    0  0.00000000000E+00  0.00000000000E+00  0.17857151059E+04  0.17857151059E+04  0.00000000000E+00 0. -1.
         -2   -1    0    0    0  501 -0.00000000000E+00 -0.00000000000E+00 -0.41250807820E+03  0.41250807820E+03  0.00000000000E+00 0.  1.
         23    2    1    2    0    0  0.18772139683E+03  0.52163145799E+03  0.78687186888E+03  0.96680548108E+03  0.90591387119E+02 0.  0.
        254    2    1    2    0    0 -0.18772139683E+03 -0.52163145799E+03  0.58633515883E+03  0.12314177030E+04  0.93019457108E+03 0.  0.
         23    2    4    4    0    0  0.31484025517E+03  0.17116878119E+02  0.26632541144E+03  0.42297294912E+03  0.92517658380E+02 0.  0.
         23    2    4    4    0    0 -0.50256165200E+03 -0.53874833611E+03  0.32000974738E+03  0.80844475392E+03  0.91425915323E+02 0.  0.
         11    1    3    3    0    0  0.49346948291E+02  0.24827685000E+03  0.39901434131E+03  0.47253461261E+03  0.00000000000E+00 0.  1.
        -11    1    3    3    0    0  0.13837444853E+03  0.27335460800E+03  0.38785752758E+03  0.49427086847E+03  0.00000000000E+00 0. -1.
          4    1    5    5  502    0  0.29571494373E+03 -0.90418612143E+01  0.23405911146E+03  0.37724362269E+03  0.00000000000E+00 0. -1.
          3    1    6    6  503    0 -0.44810701327E+03 -0.46965462855E+03  0.24849876449E+03  0.69507337844E+03  0.00000000000E+00 0. -1.
         -4    1    5    5    0  502  0.19125311438E+02  0.26158739333E+02  0.32266299985E+02  0.45729326431E+02  0.00000000000E+00 0.  1.
         -3    1    6    6    0  503 -0.54454638727E+02 -0.69093707560E+02  0.71510982891E+02  0.11337137548E+03  0.00000000000E+00 0.  1.
<mgrwt>
<rscale>  0 0.17165336E+04</rscale>
<asrwt>0</asrwt>
<pdfrwt beam="1">  1        2 0.27472540E+00 0.17165336E+04</pdfrwt>
<pdfrwt beam="2">  1       -2 0.63462782E-01 0.17165336E+04</pdfrwt>
<totfact> 0.19191597E+01</totfact>
</mgrwt>
</event>
<event>
12    1  0.4403484E-008  0.1571075E+04  0.7818608E-02  0.8838517E-01
         -2   -1    0    0    0  501 -0.00000000000E+00  0.00000000000E+00  0.30833679657E+03  0.30833679657E+03  0.00000000000E+00 0. -1.
          2   -1    0    0  501    0  0.00000000000E+00 -0.00000000000E+00 -0.20012831973E+04  0.20012831973E+04  0.00000000000E+00 0.  1.
         23    2    1    2    0    0 -0.34570613668E+03 -0.70487885857E+02 -0.11437790750E+04  0.12004642247E+04  0.91665192008E+02 0.  0.
        254    2    1    2    0    0  0.34570613668E+03  0.70487885857E+02 -0.54916732579E+03  0.11091557692E+04  0.89674996161E+03 0.  0.
         23    2    4    4    0    0 -0.23163697154E+03  0.16145092834E+03  0.82802352727E+01  0.29635097888E+03  0.89628408107E+02 0.  0.
         23    2    4    4    0    0  0.57734310822E+03 -0.90963042482E+02 -0.55744756106E+03  0.81280479032E+03  0.91129052113E+02 0.  0.
         11    1    3    3    0    0 -0.13311137586E+03 -0.68727025531E+02 -0.41022131910E+03  0.43671910087E+03  0.00000000000E+00 0. -1.
        -11    1    3    3    0    0 -0.21259476082E+03 -0.17608603260E+01 -0.73355775586E+03  0.76374512381E+03  0.00000000000E+00 0.  1.
          1    1    5    5  502    0 -0.21071380713E+03  0.11207459447E+03  0.25510020209E+02  0.24002454952E+03  0.00000000000E+00 0. -1.
          3    1    6    6  503    0  0.44491554994E+03 -0.39391084422E+02 -0.38796280552E+03  0.59162204369E+03  0.00000000000E+00 0. -1.
         -1    1    5    5    0  502 -0.20923164406E+02  0.49376333865E+02 -0.17229784936E+02  0.56326429353E+02  0.00000000000E+00 0.  1.
         -3    1    6    6    0  503  0.13242755828E+03 -0.51571958059E+02 -0.16948475554E+03  0.22118274663E+03  0.00000000000E+00 0.  1.
<mgrwt>
<rscale>  0 0.15710751E+04</rscale>
<asrwt>0</asrwt>
<pdfrwt beam="1">  1        2 0.30788972E+00 0.15710751E+04</pdfrwt>
<pdfrwt beam="2">  1       -2 0.47436430E-01 0.15710751E+04</pdfrwt>
<totfact> 0.27005298E+01</totfact>
</mgrwt>
</event>
<event>
12    1  0.4403484E-008  0.1655299E+04  0.7818608E-02  0.8787278E-01
         -2   -1    0    0    0  501 -0.00000000000E+00  0.00000000000E+00  0.15775485458E+04  0.15775485458E+04  0.00000000000E+00 0.  1.
          2   -1    0    0  501    0  0.00000000000E+00 -0.00000000000E+00 -0.43422060618E+03  0.43422060618E+03  0.00000000000E+00 0. -1.
         23    2    1    2    0    0  0.48103347939E+03  0.21367375306E+03  0.71171845831E+03  0.89027183582E+03  0.94821393735E+02 0.  0.
        254    2    1    2    0    0 -0.48103347939E+03 -0.21367375306E+03  0.43160948126E+03  0.11214973161E+04  0.89130230826E+03 0.  0.
         23    2    4    4    0    0  0.10322745952E+03 -0.29674651973E+03  0.40949090776E+03  0.52404329890E+03  0.90687210872E+02 0.  0.
         23    2    4    4    0    0 -0.58426093891E+03  0.83072766672E+02  0.22118573499E+02  0.59745401722E+03  0.90554635967E+02 0.  0.
         11    1    3    3    0    0  0.29308778706E+02  0.33373553522E+02  0.94737777518E+02  0.10463290626E+03  0.00000000000E+00 0. -1.
        -11    1    3    3    0    0  0.45172470069E+03  0.18030019954E+03  0.61698068080E+03  0.78563892956E+03  0.00000000000E+00 0.  1.
          2    1    5    5  502    0  0.69233098341E+02 -0.23784236611E+03  0.25634663922E+03  0.35647694521E+03  0.00000000000E+00 0. -1.
          2    1    6    6  503    0 -0.54656196308E+03  0.97487007506E+02  0.31273440721E+02  0.55606809314E+03  0.00000000000E+00 0. -1.
         -2    1    5    5    0  502  0.33994361177E+02 -0.58904153623E+02  0.15314426854E+03  0.16756635370E+03  0.00000000000E+00 0.  1.
         -2    1    6    6    0  503 -0.37698975831E+02 -0.14414240834E+02 -0.91548672219E+01  0.41385924073E+02  0.00000000000E+00 0.  1.
<mgrwt>
<rscale>  0 0.16552995E+04</rscale>
<asrwt>0</asrwt>
<pdfrwt beam="1">  1        2 0.66803171E-01 0.16552995E+04</pdfrwt>
<pdfrwt beam="2">  1       -2 0.24269977E+00 0.16552995E+04</pdfrwt>
<totfact> 0.49302922E+00</totfact>
</mgrwt>
</event>
<event>
12    1  0.4403484E-008  0.1475617E+04  0.7818608E-02  0.8900831E-01
         -2   -1    0    0    0  501 -0.00000000000E+00  0.00000000000E+00  0.54666664864E+03  0.54666664864E+03  0.00000000000E+00 0.  1.
          2   -1    0    0  501    0  0.00000000000E+00 -0.00000000000E+00 -0.99578279608E+03  0.99578279608E+03  0.00000000000E+00 0. -1.
         23    2    1    2    0    0  0.66585703625E+01  0.42151141903E+03  0.46108313536E+02  0.43386877914E+03  0.91651121143E+02 0.  0.
        254    2    1    2    0    0 -0.66585703625E+01 -0.42151141903E+03 -0.49522446097E+03  0.11085806656E+04  0.89776812842E+03 0.  0.
         23    2    4    4    0    0 -0.32827949534E+03 -0.28382960959E+03 -0.58919822821E+03  0.73720228371E+03  0.89364314070E+02 0.  0.
         23    2    4    4    0    0  0.32162092498E+03 -0.13768180944E+03  0.93973767238E+02  0.37137838186E+03  0.81820129263E+02 0.  0.
         13    1    3    3    0    0 -0.10674899776E+01  0.41277162372E+03  0.29839665517E+02  0.41385016434E+03  0.00000000000E+00 0.  1.
        -13    1    3    3    0    0  0.77260603401E+01  0.87397953099E+01  0.16268648019E+02  0.20018614807E+02  0.00000000000E+00 0. -1.
          4    1    5    5  502    0 -0.24675816574E+03 -0.24528334942E+03 -0.50883372735E+03  0.61641323473E+03  0.00000000000E+00 0.  1.
          1    1    6    6  503    0  0.17896243457E+03 -0.43884237336E+02  0.20127767776E+02  0.18536047667E+03  0.00000000000E+00 0. -1.
         -4    1    5    5    0  502 -0.81521329605E+02 -0.38546260174E+02 -0.80364500863E+02  0.12078904898E+03  0.00000000000E+00 0. -1.
         -1    1    6    6    0  503  0.14265849041E+03 -0.93797572100E+02  0.73845999463E+02  0.18601790520E+03  0.00000000000E+00 0.  1.
<mgrwt>
<rscale>  0 0.14756168E+04</rscale>
<asrwt>0</asrwt>
<pdfrwt beam="1">  1        2 0.15319735E+00 0.14756168E+04</pdfrwt>
<pdfrwt beam="2">  1       -2 0.84102562E-01 0.14756168E+04</pdfrwt>
<totfact> 0.30292119E+01</totfact>
</mgrwt>
</event>
<event>
12    1  0.4403484E-008  0.1202773E+04  0.7818608E-02  0.9110433E-01
          1   -1    0    0  501    0  0.00000000000E+00  0.00000000000E+00  0.23046109096E+03  0.23046109096E+03  0.00000000000E+00 0. -1.
         -1   -1    0    0    0  501 -0.00000000000E+00 -0.00000000000E+00 -0.15693126356E+04  0.15693126356E+04  0.00000000000E+00 0.  1.
         23    2    1    2    0    0 -0.55447392348E+01  0.67386860376E+02  0.41310613271E+02  0.14497002172E+03  0.12140019499E+03 0.  0.
        254    2    1    2    0    0  0.55447392348E+01 -0.67386860376E+02 -0.13801621580E+04  0.16548037049E+04  0.91047020069E+03 0.  0.
         23    2    4    4    0    0 -0.19201345324E+03 -0.29678255372E+03 -0.16841766993E+03  0.40248874408E+03  0.93185981477E+02 0.  0.
         23    2    4    4    0    0  0.19755819247E+03  0.22939569335E+03 -0.12117444880E+04  0.12523149608E+04  0.91194480416E+02 0.  0.
         13    1    3    3    0    0  0.22601090984E+02  0.43303791987E+02 -0.35035047622E+02  0.60112247305E+02  0.00000000000E+00 0.  1.
        -13    1    3    3    0    0 -0.28145830219E+02  0.24083068389E+02  0.76345660893E+02  0.84857774417E+02  0.00000000000E+00 0. -1.
          1    1    5    5  502    0 -0.12300333405E+03 -0.19813119409E+03 -0.15790480486E+03  0.28163756436E+03  0.00000000000E+00 0. -1.
          1    1    6    6  503    0  0.19583714107E+03  0.21440440364E+03 -0.10360738599E+04  0.10759974337E+04  0.00000000000E+00 0. -1.
         -1    1    5    5    0  502 -0.69010119186E+02 -0.98651359632E+02 -0.10512865074E+02  0.12085117972E+03  0.00000000000E+00 0.  1.
         -1    1    6    6    0  503  0.17210514008E+01  0.14991289706E+02 -0.17567062811E+03  0.17631752710E+03  0.00000000000E+00 0.  1.
<mgrwt>
<rscale>  0 0.12027726E+04</rscale>
<asrwt>0</asrwt>
<pdfrwt beam="1">  1        1 0.35455553E-01 0.12027726E+04</pdfrwt>
<pdfrwt beam="2">  1       -1 0.24143271E+00 0.12027726E+04</pdfrwt>
<totfact> 0.97262295E+00</totfact>
</mgrwt>
</event>
<event>
12    1  0.4403484E-008  0.1431917E+04  0.7818608E-02  0.8931034E-01
          2   -1    0    0  501    0  0.00000000000E+00  0.00000000000E+00  0.21641859316E+04  0.21641859316E+04  0.00000000000E+00 0. -1.
         -2   -1    0    0    0  501 -0.00000000000E+00 -0.00000000000E+00 -0.23685419385E+03  0.23685419385E+03  0.00000000000E+00 0.  1.
         23    2    1    2    0    0  0.16202261541E+03  0.15514018430E+03  0.11415466433E+04  0.11666369996E+04  0.87139802857E+02 0.  0.
        254    2    1    2    0    0 -0.16202261541E+03 -0.15514018430E+03  0.78578509445E+03  0.12344031259E+04  0.92518812026E+03 0.  0.
         23    2    4    4    0    0  0.95887235638E+02 -0.48635862984E+03  0.30536804763E+03  0.58901548270E+03  0.89165663593E+02 0.  0.
         23    2    4    4    0    0 -0.25790985105E+03  0.33121844554E+03  0.48041704682E+03  0.64538764320E+03  0.97475746656E+02 0.  0.
         13    1    3    3    0    0  0.76713367142E+02  0.12131852161E+03  0.81022037137E+03  0.82283666335E+03  0.00000000000E+00 0. -1.
        -13    1    3    3    0    0  0.85309248266E+02  0.33821662691E+02  0.33132627196E+03  0.34380033624E+03  0.00000000000E+00 0.  1.
          1    1    6    6  502    0 -0.21132634782E+03  0.22134004602E+03  0.29621935891E+03  0.42590626885E+03  0.00000000000E+00 0.  1.
          1    1    5    5  503    0  0.18656353106E+01 -0.18503666495E+03  0.82432644839E+02  0.20257637796E+03  0.00000000000E+00 0. -1.
         -1    1    5    5    0  503  0.94021600328E+02 -0.30132196488E+03  0.22293540280E+03  0.38643910474E+03  0.00000000000E+00 0.  1.
         -1    1    6    6    0  502 -0.46583503230E+02  0.10987839952E+03  0.18419768791E+03  0.21948137435E+03  0.00000000000E+00 0. -1.
<mgrwt>
<rscale>  0 0.14319169E+04</rscale>
<asrwt>0</asrwt>
<pdfrwt beam="1">  1        2 0.33295167E+00 0.14319169E+04</pdfrwt>
<pdfrwt beam="2">  1       -2 0.36439108E-01 0.14319169E+04</pdfrwt>
<totfact> 0.37283279E+01</totfact>
</mgrwt>
</event>
<event>
12    1  0.4403484E-008  0.1329670E+04  0.7818608E-02  0.9006362E-01
          2   -1    0    0  501    0  0.00000000000E+00  0.00000000000E+00  0.37131074320E+03  0.37131074320E+03  0.00000000000E+00 0. -1.
         -2   -1    0    0    0  501 -0.00000000000E+00 -0.00000000000E+00 -0.11903918191E+04  0.11903918191E+04  0.00000000000E+00 0.  1.
         23    2    1    2    0    0 -0.14668835700E+03  0.18228804071E+03  0.78601694450E+02  0.26299490665E+03  0.90783757822E+02 0.  0.
        254    2    1    2    0    0  0.14668835700E+03 -0.18228804071E+03 -0.89768277032E+03  0.12987076556E+04  0.90887887794E+03 0.  0.
         23    2    4    4    0    0 -0.29141691347E+03 -0.19335949218E+03 -0.74025339604E+03  0.82385235307E+03  0.91901570326E+02 0.  0.
         23    2    4    4    0    0  0.43810527048E+03  0.11071451463E+02 -0.15742937428E+03  0.47485530255E+03  0.92977123083E+02 0.  0.
         11    1    3    3    0    0 -0.46745623148E+02  0.12501109747E+03  0.24355491779E+02  0.13566914813E+03  0.00000000000E+00 0. -1.
        -11    1    3    3    0    0 -0.99942733856E+02  0.57276943242E+02  0.54246202671E+02  0.12732575852E+03  0.00000000000E+00 0.  1.
          4    1    5    5  502    0 -0.17398662440E+02  0.97131879636E+01 -0.30948479982E+02  0.36808530103E+02  0.00000000000E+00 0.  1.
          1    1    6    6  503    0  0.43799317641E+03  0.20584776151E+02 -0.15451426266E+03  0.46490473536E+03  0.00000000000E+00 0. -1.
         -4    1    5    5    0  502 -0.27401825103E+03 -0.20307268014E+03 -0.70930491606E+03  0.78704382296E+03  0.00000000000E+00 0. -1.
         -1    1    6    6    0  503  0.11209406553E+00 -0.95133246882E+01 -0.29151116164E+01  0.99505671918E+01  0.00000000000E+00 0.  1.
<mgrwt>
<rscale>  0 0.13296695E+04</rscale>
<asrwt>0</asrwt>
<pdfrwt beam="1">  1        2 0.57124730E-01 0.13296695E+04</pdfrwt>
<pdfrwt beam="2">  1       -2 0.18313720E+00 0.13296695E+04</pdfrwt>
<totfact> 0.14577158E+01</totfact>
</mgrwt>
</event>
<event>
12    1  0.4403484E-008  0.1698061E+04  0.7818608E-02  0.8762471E-01
          1   -1    0    0  501    0  0.00000000000E+00  0.00000000000E+00  0.78538601055E+03  0.78538601055E+03  0.00000000000E+00 0. -1.
         -1   -1    0    0    0  501 -0.00000000000E+00 -0.00000000000E+00 -0.91783267238E+03  0.91783267238E+03  0.00000000000E+00 0.  1.
         23    2    1    2    0    0 -0.45303876355E+03 -0.37888536373E+03 -0.66125853974E+02  0.60097912797E+03  0.89470909009E+02 0.  0.
        254    2    1    2    0    0  0.45303876355E+03  0.37888536373E+03 -0.66320807861E+02  0.11022395550E+04  0.92829701435E+03 0.  0.
         23    2    4    4    0    0  0.25353963136E+03  0.29810586044E+03  0.40800252307E+03  0.57259774320E+03  0.90844196182E+02 0.  0.
         23    2    4    4    0    0  0.19949913219E+03  0.80779503287E+02 -0.47432333093E+03  0.52964181177E+03  0.95982261976E+02 0.  0.
         11    1    3    3    0    0 -0.86673282495E+02 -0.85913932703E+02 -0.49169275474E+02  0.13157157513E+03  0.00000000000E+00 0.  1.
        -11    1    3    3    0    0 -0.36636548106E+03 -0.29297143103E+03 -0.16956578500E+02  0.46940755284E+03  0.00000000000E+00 0. -1.
          4    1    5    5  502    0  0.24669123231E+02  0.66922291821E+02  0.11195005373E+03  0.13274024753E+03  0.00000000000E+00 0. -1.
          1    1    6    6  503    0  0.99817806710E+00  0.32428268455E+01  0.44419506195E+01  0.55895626582E+01  0.00000000000E+00 0. -1.
         -4    1    5    5    0  502  0.22887050813E+03  0.23118356862E+03  0.29605246934E+03  0.43985749567E+03  0.00000000000E+00 0.  1.
         -1    1    6    6    0  503  0.19850095412E+03  0.77536676442E+02 -0.47876528155E+03  0.52405224911E+03  0.00000000000E+00 0.  1.
<mgrwt>
<rscale>  0 0.16980612E+04</rscale>
<asrwt>0</asrwt>
<pdfrwt beam="1">  1        1 0.12082862E+00 0.16980612E+04</pdfrwt>
<pdfrwt beam="2">  1       -1 0.14120503E+00 0.16980612E+04</pdfrwt>
<totfact> 0.88840205E+00</totfact>
</mgrwt>
</event>
<event>
12    1  0.4403484E-008  0.1936445E+04  0.7818608E-02  0.8636925E-01
          2   -1    0    0  501    0  0.00000000000E+00  0.00000000000E+00  0.14586888069E+04  0.14586888069E+04  0.00000000000E+00 0.  1.
         -2   -1    0    0    0  501 -0.00000000000E+00 -0.00000000000E+00 -0.64266951895E+03  0.64266951895E+03  0.00000000000E+00 0. -1.
         23    2    1    2    0    0  0.66603268864E+03  0.34497245730E+03  0.26709258558E+03  0.80149381510E+03  0.91914893992E+02 0.  0.
        254    2    1    2    0    0 -0.66603268864E+03 -0.34497245730E+03  0.54892670236E+03  0.12998645107E+04  0.90869229286E+03 0.  0.
         23    2    4    4    0    0 -0.83569004647E+03 -0.43429249844E+03  0.53534804326E+03  0.10872720476E+04  0.92602105786E+02 0.  0.
         23    2    4    4    0    0  0.16965735783E+03  0.89320041135E+02  0.13578659099E+02  0.21259246319E+03  0.90826684444E+02 0.  0.
         13    1    3    3    0    0  0.28035768937E+03  0.18403105723E+03  0.87213181224E+02  0.34651695917E+03  0.00000000000E+00 0. -1.
        -13    1    3    3    0    0  0.38567499927E+03  0.16094140007E+03  0.17987940436E+03  0.45497685593E+03  0.00000000000E+00 0.  1.
          1    1    5    5  502    0 -0.70798979980E+03 -0.39419212366E+03  0.48426385485E+03  0.94400660384E+03  0.00000000000E+00 0. -1.
          3    1    6    6  503    0  0.13060693401E+03  0.10158564137E+03  0.30590772877E+02  0.16826648249E+03  0.00000000000E+00 0. -1.
         -1    1    5    5    0  502 -0.12770024667E+03 -0.40100374775E+02  0.51084188414E+02  0.14326544371E+03  0.00000000000E+00 0.  1.
         -3    1    6    6    0  503  0.39050423827E+02 -0.12265600235E+02 -0.17012113778E+02  0.44325980704E+02  0.00000000000E+00 0.  1.
<mgrwt>
<rscale>  0 0.19364450E+04</rscale>
<asrwt>0</asrwt>
<pdfrwt beam="1">  1        2 0.22441366E+00 0.19364450E+04</pdfrwt>
<pdfrwt beam="2">  1       -2 0.98872234E-01 0.19364450E+04</pdfrwt>
<totfact> 0.10615973E+01</totfact>
</mgrwt>
</event>
<event>
12    1  0.4403484E-008  0.2679486E+04  0.7818608E-02  0.8341692E-01
          1   -1    0    0  501    0  0.00000000000E+00  0.00000000000E+00  0.38587308923E+04  0.38587308923E+04  0.00000000000E+00 0. -1.
         -1   -1    0    0    0  501 -0.00000000000E+00 -0.00000000000E+00 -0.46515601404E+03  0.46515601404E+03  0.00000000000E+00 0.  1.
         23    2    1    2    0    0  0.72725604989E+02 -0.10976135783E+04  0.81578976465E+03  0.13725479547E+04  0.91270844033E+02 0.  0.
        254    2    1    2    0    0 -0.72725604989E+02  0.10976135783E+04  0.25777851136E+04  0.29513389516E+04  0.92486806334E+03 0.  0.
         23    2    4    4    0    0 -0.39130440520E+03  0.10205283821E+04  0.19525458787E+04  0.22396055460E+04  0.93809791088E+02 0.  0.
         23    2    4    4    0    0  0.31857880021E+03  0.77085196163E+02  0.62523923488E+03  0.71173340562E+03  0.90585652457E+02 0.  0.
         13    1    3    3    0    0  0.71427058277E+02 -0.10981904587E+04  0.81704507970E+03  0.13706519509E+04  0.00000000000E+00 0.  1.
        -13    1    3    3    0    0  0.12985467125E+01  0.57688040327E+00 -0.12553150495E+01  0.18960038074E+01  0.00000000000E+00 0. -1.
          1    1    6    6  502    0  0.14950387977E+03  0.22471509835E+02  0.37936774628E+03  0.40838249931E+03  0.00000000000E+00 0. -1.
          1    1    5    5  503    0 -0.85544064953E+02  0.22603102360E+03  0.35613863708E+03  0.43039811744E+03  0.00000000000E+00 0. -1.
         -1    1    5    5    0  503 -0.30576034025E+03  0.79449735854E+03  0.15964072416E+04  0.18092074285E+04  0.00000000000E+00 0.  1.
         -1    1    6    6    0  502  0.16907492044E+03  0.54613686328E+02  0.24587148860E+03  0.30335090631E+03  0.00000000000E+00 0.  1.
<mgrwt>
<rscale>  0 0.26794864E+04</rscale>
<asrwt>0</asrwt>
<pdfrwt beam="1">  1        1 0.59365089E+00 0.26794864E+04</pdfrwt>
<pdfrwt beam="2">  1       -1 0.71562466E-01 0.26794864E+04</pdfrwt>
<totfact> 0.21939992E-01</totfact>
</mgrwt>
</event>
<event>
12    1  0.4403484E-008  0.3033344E+04  0.7818608E-02  0.8234273E-01
         -1   -1    0    0    0  501 -0.00000000000E+00  0.00000000000E+00  0.86171608858E+03  0.86171608858E+03  0.00000000000E+00 0.  1.
          1   -1    0    0  501    0  0.00000000000E+00 -0.00000000000E+00 -0.26694343338E+04  0.26694343338E+04  0.00000000000E+00 0. -1.
         23    2    1    2    0    0 -0.61141043732E+03 -0.73789606193E+03 -0.19904435858E+04  0.22110289665E+04  0.92033154101E+02 0.  0.
        254    2    1    2    0    0  0.61141043732E+03  0.73789606193E+03  0.18272534058E+03  0.13201214559E+04  0.88939236958E+03 0.  0.
         23    2    4    4    0    0 -0.85678815889E+02  0.23909960725E+03 -0.23925663184E+03  0.36033592577E+03  0.89937544096E+02 0.  0.
         23    2    4    4    0    0  0.69708925321E+03  0.49879645468E+03  0.42198197243E+03  0.95978553010E+03  0.91586836370E+02 0.  0.
         13    1    3    3    0    0 -0.34410216220E+03 -0.39309419753E+03 -0.11840198319E+04  0.12941531241E+04  0.00000000000E+00 0.  1.
        -13    1    3    3    0    0 -0.26730827513E+03 -0.34480186440E+03 -0.80642375390E+03  0.91687584246E+03  0.00000000000E+00 0. -1.
          4    1    5    5  502    0 -0.40499329597E+02  0.51668175488E+02 -0.20570665459E+02  0.68796426749E+02  0.00000000000E+00 0. -1.
          1    1    6    6  503    0  0.59888417381E+02  0.78402673372E+02  0.48550283454E+02  0.10995786353E+03  0.00000000000E+00 0. -1.
         -4    1    5    5    0  502 -0.45179486292E+02  0.18743143176E+03 -0.21868596638E+03  0.29153949902E+03  0.00000000000E+00 0.  1.
         -1    1    6    6    0  503  0.63720083583E+03  0.42039378131E+03  0.37343168897E+03  0.84982766657E+03  0.00000000000E+00 0.  1.
<mgrwt>
<rscale>  0 0.30333444E+04</rscale>
<asrwt>0</asrwt>
<pdfrwt beam="1">  1        1 0.41068221E+00 0.30333444E+04</pdfrwt>
<pdfrwt beam="2">  1       -1 0.13257171E+00 0.30333444E+04</pdfrwt>
<totfact> 0.42210355E-01</totfact>
</mgrwt>
</event>
<event>
12    1  0.4403484E-008  0.1285802E+04  0.7818608E-02  0.9040900E-01
         -1   -1    0    0    0  501 -0.00000000000E+00  0.00000000000E+00  0.38186418865E+03  0.38186418865E+03  0.00000000000E+00 0.  1.
          1   -1    0    0  501    0  0.00000000000E+00 -0.00000000000E+00 -0.10823795429E+04  0.10823795429E+04  0.00000000000E+00 0. -1.
         23    2    1    2    0    0 -0.23092245382E+03  0.19988758696E+03 -0.25561818179E+03  0.41016987686E+03  0.98073675991E+02 0.  0.
        254    2    1    2    0    0  0.23092245382E+03 -0.19988758696E+03 -0.44489717242E+03  0.10540738546E+04  0.90546008742E+03 0.  0.
         23    2    4    4    0    0  0.11102886436E+02 -0.15094264180E+03 -0.68799827774E+03  0.71034087729E+03  0.91299378851E+02 0.  0.
         23    2    4    4    0    0  0.21981956739E+03 -0.48944945162E+02  0.24310110532E+03  0.34373297735E+03  0.91312444098E+02 0.  0.
         13    1    3    3    0    0 -0.15573302664E+03  0.15540706798E+03 -0.12503029451E+03  0.25305475082E+03  0.00000000000E+00 0.  1.
        -13    1    3    3    0    0 -0.75189427178E+02  0.44480518979E+02 -0.13058788727E+03  0.15711512604E+03  0.00000000000E+00 0. -1.
          4    1    5    5  502    0  0.13158372205E+02  0.94915188797E+01 -0.69770798450E+02  0.71632367029E+02  0.00000000000E+00 0. -1.
          4    1    6    6  503    0  0.10871445971E+03 -0.47257175380E+02  0.68902580579E+02  0.13711177916E+03  0.00000000000E+00 0.  1.
         -4    1    5    5    0  502 -0.20554857686E+01 -0.16043416067E+03 -0.61822747929E+03  0.63870851027E+03  0.00000000000E+00 0.  1.
         -4    1    6    6    0  503  0.11110510768E+03 -0.16877697825E+01  0.17419852474E+03  0.20662119819E+03  0.00000000000E+00 0. -1.
<mgrwt>
<rscale>  0 0.12858025E+04</rscale>
<asrwt>0</asrwt>
<pdfrwt beam="1">  1        1 0.16651992E+00 0.12858025E+04</pdfrwt>
<pdfrwt beam="2">  1       -1 0.58748338E-01 0.12858025E+04</pdfrwt>
<totfact> 0.37758061E+01</totfact>
</mgrwt>
</event>
<event>
12    1  0.4403484E-008  0.2055131E+04  0.7818608E-02  0.8581270E-01
         -1   -1    0    0    0  501 -0.00000000000E+00  0.00000000000E+00  0.49762949762E+03  0.49762949762E+03  0.00000000000E+00 0.  1.
          1   -1    0    0  501    0  0.00000000000E+00 -0.00000000000E+00 -0.21218407129E+04  0.21218407129E+04  0.00000000000E+00 0. -1.
         23    2    1    2    0    0  0.18257991480E+03  0.20899627018E+03  0.33768235985E+03  0.44656217966E+03  0.91507037496E+02 0.  0.
        254    2    1    2    0    0 -0.18257991480E+03 -0.20899627018E+03 -0.19618935751E+04  0.21729080308E+04  0.89190136460E+03 0.  0.
         23    2    4    4    0    0 -0.50550030203E+03 -0.29017150261E+03 -0.12547908889E+04  0.13866074351E+04  0.91923598948E+02 0.  0.
         23    2    4    4    0    0  0.32292038723E+03  0.81175232436E+02 -0.70710268625E+03  0.78630059573E+03  0.86066387708E+02 0.  0.
         13    1    3    3    0    0  0.15506991226E+03  0.19349007022E+03  0.24473511160E+03  0.34839684243E+03  0.00000000000E+00 0. -1.
        -13    1    3    3    0    0  0.27510002542E+02  0.15506199956E+02  0.92947248251E+02  0.98165337235E+02  0.00000000000E+00 0.  1.
          1    1    5    5  502    0 -0.48731831048E+03 -0.29218471052E+03 -0.12361785680E+04  0.13605103795E+04  0.00000000000E+00 0. -1.
          3    1    6    6  503    0  0.32843805632E+03  0.78123581075E+02 -0.69365341955E+03  0.77144663925E+03  0.00000000000E+00 0. -1.
         -1    1    5    5    0  502 -0.18181991558E+02  0.20132079086E+01 -0.18612320895E+02  0.26097055623E+02  0.00000000000E+00 0.  1.
         -3    1    6    6    0  503 -0.55176690927E+01  0.30516513617E+01 -0.13449266706E+02  0.14853956482E+02  0.00000000000E+00 0.  1.
<mgrwt>
<rscale>  0 0.20551307E+04</rscale>
<asrwt>0</asrwt>
<pdfrwt beam="1">  1        1 0.32643703E+00 0.20551307E+04</pdfrwt>
<pdfrwt beam="2">  1       -1 0.76558384E-01 0.20551307E+04</pdfrwt>
<totfact> 0.38931068E+00</totfact>
</mgrwt>
</event>
<event>
12    1  0.4403484E-008  0.1736825E+04  0.7818608E-02  0.8740636E-01
         -1   -1    0    0    0  501 -0.00000000000E+00  0.00000000000E+00  0.48829054591E+03  0.48829054591E+03  0.00000000000E+00 0.  1.
          1   -1    0    0  501    0  0.00000000000E+00 -0.00000000000E+00 -0.15444507143E+04  0.15444507143E+04  0.00000000000E+00 0. -1.
         23    2    1    2    0    0 -0.77387386162E+02 -0.62381359718E+03 -0.31685017255E+03  0.70986774706E+03  0.91574968767E+02 0.  0.
        254    2    1    2    0    0  0.77387386162E+02  0.62381359718E+03 -0.73930999582E+03  0.13228735131E+04  0.89904552177E+03 0.  0.
         23    2    4    4    0    0 -0.18641504130E+03  0.21600091917E+02 -0.61192045052E+03  0.64695510242E+03  0.94271603292E+02 0.  0.
         23    2    4    4    0    0  0.26380242747E+03  0.60221350527E+03 -0.12738954530E+03  0.67591841070E+03  0.91568417066E+02 0.  0.
         11    1    3    3    0    0 -0.35164755661E+02 -0.18918173958E+03 -0.52685308342E+02  0.19950446698E+03  0.00000000000E+00 0. -1.
        -11    1    3    3    0    0 -0.42222630501E+02 -0.43463185761E+03 -0.26416486421E+03  0.51036328008E+03  0.00000000000E+00 0.  1.
          3    1    5    5  502    0 -0.15177584694E+03  0.49926285234E+02 -0.40770564895E+03  0.43789546453E+03  0.00000000000E+00 0. -1.
          3    1    6    6  503    0  0.16768344893E+03  0.27345163203E+03 -0.48365724684E+02  0.32439601945E+03  0.00000000000E+00 0. -1.
         -3    1    5    5    0  502 -0.34639194368E+02 -0.28326193317E+02 -0.20421480157E+03  0.20905963789E+03  0.00000000000E+00 0.  1.
         -3    1    6    6    0  503  0.96118978533E+02  0.32876187323E+03 -0.79023820612E+02  0.35152239125E+03  0.00000000000E+00 0.  1.
<mgrwt>
<rscale>  0 0.17368255E+04</rscale>
<asrwt>0</asrwt>
<pdfrwt beam="1">  1        1 0.23760780E+00 0.17368255E+04</pdfrwt>
<pdfrwt beam="2">  1       -1 0.75121623E-01 0.17368255E+04</pdfrwt>
<totfact> 0.10300996E+01</totfact>
</mgrwt>
</event>
<event>
12    1  0.4403484E-008  0.4886969E+04  0.7818608E-02  0.7846184E-01
          2   -1    0    0  501    0  0.00000000000E+00  0.00000000000E+00  0.30822402355E+04  0.30822402355E+04  0.00000000000E+00 0. -1.
         -2   -1    0    0    0  501 -0.00000000000E+00 -0.00000000000E+00 -0.19371027152E+04  0.19371027152E+04  0.00000000000E+00 0.  1.
         23    2    1    2    0    0 -0.85038453313E+03 -0.20928862654E+04  0.12525430820E+04  0.25847366411E+04  0.93126566080E+02 0.  0.
        254    2    1    2    0    0  0.85038453313E+03  0.20928862654E+04 -0.10740556173E+03  0.24346063097E+04  0.90135739550E+03 0.  0.
         23    2    4    4    0    0  0.37449128610E+03  0.11699567717E+04  0.37284243777E+03  0.12869952951E+04  0.91119893593E+02 0.  0.
         23    2    4    4    0    0  0.47589324704E+03  0.92292949366E+03 -0.48024799950E+03  0.11476110146E+04  0.89998150221E+02 0.  0.
         13    1    3    3    0    0 -0.71739822936E+03 -0.18367066297E+04  0.11104198362E+04  0.22630032425E+04  0.00000000000E+00 0. -1.
        -13    1    3    3    0    0 -0.13298630377E+03 -0.25617963573E+03  0.14212324584E+03  0.32173339858E+03  0.00000000000E+00 0.  1.
          2    1    5    5  502    0  0.36651772234E+03  0.11599281424E+04  0.37698021497E+03  0.12735315539E+04  0.00000000000E+00 0. -1.
          3    1    6    6  503    0  0.37951838338E+03  0.75560302375E+03 -0.35256759125E+03  0.91611900931E+03  0.00000000000E+00 0. -1.
         -2    1    5    5    0  502  0.79735637551E+01  0.10028629291E+02 -0.41377772058E+01  0.13463741108E+02  0.00000000000E+00 0.  1.
         -3    1    6    6    0  503  0.96374863655E+02  0.16732646992E+03 -0.12768040825E+03  0.23149200533E+03  0.00000000000E+00 0.  1.
<mgrwt>
<rscale>  0 0.48869688E+04</rscale>
<asrwt>0</asrwt>
<pdfrwt beam="1">  1        2 0.47419081E+00 0.48869688E+04</pdfrwt>
<pdfrwt beam="2">  1       -2 0.29801580E+00 0.48869688E+04</pdfrwt>
<totfact> 0.37062027E-02</totfact>
</mgrwt>
</event>
<event>
12    1  0.4403484E-008  0.1184547E+04  0.7818608E-02  0.9126491E-01
          1   -1    0    0  501    0  0.00000000000E+00  0.00000000000E+00  0.64445829084E+03  0.64445829084E+03  0.00000000000E+00 0. -1.
         -1   -1    0    0    0  501 -0.00000000000E+00 -0.00000000000E+00 -0.54431455867E+03  0.54431455867E+03  0.00000000000E+00 0.  1.
         23    2    1    2    0    0 -0.54303663785E+02  0.66908595896E+02 -0.20908570594E+03  0.24364998682E+03  0.90679851920E+02 0.  0.
        254    2    1    2    0    0  0.54303663785E+02 -0.66908595896E+02  0.30922943811E+03  0.94512286269E+03  0.88893685495E+03 0.  0.
         23    2    4    4    0    0 -0.32131396682E+02  0.36216033750E+03 -0.40482860245E+02  0.37823635369E+03  0.96079865546E+02 0.  0.
         23    2    4    4    0    0  0.86435060467E+02 -0.42906893340E+03  0.34971229835E+03  0.56688650901E+03  0.86547404292E+02 0.  0.
         13    1    3    3    0    0 -0.23641542511E+02 -0.11208751466E+02 -0.10741713038E+02  0.28283264322E+02  0.00000000000E+00 0. -1.
        -13    1    3    3    0    0 -0.30662121274E+02  0.78117347362E+02 -0.19834399290E+03  0.21536672250E+03  0.00000000000E+00 0.  1.
          2    1    5    5  502    0  0.26232955065E+02  0.94246472152E+02  0.13557910643E+02  0.98764276869E+02  0.00000000000E+00 0. -1.
          1    1    6    6  503    0  0.21892819520E+02 -0.90486203717E+02  0.32938053729E+02  0.98752032856E+02  0.00000000000E+00 0. -1.
         -2    1    5    5    0  502 -0.58364351747E+02  0.26791386535E+03 -0.54040770888E+02  0.27947207682E+03  0.00000000000E+00 0.  1.
         -1    1    6    6    0  503  0.64542240947E+02 -0.33858272968E+03  0.31677424462E+03  0.46813447615E+03  0.00000000000E+00 0.  1.
<mgrwt>
<rscale>  0 0.11845472E+04</rscale>
<asrwt>0</asrwt>
<pdfrwt beam="1">  1        1 0.99147430E-01 0.11845472E+04</pdfrwt>
<pdfrwt beam="2">  1       -1 0.83740701E-01 0.11845472E+04</pdfrwt>
<totfact> 0.43240621E+01</totfact>
</mgrwt>
</event>
<event>
12    1  0.4403484E-008  0.2007725E+04  0.7818608E-02  0.8603017E-01
          2   -1    0    0  501    0  0.00000000000E+00  0.00000000000E+00  0.16694958423E+04  0.16694958423E+04  0.00000000000E+00 0. -1.
         -2   -1    0    0    0  501 -0.00000000000E+00 -0.00000000000E+00 -0.60361959058E+03  0.60361959058E+03  0.00000000000E+00 0.  1.
         23    2    1    2    0    0 -0.42287938743E+03  0.14210684111E+01  0.11982317178E+04  0.12739847915E+04  0.91918461416E+02 0.  0.
        254    2    1    2    0    0  0.42287938743E+03 -0.14210684111E+01 -0.13235546607E+03  0.99913064144E+03  0.89549710972E+03 0.  0.
         23    2    4    4    0    0  0.50549429983E+03  0.33365640545E+03  0.15932329904E+02  0.61283503388E+03  0.91988344696E+02 0.  0.
         23    2    4    4    0    0 -0.82614912403E+02 -0.33507747386E+03 -0.14828779598E+03  0.38629560756E+03  0.90182530138E+02 0.  0.
         13    1    3    3    0    0 -0.37810600074E+03  0.24684674489E+02  0.99846956332E+03  0.10679489453E+04  0.00000000000E+00 0.  1.
        -13    1    3    3    0    0 -0.44773386684E+02 -0.23263606078E+02  0.19976215449E+03  0.20603584612E+03  0.00000000000E+00 0. -1.
          3    1    5    5  502    0  0.64085899664E+02  0.43420538420E+02  0.33305219318E+02  0.84270892521E+02  0.00000000000E+00 0. -1.
          3    1    6    6  503    0 -0.48650467726E+02 -0.84245478473E+02 -0.98263127477E+01  0.97778960289E+02  0.00000000000E+00 0. -1.
         -3    1    5    5    0  502  0.44140840017E+03  0.29023586703E+03 -0.17372889413E+02  0.52856414136E+03  0.00000000000E+00 0.  1.
         -3    1    6    6    0  503 -0.33964444677E+02 -0.25083199539E+03 -0.13846148323E+03  0.28851664727E+03  0.00000000000E+00 0.  1.
<mgrwt>
<rscale>  0 0.20077255E+04</rscale>
<asrwt>0</asrwt>
<pdfrwt beam="1">  1        2 0.25684551E+00 0.20077255E+04</pdfrwt>
<pdfrwt beam="2">  1       -2 0.92864553E-01 0.20077255E+04</pdfrwt>
<totfact> 0.93059338E+00</totfact>
</mgrwt>
</event>
<event>
12    1  0.4504227E-008  0.1957199E+04  0.7818608E-02  0.8626897E-01
          2   -1    0    0  501    0  0.00000000000E+00  0.00000000000E+00  0.22645576562E+04  0.22645576562E+04  0.00000000000E+00 0.  1.
         -2   -1    0    0    0  501 -0.00000000000E+00 -0.00000000000E+00 -0.42288918255E+03  0.42288918255E+03  0.00000000000E+00 0. -1.
         23    2    1    2    0    0 -0.60943366709E+03  0.10961553048E+03  0.10759110833E+03  0.63547102338E+03  0.93928780818E+02 0.  0.
        254    2    1    2    0    0  0.60943366709E+03 -0.10961553048E+03  0.17340773653E+04  0.20519758153E+04  0.90562435854E+03 0.  0.
         23    2    4    4    0    0  0.21451555010E+03  0.30932582546E+03  0.12048838768E+04  0.12650519535E+04  0.83137842004E+02 0.  0.
         23    2    4    4    0    0  0.39491811699E+03 -0.41894135594E+03  0.52919348843E+03  0.78692386185E+03  0.87927454754E+02 0.  0.
         11    1    3    3    0    0 -0.21653654088E+03  0.23543044771E+02 -0.47422405370E+01  0.21786426356E+03  0.00000000000E+00 0. -1.
        -11    1    3    3    0    0 -0.39289712621E+03  0.86072485707E+02  0.11233334887E+03  0.41760675982E+03  0.00000000000E+00 0.  1.
          1    1    5    5  502    0  0.15072572876E+03  0.25655948980E+03  0.84795435803E+03  0.89864765643E+03  0.00000000000E+00 0. -1.
          3    1    6    6  503    0  0.36053476142E+03 -0.37088750740E+03  0.50557506398E+03  0.72329039994E+03  0.00000000000E+00 0. -1.
         -1    1    5    5    0  502  0.63789821337E+02  0.52766335665E+02  0.35692951882E+03  0.36640429704E+03  0.00000000000E+00 0.  1.
         -3    1    6    6    0  503  0.34383355573E+02 -0.48053848538E+02  0.23618424455E+02  0.63633461902E+02  0.00000000000E+00 0.  1.
<mgrwt>
<rscale>  0 0.19571990E+04</rscale>
<asrwt>0</asrwt>
<pdfrwt beam="1">  1        2 0.34839348E+00 0.19571990E+04</pdfrwt>
<pdfrwt beam="2">  1       -2 0.65059876E-01 0.19571990E+04</pdfrwt>
<totfact> 0.96464988E+00</totfact>
</mgrwt>
</event>
<event>
12    1  0.4403484E-008  0.1427850E+04  0.7818608E-02  0.8933903E-01
          2   -1    0    0  501    0  0.00000000000E+00  0.00000000000E+00  0.53466453550E+03  0.53466453550E+03  0.00000000000E+00 0. -1.
         -2   -1    0    0    0  501 -0.00000000000E+00 -0.00000000000E+00 -0.95328667771E+03  0.95328667771E+03  0.00000000000E+00 0.  1.
         23    2    1    2    0    0  0.20305173156E+03 -0.30828806622E+03 -0.28969223206E+03  0.47835721440E+03  0.92911236059E+02 0.  0.
        254    2    1    2    0    0 -0.20305173156E+03  0.30828806622E+03 -0.12892991014E+03  0.10095939988E+04  0.93079835800E+03 0.  0.
         23    2    4    4    0    0  0.34798470558E+03  0.25184604287E+03 -0.73480925748E+02  0.44510635586E+03  0.90556264036E+02 0.  0.
         23    2    4    4    0    0 -0.55103643714E+03  0.56442023350E+02 -0.55448984397E+02  0.56448764296E+03  0.93513914097E+02 0.  0.
         11    1    3    3    0    0  0.61862733894E+02 -0.17528603591E+03 -0.12616824509E+03  0.22465666760E+03  0.00000000000E+00 0. -1.
        -11    1    3    3    0    0  0.14118899766E+03 -0.13300203031E+03 -0.16352398698E+03  0.25370054680E+03  0.00000000000E+00 0.  1.
          1    1    5    5  502    0 -0.13015639384E+01  0.22334600191E+01 -0.10968092365E+02  0.11268605169E+02  0.00000000000E+00 0. -1.
          1    1    6    6  503    0 -0.32227689880E+02  0.21376928202E+02  0.11148740186E+02  0.40247875250E+02  0.00000000000E+00 0. -1.
         -1    1    5    5    0  502  0.34928626952E+03  0.24961258285E+03 -0.62512833383E+02  0.43383775069E+03  0.00000000000E+00 0.  1.
         -1    1    6    6    0  503 -0.51880874726E+03  0.35065095148E+02 -0.66597724583E+02  0.52423976771E+03  0.00000000000E+00 0.  1.
<mgrwt>
<rscale>  0 0.14278495E+04</rscale>
<asrwt>0</asrwt>
<pdfrwt beam="1">  1        2 0.82256083E-01 0.14278495E+04</pdfrwt>
<pdfrwt beam="2">  1       -2 0.14665949E+00 0.14278495E+04</pdfrwt>
<totfact> 0.17570272E+01</totfact>
</mgrwt>
</event>
<event>
12    1  0.4403484E-008  0.2288428E+04  0.7818608E-02  0.8482498E-01
          1   -1    0    0  501    0  0.00000000000E+00  0.00000000000E+00  0.14122009376E+04  0.14122009376E+04  0.00000000000E+00 0. -1.
         -1   -1    0    0    0  501 -0.00000000000E+00 -0.00000000000E+00 -0.92708140389E+03  0.92708140389E+03  0.00000000000E+00 0.  1.
         23    2    1    2    0    0 -0.17388536077E+03  0.82885590342E+03  0.66538567492E+03  0.10813743525E+04  0.96923509036E+02 0.  0.
        254    2    1    2    0    0  0.17388536077E+03 -0.82885590342E+03 -0.18026614120E+03  0.12579079890E+04  0.91246830066E+03 0.  0.
         23    2    4    4    0    0  0.61160218779E+02 -0.24951397682E+03 -0.50801553825E+03  0.57676105664E+03  0.92605250156E+02 0.  0.
         23    2    4    4    0    0  0.11272514199E+03 -0.57934192660E+03  0.32774939705E+03  0.68114693233E+03  0.90539773542E+02 0.  0.
         11    1    3    3    0    0 -0.14331079224E+03  0.58776969923E+03  0.42343918505E+03  0.73845239924E+03  0.00000000000E+00 0.  1.
        -11    1    3    3    0    0 -0.30574568528E+02  0.24108620419E+03  0.24194648986E+03  0.34292195329E+03  0.00000000000E+00 0. -1.
          3    1    5    5  502    0  0.55509347234E+02 -0.87940507811E+02 -0.26705475096E+03  0.28658866089E+03  0.00000000000E+00 0. -1.
          3    1    6    6  503    0  0.88509704453E+02 -0.34427525787E+03  0.15179718449E+03  0.38652529825E+03  0.00000000000E+00 0. -1.
         -3    1    5    5    0  502  0.56508715456E+01 -0.16157346901E+03 -0.24096078730E+03  0.29017239574E+03  0.00000000000E+00 0.  1.
         -3    1    6    6    0  503  0.24215437537E+02 -0.23506666873E+03  0.17595221256E+03  0.29462163408E+03  0.00000000000E+00 0.  1.
<mgrwt>
<rscale>  0 0.22884276E+04</rscale>
<asrwt>0</asrwt>
<pdfrwt beam="1">  1        1 0.21726168E+00 0.22884276E+04</pdfrwt>
<pdfrwt beam="2">  1       -1 0.14262791E+00 0.22884276E+04</pdfrwt>
<totfact> 0.27205648E+00</totfact>
</mgrwt>
</event>
<event>
12    1  0.4403484E-008  0.3100577E+04  0.7818608E-02  0.8215580E-01
         -1   -1    0    0    0  501 -0.00000000000E+00  0.00000000000E+00  0.11793415461E+04  0.11793415461E+04  0.00000000000E+00 0.  1.
          1   -1    0    0  501    0  0.00000000000E+00 -0.00000000000E+00 -0.20379120982E+04  0.20379120982E+04  0.00000000000E+00 0. -1.
         23    2    1    2    0    0  0.94505362439E+03  0.38711342995E+02 -0.14909504461E+04  0.17680011720E+04  0.90939487360E+02 0.  0.
        254    2    1    2    0    0 -0.94505362439E+03 -0.38711342995E+02  0.63237989392E+03  0.14492524723E+04  0.89766557091E+03 0.  0.
         23    2    4    4    0    0 -0.49399061081E+02  0.64911190594E+02  0.52189495417E+03  0.53633285675E+03  0.92870125134E+02 0.  0.
         23    2    4    4    0    0 -0.89565456330E+03 -0.10362253359E+03  0.11048493976E+03  0.91291961555E+03  0.90997672034E+02 0.  0.
         13    1    3    3    0    0  0.88847542470E+02 -0.23000048458E+02 -0.14242208690E+03  0.16943122165E+03  0.00000000000E+00 0.  1.
        -13    1    3    3    0    0  0.85620608192E+03  0.61711391452E+02 -0.13485283592E+04  0.15985699503E+04  0.00000000000E+00 0. -1.
          4    1    5    5  502    0 -0.61179110694E+02  0.80479483735E+02  0.47303751315E+03  0.48371925715E+03  0.00000000000E+00 0.  1.
          3    1    6    6  503    0 -0.11380256080E+03 -0.13939711938E+02  0.45187539343E+02  0.12323656976E+03  0.00000000000E+00 0. -1.
         -4    1    5    5    0  502  0.11780049613E+02 -0.15568293142E+02  0.48857441015E+02  0.52613599599E+02  0.00000000000E+00 0. -1.
         -3    1    6    6    0  503 -0.78185200250E+03 -0.89682821650E+02  0.65297400415E+02  0.78968304580E+03  0.00000000000E+00 0.  1.
<mgrwt>
<rscale>  0 0.31005770E+04</rscale>
<asrwt>0</asrwt>
<pdfrwt beam="1">  1        1 0.31352493E+00 0.31005770E+04</pdfrwt>
<pdfrwt beam="2">  1       -1 0.18143716E+00 0.31005770E+04</pdfrwt>
<totfact> 0.48159009E-01</totfact>
</mgrwt>
</event>
<event>
12    1  0.4403484E-008  0.2100689E+04  0.7818608E-02  0.8560940E-01
          1   -1    0    0  501    0  0.00000000000E+00  0.00000000000E+00  0.12523537787E+04  0.12523537787E+04  0.00000000000E+00 0. -1.
         -1   -1    0    0    0  501 -0.00000000000E+00 -0.00000000000E+00 -0.88092046780E+03  0.88092046780E+03  0.00000000000E+00 0.  1.
         23    2    1    2    0    0 -0.30846964397E+03 -0.36768716985E+03  0.86900999186E+03  0.99689488084E+03  0.90959668928E+02 0.  0.
        254    2    1    2    0    0  0.30846964397E+03  0.36768716985E+03 -0.49757668095E+03  0.11363793657E+04  0.90190250759E+03 0.  0.
         23    2    4    4    0    0  0.25896118527E+03 -0.10829713935E+03  0.14545443488E+03  0.32968975660E+03  0.93537036041E+02 0.  0.
         23    2    4    4    0    0  0.49508458697E+02  0.47598430920E+03 -0.64303111582E+03  0.80668960908E+03  0.90812771078E+02 0.  0.
         13    1    3    3    0    0 -0.75109851186E+02 -0.15564864442E+03  0.32616693671E+03  0.36912445172E+03  0.00000000000E+00 0.  1.
        -13    1    3    3    0    0 -0.23335979278E+03 -0.21203852544E+03  0.54284305514E+03  0.62777042912E+03  0.00000000000E+00 0. -1.
          3    1    5    5  502    0  0.23535763898E+03 -0.78666420846E+02  0.93053532254E+02  0.26502940188E+03  0.00000000000E+00 0. -1.
          3    1    6    6  503    0 -0.17164155876E+02  0.26574724150E+03 -0.33920424104E+03  0.43124902522E+03  0.00000000000E+00 0. -1.
         -3    1    5    5    0  502  0.23603546290E+02 -0.29630718505E+02  0.52400902623E+02  0.64660354718E+02  0.00000000000E+00 0.  1.
         -3    1    6    6    0  503  0.66672614572E+02  0.21023706770E+03 -0.30382687478E+03  0.37544058386E+03  0.00000000000E+00 0.  1.
<mgrwt>
<rscale>  0 0.21006895E+04</rscale>
<asrwt>0</asrwt>
<pdfrwt beam="1">  1        1 0.19266981E+00 0.21006895E+04</pdfrwt>
<pdfrwt beam="2">  1       -1 0.13552623E+00 0.21006895E+04</pdfrwt>
<totfact> 0.41056086E+00</totfact>
</mgrwt>
</event>
<event>
12    1  0.4403484E-008  0.1232904E+04  0.7818608E-02  0.9084534E-01
          2   -1    0    0  501    0  0.00000000000E+00  0.00000000000E+00  0.22857020858E+03  0.22857020858E+03  0.00000000000E+00 0. -1.
         -2   -1    0    0    0  501 -0.00000000000E+00 -0.00000000000E+00 -0.16625657668E+04  0.16625657668E+04  0.00000000000E+00 0.  1.
         23    2    1    2    0    0  0.52159284628E+02 -0.52748476493E+01  0.78143024615E+02  0.13145015775E+03  0.91784512239E+02 0.  0.
        254    2    1    2    0    0 -0.52159284628E+02  0.52748476493E+01 -0.15121385828E+04  0.17596858176E+04  0.89843345220E+03 0.  0.
         23    2    4    4    0    0 -0.44231470873E+03  0.74120529379E+02 -0.55557511298E+03  0.72038187513E+03  0.95656601562E+02 0.  0.
         23    2    4    4    0    0  0.39015542410E+03 -0.68845681730E+02 -0.95656346984E+03  0.10393039425E+04  0.90432461838E+02 0.  0.
         13    1    3    3    0    0  0.56919689099E+02 -0.92669402355E+01  0.48263510814E+01  0.57870725356E+02  0.00000000000E+00 0.  1.
        -13    1    3    3    0    0 -0.47604044714E+01  0.39920925862E+01  0.73316673534E+02  0.73579432398E+02  0.00000000000E+00 0. -1.
          2    1    5    5  502    0 -0.40175057460E+03  0.37380652072E+02 -0.47968960282E+03  0.62681971283E+03  0.00000000000E+00 0. -1.
          3    1    6    6  503    0  0.24578245206E+03 -0.41326589366E+02 -0.70742678729E+03  0.75004637197E+03  0.00000000000E+00 0. -1.
         -2    1    5    5    0  502 -0.40564134133E+02  0.36739877308E+02 -0.75885510161E+02  0.93562162303E+02  0.00000000000E+00 0.  1.
         -3    1    6    6    0  503  0.14437297204E+03 -0.27519092364E+02 -0.24913668255E+03  0.28925757050E+03  0.00000000000E+00 0.  1.
<mgrwt>
<rscale>  0 0.12329039E+04</rscale>
<asrwt>0</asrwt>
<pdfrwt beam="1">  1        2 0.35164647E-01 0.12329039E+04</pdfrwt>
<pdfrwt beam="2">  1       -2 0.25577935E+00 0.12329039E+04</pdfrwt>
<totfact> 0.87036382E+00</totfact>
</mgrwt>
</event>
<event>
12    1  0.4403484E-008  0.1534428E+04  0.7818608E-02  0.8861876E-01
         -2   -1    0    0    0  501 -0.00000000000E+00  0.00000000000E+00  0.20180204112E+03  0.20180204112E+03  0.00000000000E+00 0. -1.
          2   -1    0    0  501    0  0.00000000000E+00 -0.00000000000E+00 -0.29168058373E+04  0.29168058373E+04  0.00000000000E+00 0.  1.
         23    2    1    2    0    0 -0.26743640504E+03  0.39120497158E+03 -0.59782147105E+03  0.76822386167E+03  0.90630181866E+02 0.  0.
        254    2    1    2    0    0  0.26743640504E+03 -0.39120497158E+03 -0.21171823252E+04  0.23503840168E+04  0.90403565631E+03 0.  0.
         23    2    4    4    0    0 -0.24869869118E+03  0.11785382511E+03 -0.59515333579E+03  0.66204616623E+03  0.91417011680E+02 0.  0.
         23    2    4    4    0    0  0.51613509622E+03 -0.50905879669E+03 -0.15220289894E+04  0.16883378506E+04  0.91521347826E+02 0.  0.
         11    1    3    3    0    0 -0.50513464303E+01 -0.39284415114E+01 -0.18046965184E+02  0.19147890376E+02  0.00000000000E+00 0.  1.
        -11    1    3    3    0    0 -0.26238505861E+03  0.39513341309E+03 -0.57977450587E+03  0.74907597129E+03  0.00000000000E+00 0. -1.
          1    1    6    6  502    0  0.12208918217E+03 -0.92186850777E+02 -0.39816260887E+03  0.42654149501E+03  0.00000000000E+00 0. -1.
          1    1    5    5  503    0 -0.17336321078E+02  0.31145992751E+02 -0.35636345092E+02  0.50404067142E+02  0.00000000000E+00 0. -1.
         -1    1    5    5    0  503 -0.23136237011E+03  0.86707832364E+02 -0.55951699070E+03  0.61164209909E+03  0.00000000000E+00 0.  1.
         -1    1    6    6    0  502  0.39404591405E+03 -0.41687194591E+03 -0.11238663805E+04  0.12617963555E+04  0.00000000000E+00 0.  1.
<mgrwt>
<rscale>  0 0.15344281E+04</rscale>
<asrwt>0</asrwt>
<pdfrwt beam="1">  1        2 0.44873933E+00 0.15344281E+04</pdfrwt>
<pdfrwt beam="2">  1       -2 0.31046470E-01 0.15344281E+04</pdfrwt>
<totfact> 0.18288244E+01</totfact>
</mgrwt>
</event>
<event>
12    1  0.4403484E-008  0.1344970E+04  0.7818608E-02  0.8994644E-01
         -2   -1    0    0    0  501 -0.00000000000E+00  0.00000000000E+00  0.22684721831E+03  0.22684721831E+03  0.00000000000E+00 0. -1.
          2   -1    0    0  501    0  0.00000000000E+00 -0.00000000000E+00 -0.19935724018E+04  0.19935724018E+04  0.00000000000E+00 0.  1.
         23    2    1    2    0    0  0.28867252455E+03 -0.13810640134E+03 -0.45295459114E+03  0.56190780730E+03  0.90373213705E+02 0.  0.
        254    2    1    2    0    0 -0.28867252455E+03  0.13810640134E+03 -0.13137705923E+04  0.16585118128E+04  0.96034528130E+03 0.  0.
         23    2    4    4    0    0  0.66917907394E+02  0.48654279300E+03 -0.55253995985E+03  0.74477584124E+03  0.90491716225E+02 0.  0.
         23    2    4    4    0    0 -0.35559043194E+03 -0.34843639166E+03 -0.76123063245E+03  0.91373597152E+03  0.87114152397E+02 0.  0.
         11    1    3    3    0    0  0.24500934000E+03 -0.88151908891E+02 -0.39873246075E+03  0.47622254355E+03  0.00000000000E+00 0.  1.
        -11    1    3    3    0    0  0.43663184545E+02 -0.49954492453E+02 -0.54222130391E+02  0.85685263756E+02  0.00000000000E+00 0. -1.
          1    1    5    5  502    0  0.72038751496E+02  0.40751292214E+03 -0.41505047911E+03  0.58610857666E+03  0.00000000000E+00 0. -1.
          3    1    6    6  503    0 -0.23833246906E+03 -0.27279517695E+03 -0.59619674197E+03  0.69761746646E+03  0.00000000000E+00 0. -1.
         -1    1    5    5    0  502 -0.51208441027E+01  0.79029870864E+02 -0.13748948075E+03  0.15866726458E+03  0.00000000000E+00 0.  1.
         -3    1    6    6    0  503 -0.11725796288E+03 -0.75641214704E+02 -0.16503389048E+03  0.21611850506E+03  0.00000000000E+00 0.  1.
<mgrwt>
<rscale>  0 0.13449704E+04</rscale>
<asrwt>0</asrwt>
<pdfrwt beam="1">  1        2 0.30670346E+00 0.13449704E+04</pdfrwt>
<pdfrwt beam="2">  1       -2 0.34899571E-01 0.13449704E+04</pdfrwt>
<totfact> 0.50741401E+01</totfact>
</mgrwt>
</event>
<event>
12    1  0.4736642E-008  0.1874798E+04  0.7818608E-02  0.8667504E-01
          1   -1    0    0  501    0  0.00000000000E+00  0.00000000000E+00  0.10622002049E+04  0.10622002049E+04  0.00000000000E+00 0. -1.
         -1   -1    0    0    0  501 -0.00000000000E+00 -0.00000000000E+00 -0.82726069995E+03  0.82726069995E+03  0.00000000000E+00 0.  1.
         23    2    1    2    0    0  0.36689002950E+03 -0.59143436126E+03 -0.87988354007E+02  0.70748688330E+03  0.91612456391E+02 0.  0.
        254    2    1    2    0    0 -0.36689002950E+03  0.59143436126E+03  0.32292785900E+03  0.11819740216E+04  0.89909804146E+03 0.  0.
         23    2    4    4    0    0  0.25853248394E+03  0.73488310639E+01  0.45836425955E+02  0.27788715314E+03  0.90704141926E+02 0.  0.
         23    2    4    4    0    0 -0.62542251345E+03  0.58408553020E+03  0.27709143304E+03  0.90408686846E+03  0.91017451807E+02 0.  0.
         13    1    3    3    0    0  0.33559001389E+03 -0.56809565955E+03 -0.67124917461E+02  0.66321873494E+03  0.00000000000E+00 0. -1.
        -13    1    3    3    0    0  0.31300015614E+02 -0.23338701710E+02 -0.20863436545E+02  0.44268148362E+02  0.00000000000E+00 0.  1.
          1    1    5    5  502    0  0.12974657362E+02 -0.22298054756E+02  0.11231860517E+02  0.28137158176E+02  0.00000000000E+00 0. -1.
          3    1    6    6  503    0 -0.65646534961E+02  0.10424816238E+03  0.44377877447E+02  0.13094480867E+03  0.00000000000E+00 0. -1.
         -1    1    5    5    0  502  0.24555782658E+03  0.29646885820E+02  0.34604565438E+02  0.24974999496E+03  0.00000000000E+00 0.  1.
         -3    1    6    6    0  503 -0.55977597848E+03  0.47983736782E+03  0.23271355559E+03  0.77314205978E+03  0.00000000000E+00 0.  1.
<mgrwt>
<rscale>  0 0.18747976E+04</rscale>
<asrwt>0</asrwt>
<pdfrwt beam="1">  1        1 0.16341542E+00 0.18747976E+04</pdfrwt>
<pdfrwt beam="2">  1       -1 0.12727088E+00 0.18747976E+04</pdfrwt>
<totfact> 0.67951837E+00</totfact>
</mgrwt>
</event>
<event>
12    1  0.4403484E-008  0.1467847E+04  0.7818608E-02  0.8906120E-01
         -2   -1    0    0    0  501 -0.00000000000E+00  0.00000000000E+00  0.27833815015E+03  0.27833815015E+03  0.00000000000E+00 0.  1.
          2   -1    0    0  501    0  0.00000000000E+00 -0.00000000000E+00 -0.19352137529E+04  0.19352137529E+04  0.00000000000E+00 0. -1.
         23    2    1    2    0    0  0.22186604056E+03  0.30074295902E+03 -0.89112080885E+03  0.97040193977E+03  0.88953703681E+02 0.  0.
        254    2    1    2    0    0 -0.22186604056E+03 -0.30074295902E+03 -0.76575479386E+03  0.12431499632E+04  0.90519089665E+03 0.  0.
         23    2    4    4    0    0  0.15871200342E+03 -0.49954452026E+03 -0.49831876740E+03  0.72901672318E+03  0.91703658523E+02 0.  0.
         23    2    4    4    0    0 -0.38057804398E+03  0.19880156124E+03 -0.26743602646E+03  0.51413324004E+03  0.91919812638E+02 0.  0.
         13    1    3    3    0    0  0.63936822366E+02  0.14386680851E+03 -0.44071291994E+03  0.46798873239E+03  0.00000000000E+00 0. -1.
        -13    1    3    3    0    0  0.15792921820E+03  0.15687615051E+03 -0.45040788891E+03  0.50241320738E+03  0.00000000000E+00 0.  1.
          4    1    5    5  502    0  0.48105631973E+02 -0.30115159355E+03 -0.28627683776E+03  0.41828323175E+03  0.00000000000E+00 0.  1.
          3    1    6    6  503    0  0.43757810067E+01  0.69701068770E+01 -0.96910792678E+01  0.12714042106E+02  0.00000000000E+00 0. -1.
         -4    1    5    5    0  502  0.11060637144E+03 -0.19839292671E+03 -0.21204192964E+03  0.31073349143E+03  0.00000000000E+00 0. -1.
         -3    1    6    6    0  503 -0.38495382499E+03  0.19183145436E+03 -0.25774494719E+03  0.50141919793E+03  0.00000000000E+00 0.  1.
<mgrwt>
<rscale>  0 0.14678472E+04</rscale>
<asrwt>0</asrwt>
<pdfrwt beam="1">  1        2 0.29772520E+00 0.14678472E+04</pdfrwt>
<pdfrwt beam="2">  1       -2 0.42821253E-01 0.14678472E+04</pdfrwt>
<totfact> 0.36359032E+01</totfact>
</mgrwt>
</event>
<event>
12    1  0.4403484E-008  0.1740937E+04  0.7818608E-02  0.8738355E-01
          1   -1    0    0  501    0  0.00000000000E+00  0.00000000000E+00  0.17984924685E+04  0.17984924685E+04  0.00000000000E+00 0. -1.
         -1   -1    0    0    0  501 -0.00000000000E+00 -0.00000000000E+00 -0.42130571559E+03  0.42130571559E+03  0.00000000000E+00 0.  1.
         23    2    1    2    0    0  0.57088627624E+02  0.28324752213E+03 -0.20583966198E+03  0.37340428885E+03  0.11650118580E+03 0.  0.
        254    2    1    2    0    0 -0.57088627624E+02 -0.28324752213E+03  0.15830264149E+04  0.18463938952E+04  0.90537810661E+03 0.  0.
         23    2    4    4    0    0  0.26121781751E+03 -0.97007867568E+02  0.89322817126E+02  0.30520775246E+03  0.86763655674E+02 0.  0.
         23    2    4    4    0    0 -0.31830644514E+03 -0.18623965456E+03  0.14937035978E+04  0.15411861428E+04  0.90000482005E+02 0.  0.
         11    1    3    3    0    0 -0.80797439917E+01  0.78655337025E+02 -0.11659226904E+03  0.14087477242E+03  0.00000000000E+00 0.  1.
        -11    1    3    3    0    0  0.65168371616E+02  0.20459218511E+03 -0.89247392940E+02  0.23252951643E+03  0.00000000000E+00 0. -1.
          3    1    5    5  502    0  0.13950629672E+03 -0.63286519037E+01  0.34658319759E+02  0.14388626685E+03  0.00000000000E+00 0. -1.
          3    1    6    6  503    0 -0.57716144399E+02 -0.77932955266E+02  0.35079383395E+03  0.36395193746E+03  0.00000000000E+00 0. -1.
         -3    1    5    5    0  502  0.12171152079E+03 -0.90679215664E+02  0.54664497367E+02  0.16132148561E+03  0.00000000000E+00 0.  1.
         -3    1    6    6    0  503 -0.26059030074E+03 -0.10830669930E+03  0.11429097638E+04  0.11772342053E+04  0.00000000000E+00 0.  1.
<mgrwt>
<rscale>  0 0.17409367E+04</rscale>
<asrwt>0</asrwt>
<pdfrwt beam="1">  1        1 0.27669114E+00 0.17409367E+04</pdfrwt>
<pdfrwt beam="2">  1       -1 0.64816265E-01 0.17409367E+04</pdfrwt>
<totfact> 0.93465983E+00</totfact>
</mgrwt>
</event>
<event>
12    1  0.4403484E-008  0.1552060E+04  0.7818608E-02  0.8850553E-01
         -1   -1    0    0    0  501 -0.00000000000E+00  0.00000000000E+00  0.46289885042E+03  0.46289885042E+03  0.00000000000E+00 0. -1.
          1   -1    0    0  501    0  0.00000000000E+00 -0.00000000000E+00 -0.13009808038E+04  0.13009808038E+04  0.00000000000E+00 0.  1.
         23    2    1    2    0    0 -0.31031987852E+03  0.19064374404E+03 -0.67953903011E+03  0.77635482893E+03  0.91159545992E+02 0.  0.
        254    2    1    2    0    0  0.31031987852E+03 -0.19064374404E+03 -0.15854292326E+03  0.98752482527E+03  0.90411611968E+03 0.  0.
         23    2    4    4    0    0 -0.83696276227E+02  0.11801818469E+03 -0.39242328070E+03  0.42800123173E+03  0.90860687616E+02 0.  0.
         23    2    4    4    0    0  0.39401615475E+03 -0.30866192873E+03  0.23388035744E+03  0.55952359354E+03  0.88576033330E+02 0.  0.
         13    1    3    3    0    0 -0.39437152705E+02  0.24949302589E+02 -0.16721231727E+03  0.17360217671E+03  0.00000000000E+00 0. -1.
        -13    1    3    3    0    0 -0.27088272582E+03  0.16569444145E+03 -0.51232671284E+03  0.60275265222E+03  0.00000000000E+00 0.  1.
          2    1    5    5  502    0 -0.83053033992E+02  0.10137307936E+03 -0.22991667706E+03  0.26464312964E+03  0.00000000000E+00 0. -1.
          1    1    6    6  503    0  0.35477941131E+03 -0.30669890889E+03  0.21386063361E+03  0.51543090905E+03  0.00000000000E+00 0. -1.
         -2    1    5    5    0  502 -0.64324223563E+00  0.16645105326E+02 -0.16250660364E+03  0.16335810209E+03  0.00000000000E+00 0.  1.
         -1    1    6    6    0  503  0.39236743441E+02 -0.19630198409E+01  0.20019723834E+02  0.44092684486E+02  0.00000000000E+00 0.  1.
<mgrwt>
<rscale>  0 0.15520599E+04</rscale>
<asrwt>0</asrwt>
<pdfrwt beam="1">  1        1 0.20015089E+00 0.15520599E+04</pdfrwt>
<pdfrwt beam="2">  1       -1 0.71215208E-01 0.15520599E+04</pdfrwt>
<totfact> 0.17323350E+01</totfact>
</mgrwt>
</event>
<event>
12    1  0.4403484E-008  0.1401108E+04  0.7818608E-02  0.8953017E-01
         -3   -1    0    0    0  501 -0.00000000000E+00  0.00000000000E+00  0.49323491357E+03  0.49323491357E+03  0.00000000000E+00 0.  1.
          3   -1    0    0  501    0  0.00000000000E+00 -0.00000000000E+00 -0.99501476522E+03  0.99501476522E+03  0.00000000000E+00 0. -1.
         23    2    1    2    0    0 -0.13747898526E+03 -0.12884866817E+03  0.24243345606E+03  0.32048658493E+03  0.91843452804E+02 0.  0.
        254    2    1    2    0    0  0.13747898526E+03  0.12884866817E+03 -0.74421330771E+03  0.11677630939E+04  0.87995155853E+03 0.  0.
         23    2    4    4    0    0  0.10205984511E+03 -0.27594781757E+03 -0.67869849350E+03  0.74622090018E+03  0.98237349210E+02 0.  0.
         23    2    4    4    0    0  0.35419140152E+02  0.40479648574E+03 -0.65514814208E+02  0.42154219369E+03  0.91054488206E+02 0.  0.
         13    1    3    3    0    0 -0.11235852812E+03 -0.90905914870E+02  0.23273505448E+03  0.27395972292E+03  0.00000000000E+00 0.  1.
        -13    1    3    3    0    0 -0.25120457138E+02 -0.37942753297E+02  0.96984015806E+01  0.46526862002E+02  0.00000000000E+00 0. -1.
          1    1    5    5  502    0  0.82440389921E+02 -0.98190655849E+02 -0.23230176125E+03  0.26533362219E+03  0.00000000000E+00 0. -1.
          3    1    6    6  503    0  0.16240594687E+02  0.33082990824E+03 -0.86429887173E+02  0.34231901861E+03  0.00000000000E+00 0. -1.
         -1    1    5    5    0  502  0.19619455186E+02 -0.17775716172E+03 -0.44639673225E+03  0.48088727799E+03  0.00000000000E+00 0.  1.
         -3    1    6    6    0  503  0.19178545465E+02  0.73966577497E+02  0.20915072965E+02  0.79223175081E+02  0.00000000000E+00 0.  1.
<mgrwt>
<rscale>  0 0.14011082E+04</rscale>
<asrwt>0</asrwt>
<pdfrwt beam="1">  1        3 0.15307919E+00 0.14011082E+04</pdfrwt>
<pdfrwt beam="2">  1       -3 0.75882295E-01 0.14011082E+04</pdfrwt>
<totfact> 0.12797284E+00</totfact>
</mgrwt>
</event>
<event>
12    1  0.4403484E-008  0.1368592E+04  0.7818608E-02  0.8976872E-01
          1   -1    0    0  501    0  0.00000000000E+00  0.00000000000E+00  0.13349508789E+04  0.13349508789E+04  0.00000000000E+00 0. -1.
         -1   -1    0    0    0  501 -0.00000000000E+00 -0.00000000000E+00 -0.35077018392E+03  0.35077018392E+03  0.00000000000E+00 0.  1.
         23    2    1    2    0    0 -0.29195922529E+03  0.59014900224E+02 -0.26995450372E+02  0.31289305975E+03  0.91925865886E+02 0.  0.
        254    2    1    2    0    0  0.29195922529E+03 -0.59014900224E+02  0.10111761454E+04  0.13728280031E+04  0.87946380334E+03 0.  0.
         23    2    4    4    0    0  0.13451331086E+02  0.22448138079E+03 -0.39542198068E+02  0.24549462819E+03  0.90173157947E+02 0.  0.
         23    2    4    4    0    0  0.27850789421E+03 -0.28349628101E+03  0.10507183434E+04  0.11273333749E+04  0.94523607724E+02 0.  0.
         11    1    3    3    0    0 -0.28336338802E+03  0.65637414498E+02 -0.79516609480E+01  0.29097475623E+03  0.00000000000E+00 0.  1.
        -11    1    3    3    0    0 -0.85958372760E+01 -0.66225142739E+01 -0.19043789424E+02  0.21918303525E+02  0.00000000000E+00 0. -1.
          2    1    5    5  502    0  0.22988479636E+02  0.99448842151E+01 -0.15377075123E+02  0.29390906032E+02  0.00000000000E+00 0. -1.
          4    1    6    6  503    0  0.47232092593E+01 -0.24521148229E+02  0.28686503682E+02  0.38033023935E+02  0.00000000000E+00 0.  1.
         -2    1    5    5    0  502 -0.95371485500E+01  0.21453649657E+03 -0.24165122945E+02  0.21610372216E+03  0.00000000000E+00 0.  1.
         -4    1    6    6    0  503  0.27378468495E+03 -0.25897513278E+03  0.10220318397E+04  0.10893003509E+04  0.00000000000E+00 0. -1.
<mgrwt>
<rscale>  0 0.13685919E+04</rscale>
<asrwt>0</asrwt>
<pdfrwt beam="1">  1        1 0.20537706E+00 0.13685919E+04</pdfrwt>
<pdfrwt beam="2">  1       -1 0.53964644E-01 0.13685919E+04</pdfrwt>
<totfact> 0.28936116E+01</totfact>
</mgrwt>
</event>
<event>
12    1  0.4403484E-008  0.1694036E+04  0.7818608E-02  0.8764773E-01
         -1   -1    0    0    0  501 -0.00000000000E+00  0.00000000000E+00  0.83305047551E+03  0.83305047551E+03  0.00000000000E+00 0.  1.
          1   -1    0    0  501    0  0.00000000000E+00 -0.00000000000E+00 -0.86121929304E+03  0.86121929304E+03  0.00000000000E+00 0. -1.
         23    2    1    2    0    0  0.57408092139E+03 -0.95213122460E+02  0.15262240768E+03  0.60930989024E+03  0.96594513438E+02 0.  0.
        254    2    1    2    0    0 -0.57408092139E+03  0.95213122460E+02 -0.18079122521E+03  0.10849598783E+04  0.89767367536E+03 0.  0.
         23    2    4    4    0    0 -0.79991674666E+03  0.15054797816E+03 -0.15623080056E+03  0.83393829958E+03  0.92268787570E+02 0.  0.
         23    2    4    4    0    0  0.22583582527E+03 -0.55334855701E+02 -0.24560424648E+02  0.25102157873E+03  0.91350163103E+02 0.  0.
         13    1    3    3    0    0  0.49829659963E+03 -0.11351874680E+03  0.12110570155E+03  0.52521671529E+03  0.00000000000E+00 0. -1.
        -13    1    3    3    0    0  0.75784321762E+02  0.18305624339E+02  0.31516706131E+02  0.84093174947E+02  0.00000000000E+00 0.  1.
          3    1    5    5  502    0 -0.48554140236E+03  0.13702968152E+03 -0.96535604680E+02  0.51366011135E+03  0.00000000000E+00 0. -1.
          3    1    6    6  503    0  0.25086676826E+02 -0.34420497742E+02  0.15357274015E+02  0.45276460597E+02  0.00000000000E+00 0. -1.
         -3    1    5    5    0  502 -0.31437534430E+03  0.13518296638E+02 -0.59695195879E+02  0.32027818823E+03  0.00000000000E+00 0.  1.
         -3    1    6    6    0  503  0.20074914844E+03 -0.20914357959E+02 -0.39917698663E+02  0.20574511813E+03  0.00000000000E+00 0.  1.
<mgrwt>
<rscale>  0 0.16940356E+04</rscale>
<asrwt>0</asrwt>
<pdfrwt beam="1">  1        1 0.13249528E+00 0.16940356E+04</pdfrwt>
<pdfrwt beam="2">  1       -1 0.12816161E+00 0.16940356E+04</pdfrwt>
<totfact> 0.98102953E+00</totfact>
</mgrwt>
</event>
<event>
12    1  0.4403484E-008  0.1370668E+04  0.7818608E-02  0.8975328E-01
         -3   -1    0    0    0  501 -0.00000000000E+00  0.00000000000E+00  0.46885116424E+03  0.46885116424E+03  0.00000000000E+00 0. -1.
          3   -1    0    0  501    0  0.00000000000E+00 -0.00000000000E+00 -0.10017739320E+04  0.10017739320E+04  0.00000000000E+00 0.  1.
         23    2    1    2    0    0 -0.47250843001E+02 -0.30158585864E+03 -0.39503941072E+03  0.50755494463E+03  0.91483405619E+02 0.  0.
        254    2    1    2    0    0  0.47250843001E+02  0.30158585864E+03 -0.13788335704E+03  0.96307015160E+03  0.90294275813E+03 0.  0.
         23    2    4    4    0    0 -0.29505109161E+03  0.22720013871E+03 -0.36983574064E+03  0.53306183577E+03  0.93281273576E+02 0.  0.
         23    2    4    4    0    0  0.34230193461E+03  0.74385719929E+02  0.23195238360E+03  0.43000831583E+03  0.91659116626E+02 0.  0.
         11    1    3    3    0    0  0.87690751059E+01 -0.12924946395E+03 -0.11081343700E+03  0.17047562415E+03  0.00000000000E+00 0. -1.
        -11    1    3    3    0    0 -0.56019918107E+02 -0.17233639469E+03 -0.28422597372E+03  0.33707932048E+03  0.00000000000E+00 0.  1.
          3    1    6    6  502    0  0.32935679751E+03  0.49157804198E+02  0.20601540960E+03  0.39157979873E+03  0.00000000000E+00 0. -1.
          3    1    5    5  503    0 -0.77258804619E+02  0.37397684901E+02 -0.40299636587E+02  0.94823891694E+02  0.00000000000E+00 0. -1.
         -3    1    5    5    0  503 -0.21779228699E+03  0.18980245381E+03 -0.32953610406E+03  0.43823794407E+03  0.00000000000E+00 0.  1.
         -3    1    6    6    0  502  0.12945137103E+02  0.25227915730E+02  0.25936974003E+02  0.38428517108E+02  0.00000000000E+00 0.  1.
<mgrwt>
<rscale>  0 0.13706683E+04</rscale>
<asrwt>0</asrwt>
<pdfrwt beam="1">  1        3 0.15411907E+00 0.13706683E+04</pdfrwt>
<pdfrwt beam="2">  1       -3 0.72130949E-01 0.13706683E+04</pdfrwt>
<totfact> 0.14087097E+00</totfact>
</mgrwt>
</event>
<event>
12    1  0.4403484E-008  0.2903223E+04  0.7818608E-02  0.8271919E-01
          1   -1    0    0  501    0  0.00000000000E+00  0.00000000000E+00  0.31980576326E+04  0.31980576326E+04  0.00000000000E+00 0. -1.
         -1   -1    0    0    0  501 -0.00000000000E+00 -0.00000000000E+00 -0.65889224593E+03  0.65889224593E+03  0.00000000000E+00 0.  1.
         23    2    1    2    0    0  0.22049332489E+03  0.85264864717E+03  0.24915516253E+04  0.26441665477E+04  0.90333871505E+02 0.  0.
        254    2    1    2    0    0 -0.22049332489E+03 -0.85264864717E+03  0.47613761341E+02  0.12127833308E+04  0.83243577257E+03 0.  0.
         23    2    4    4    0    0 -0.31270612677E+03 -0.96466541580E+03 -0.40659689163E+02  0.10187059933E+04  0.88001160919E+02 0.  0.
         23    2    4    4    0    0  0.92212801879E+02  0.11201676862E+03  0.88273450504E+02  0.19407733754E+03  0.93930046300E+02 0.  0.
         13    1    3    3    0    0  0.20180108924E+03  0.66385890427E+03  0.18854459276E+04  0.20090641279E+04  0.00000000000E+00 0. -1.
        -13    1    3    3    0    0  0.18692235644E+02  0.18878974291E+03  0.60610569776E+03  0.63510241974E+03  0.00000000000E+00 0.  1.
          2    1    5    5  502    0 -0.16290860599E+03 -0.58696120398E+03 -0.58772050426E+02  0.61197779600E+03  0.00000000000E+00 0. -1.
          3    1    6    6  503    0  0.69303570460E+02  0.84008021823E+02  0.10756581467E+03  0.15307101977E+03  0.00000000000E+00 0. -1.
         -2    1    5    5    0  502 -0.14979752077E+03 -0.37770421181E+03  0.18112361264E+02  0.40672819730E+03  0.00000000000E+00 0.  1.
         -3    1    6    6    0  503  0.22909231419E+02  0.28008746802E+02 -0.19292364163E+02  0.41006317764E+02  0.00000000000E+00 0.  1.
<mgrwt>
<rscale>  0 0.29032226E+04</rscale>
<asrwt>0</asrwt>
<pdfrwt beam="1">  1        1 0.49200886E+00 0.29032226E+04</pdfrwt>
<pdfrwt beam="2">  1       -1 0.10136804E+00 0.29032226E+04</pdfrwt>
<totfact> 0.33786478E-01</totfact>
</mgrwt>
</event>
<event>
12    1  0.4403484E-008  0.3058066E+04  0.7818608E-02  0.8227342E-01
         -1   -1    0    0    0  501 -0.00000000000E+00  0.00000000000E+00  0.13138813838E+04  0.13138813838E+04  0.00000000000E+00 0.  1.
          1   -1    0    0  501    0  0.00000000000E+00 -0.00000000000E+00 -0.17794159399E+04  0.17794159399E+04  0.00000000000E+00 0. -1.
         23    2    1    2    0    0  0.63710515051E+03  0.62663893767E+03 -0.12982121227E+04  0.15787328792E+04  0.91997050581E+02 0.  0.
        254    2    1    2    0    0 -0.63710515051E+03 -0.62663893767E+03  0.83267756661E+03  0.15145644445E+04  0.89553011990E+03 0.  0.
         23    2    4    4    0    0 -0.39038182914E+02  0.16998869206E+03  0.35783149844E+03  0.40718744793E+03  0.85662718419E+02 0.  0.
         23    2    4    4    0    0 -0.59806696760E+03 -0.79662762973E+03  0.47484606817E+03  0.11073769966E+04  0.92224432402E+02 0.  0.
         11    1    3    3    0    0  0.39027285671E+03  0.42852320040E+03 -0.78544608212E+03  0.97615090220E+03  0.00000000000E+00 0. -1.
        -11    1    3    3    0    0  0.24683229380E+03  0.19811573727E+03 -0.51276604056E+03  0.60258197697E+03  0.00000000000E+00 0.  1.
          2    1    5    5  502    0 -0.58883825069E+02  0.11690355765E+03  0.29402919055E+03  0.32184920622E+03  0.00000000000E+00 0. -1.
          1    1    6    6  503    0 -0.54689468887E+03 -0.75386830082E+03  0.42299761813E+03  0.10229067409E+04  0.00000000000E+00 0. -1.
         -2    1    5    5    0  502  0.19845642155E+02  0.53085134405E+02  0.63802307886E+02  0.85338241715E+02  0.00000000000E+00 0.  1.
         -1    1    6    6    0  503 -0.51172278726E+02 -0.42759328905E+02  0.51848450040E+02  0.84470255652E+02  0.00000000000E+00 0.  1.
<mgrwt>
<rscale>  0 0.30580657E+04</rscale>
<asrwt>0</asrwt>
<pdfrwt beam="1">  1        1 0.27375630E+00 0.30580657E+04</pdfrwt>
<pdfrwt beam="2">  1       -1 0.20213560E+00 0.30580657E+04</pdfrwt>
<totfact> 0.51842882E-01</totfact>
</mgrwt>
</event>
<event>
12    1  0.4403484E-008  0.2938077E+04  0.7818608E-02  0.8261638E-01
          1   -1    0    0  501    0  0.00000000000E+00  0.00000000000E+00  0.12601928878E+04  0.12601928878E+04  0.00000000000E+00 0. -1.
         -1   -1    0    0    0  501 -0.00000000000E+00 -0.00000000000E+00 -0.17124954159E+04  0.17124954159E+04  0.00000000000E+00 0.  1.
         23    2    1    2    0    0 -0.68707062026E+03  0.11366998526E+04 -0.14137730437E+03  0.13387858813E+04  0.90595263281E+02 0.  0.
        254    2    1    2    0    0  0.68707062026E+03 -0.11366998526E+04 -0.31092522368E+03  0.16339024224E+04  0.89933866757E+03 0.  0.
         23    2    4    4    0    0  0.39981428844E+01 -0.66486161569E+03  0.13830956945E+03  0.68553689482E+03  0.93671468396E+02 0.  0.
         23    2    4    4    0    0  0.68307247738E+03 -0.47183823690E+03 -0.44923479313E+03  0.94836552755E+03  0.91465530844E+02 0.  0.
         11    1    3    3    0    0 -0.80888055682E+02  0.14759781956E+03 -0.47669701376E+02  0.17492968393E+03  0.00000000000E+00 0. -1.
        -11    1    3    3    0    0 -0.60618256458E+03  0.98910203304E+03 -0.93707602989E+02  0.11638561974E+04  0.00000000000E+00 0.  1.
          1    1    5    5  502    0  0.44347757707E+02 -0.47622270484E+03  0.10701128454E+03  0.49010835866E+03  0.00000000000E+00 0. -1.
          3    1    6    6  503    0  0.68294334334E+03 -0.46802479282E+03 -0.43830134216E+03  0.93678539882E+03  0.00000000000E+00 0. -1.
         -1    1    5    5    0  502 -0.40349614822E+02 -0.18863891086E+03  0.31298284906E+02  0.19542853616E+03  0.00000000000E+00 0.  1.
         -3    1    6    6    0  503  0.12913404074E+00 -0.38134440848E+01 -0.10933450964E+02  0.11580128729E+02  0.00000000000E+00 0.  1.
<mgrwt>
<rscale>  0 0.29380773E+04</rscale>
<asrwt>0</asrwt>
<pdfrwt beam="1">  1        1 0.19387583E+00 0.29380773E+04</pdfrwt>
<pdfrwt beam="2">  1       -1 0.26346083E+00 0.29380773E+04</pdfrwt>
<totfact> 0.47093399E-01</totfact>
</mgrwt>
</event>
<event>
12    1  0.6706140E-008  0.3344191E+04  0.7818608E-02  0.8151741E-01
          1   -1    0    0  501    0  0.00000000000E+00  0.00000000000E+00  0.19666455927E+04  0.19666455927E+04  0.00000000000E+00 0. -1.
         -1   -1    0    0    0  501 -0.00000000000E+00 -0.00000000000E+00 -0.14216611234E+04  0.14216611234E+04  0.00000000000E+00 0.  1.
         23    2    1    2    0    0  0.49429305681E+03 -0.14359686463E+04  0.65034304823E+02  0.15227889558E+04  0.91242335799E+02 0.  0.
        254    2    1    2    0    0 -0.49429305681E+03  0.14359686463E+04  0.47995016452E+03  0.18655177603E+04  0.97132526704E+03 0.  0.
         23    2    4    4    0    0 -0.10745103454E+03  0.12573611413E+04  0.70925483891E+02  0.12675229932E+04  0.95296114840E+02 0.  0.
         23    2    4    4    0    0 -0.38684202227E+03  0.17860750503E+03  0.40902468063E+03  0.59799476715E+03  0.93536950549E+02 0.  0.
         13    1    3    3    0    0  0.18474313802E+03 -0.53695336027E+03 -0.19845780056E+02  0.56819256695E+03  0.00000000000E+00 0. -1.
        -13    1    3    3    0    0  0.30954991879E+03 -0.89901528604E+03  0.84880084880E+02  0.95459638883E+03  0.00000000000E+00 0.  1.
          3    1    6    6  502    0 -0.25796579435E+02  0.39986598296E+02  0.63744047524E+02  0.79546811052E+02  0.00000000000E+00 0. -1.
          3    1    5    5  503    0 -0.87866771972E+02  0.51246447639E+03  0.12704254957E+02  0.52009788240E+03  0.00000000000E+00 0. -1.
         -3    1    5    5    0  503 -0.19584262565E+02  0.74489666489E+03  0.58221228934E+02  0.74742511077E+03  0.00000000000E+00 0.  1.
         -3    1    6    6    0  502 -0.36104544284E+03  0.13862090674E+03  0.34528063311E+03  0.51844795609E+03  0.00000000000E+00 0.  1.
<mgrwt>
<rscale>  0 0.33441911E+04</rscale>
<asrwt>0</asrwt>
<pdfrwt beam="1">  1        1 0.30256086E+00 0.33441911E+04</pdfrwt>
<pdfrwt beam="2">  1       -1 0.21871710E+00 0.33441911E+04</pdfrwt>
<totfact> 0.29131193E-01</totfact>
</mgrwt>
</event>
<event>
12    1  0.4403484E-008  0.1641284E+04  0.7818608E-02  0.8795580E-01
         -3   -1    0    0    0  501 -0.00000000000E+00  0.00000000000E+00  0.11904598421E+04  0.11904598421E+04  0.00000000000E+00 0.  1.
          3   -1    0    0  501    0  0.00000000000E+00 -0.00000000000E+00 -0.56570830797E+03  0.56570830797E+03  0.00000000000E+00 0. -1.
         23    2    1    2    0    0  0.38442082051E+03 -0.10136061011E+03  0.66517081212E+03  0.78026488647E+03  0.91146822406E+02 0.  0.
        254    2    1    2    0    0 -0.38442082051E+03  0.10136061011E+03 -0.40419278026E+02  0.97590326356E+03  0.89033708294E+03 0.  0.
         23    2    4    4    0    0 -0.24475909924E+03  0.15666038274E+03 -0.44271763940E+03  0.53792792839E+03  0.94435458028E+02 0.  0.
         23    2    4    4    0    0 -0.13966172127E+03 -0.55299772624E+02  0.40229836137E+03  0.43797533516E+03  0.86110170167E+02 0.  0.
         13    1    3    3    0    0  0.30710417908E+03 -0.86949615732E+02  0.45437076126E+03  0.55527110601E+03  0.00000000000E+00 0.  1.
        -13    1    3    3    0    0  0.77316641434E+02 -0.14410994379E+02  0.21080005087E+03  0.22499378046E+03  0.00000000000E+00 0. -1.
          2    1    5    5  502    0 -0.19158371959E+03  0.11025365950E+03 -0.25548858392E+03  0.33783813810E+03  0.00000000000E+00 0. -1.
          4    1    6    6  503    0 -0.12894306842E+03 -0.70114793901E+02  0.38777846352E+03  0.41462577825E+03  0.00000000000E+00 0. -1.
         -2    1    5    5    0  502 -0.53175379646E+02  0.46406723238E+02 -0.18722905548E+03  0.20008979029E+03  0.00000000000E+00 0.  1.
         -4    1    6    6    0  503 -0.10718652857E+02  0.14815021277E+02  0.14519897851E+02  0.23349556915E+02  0.00000000000E+00 0.  1.
<mgrwt>
<rscale>  0 0.16412837E+04</rscale>
<asrwt>0</asrwt>
<pdfrwt beam="1">  1        3 0.87032048E-01 0.16412837E+04</pdfrwt>
<pdfrwt beam="2">  1       -3 0.18314767E+00 0.16412837E+04</pdfrwt>
<totfact> 0.56736584E-01</totfact>
</mgrwt>
</event>
<event>
12    1  0.4403484E-008  0.1306241E+04  0.7818608E-02  0.9024631E-01
         -1   -1    0    0    0  501 -0.00000000000E+00  0.00000000000E+00  0.14305356567E+03  0.14305356567E+03  0.00000000000E+00 0.  1.
          1   -1    0    0  501    0  0.00000000000E+00 -0.00000000000E+00 -0.29818629218E+04  0.29818629218E+04  0.00000000000E+00 0. -1.
         23    2    1    2    0    0  0.27430168622E+03 -0.33456301798E+01 -0.29328963462E+03  0.41179482760E+03  0.91123882488E+02 0.  0.
        254    2    1    2    0    0 -0.27430168622E+03  0.33456301798E+01 -0.25455197215E+04  0.27131216599E+04  0.89783399379E+03 0.  0.
         23    2    4    4    0    0  0.18739358902E+03 -0.25972485910E+01 -0.11557690061E+03  0.23803259144E+03  0.90434460938E+02 0.  0.
         23    2    4    4    0    0 -0.46169527524E+03  0.59428787708E+01 -0.24299428209E+04  0.24750890685E+04  0.90807152123E+02 0.  0.
         11    1    3    3    0    0  0.10876384637E+02 -0.85668956642E+01 -0.54428733822E+02  0.56162037976E+02  0.00000000000E+00 0.  1.
        -11    1    3    3    0    0  0.26342530158E+03  0.52212654844E+01 -0.23886090080E+03  0.35563278962E+03  0.00000000000E+00 0. -1.
          1    1    5    5  502    0  0.17613762642E+03  0.43523269848E+01 -0.68344149128E+02  0.18898235079E+03  0.00000000000E+00 0. -1.
          1    1    6    6  503    0 -0.39671888069E+03  0.35165699005E+02 -0.19977709850E+04  0.20370840447E+04  0.00000000000E+00 0. -1.
         -1    1    5    5    0  502  0.11255962601E+02 -0.69495755758E+01 -0.47232751480E+02  0.49050240643E+02  0.00000000000E+00 0.  1.
         -1    1    6    6    0  503 -0.64976394546E+02 -0.29222820234E+02 -0.43217183595E+03  0.43800502378E+03  0.00000000000E+00 0.  1.
<mgrwt>
<rscale>  0 0.13062406E+04</rscale>
<asrwt>0</asrwt>
<pdfrwt beam="1">  1        1 0.45874815E+00 0.13062406E+04</pdfrwt>
<pdfrwt beam="2">  1       -1 0.22008240E-01 0.13062406E+04</pdfrwt>
<totfact> 0.10638443E+01</totfact>
</mgrwt>
</event>
<event>
12    1  0.4403484E-008  0.2302197E+04  0.7818608E-02  0.8477055E-01
         -2   -1    0    0    0  501 -0.00000000000E+00  0.00000000000E+00  0.17926634488E+04  0.17926634488E+04  0.00000000000E+00 0.  1.
          2   -1    0    0  501    0  0.00000000000E+00 -0.00000000000E+00 -0.73913908941E+03  0.73913908941E+03  0.00000000000E+00 0. -1.
         23    2    1    2    0    0 -0.22996766716E+03 -0.90596597506E+03  0.15883715013E+03  0.95283132626E+03  0.94862111189E+02 0.  0.
        254    2    1    2    0    0  0.22996766716E+03  0.90596597506E+03  0.89468720922E+03  0.15789712119E+04  0.90500022642E+03 0.  0.
         23    2    4    4    0    0  0.53351574477E+03  0.78686998582E+03  0.58329035879E+03  0.11190603871E+04  0.90912500521E+02 0.  0.
         23    2    4    4    0    0 -0.30354807761E+03  0.11909598924E+03  0.31139685043E+03  0.45991082484E+03  0.90690012004E+02 0.  0.
         11    1    3    3    0    0 -0.20827646775E+03 -0.70038714107E+03  0.97316393691E+02  0.73715108009E+03  0.00000000000E+00 0. -1.
        -11    1    3    3    0    0 -0.21691199409E+02 -0.20557883399E+03  0.61520756439E+02  0.21568024617E+03  0.00000000000E+00 0.  1.
          2    1    5    5  502    0  0.19360279879E+03  0.21176370851E+03  0.18050945096E+03  0.33898314682E+03  0.00000000000E+00 0. -1.
          3    1    6    6  503    0 -0.29263367297E+03  0.13051216665E+03  0.30641753325E+03  0.44335042222E+03  0.00000000000E+00 0. -1.
         -2    1    5    5    0  502  0.33991294598E+03  0.57510627731E+03  0.40278090784E+03  0.78007724025E+03  0.00000000000E+00 0.  1.
         -3    1    6    6    0  503 -0.10914404642E+02 -0.11416177413E+02  0.49793171730E+01  0.16560402620E+02  0.00000000000E+00 0.  1.
<mgrwt>
<rscale>  0 0.23021969E+04</rscale>
<asrwt>0</asrwt>
<pdfrwt beam="1">  1        2 0.11371371E+00 0.23021969E+04</pdfrwt>
<pdfrwt beam="2">  1       -2 0.27579438E+00 0.23021969E+04</pdfrwt>
<totfact> 0.15476988E+00</totfact>
</mgrwt>
</event>
<event>
12    1  0.4403484E-008  0.2586195E+04  0.7818608E-02  0.8372906E-01
         -1   -1    0    0    0  501 -0.00000000000E+00  0.00000000000E+00  0.10588783848E+04  0.10588783848E+04  0.00000000000E+00 0.  1.
          1   -1    0    0  501    0  0.00000000000E+00 -0.00000000000E+00 -0.15791249525E+04  0.15791249525E+04  0.00000000000E+00 0. -1.
         23    2    1    2    0    0 -0.93700665221E+03  0.39618857697E+03 -0.74296797107E+03  0.12630076252E+04  0.90774448164E+02 0.  0.
        254    2    1    2    0    0  0.93700665221E+03 -0.39618857697E+03  0.22272140342E+03  0.13749957121E+04  0.89780929492E+03 0.  0.
         23    2    4    4    0    0  0.77635328959E+03 -0.37133982572E+03 -0.22017067129E+03  0.89267995869E+03  0.88230877431E+02 0.  0.
         23    2    4    4    0    0  0.16065336262E+03 -0.24848751258E+02  0.44289207471E+03  0.48231575344E+03  0.10024037518E+03 0.  0.
         11    1    3    3    0    0 -0.87046524847E+03  0.35894069620E+03 -0.65720476388E+03  0.11482448667E+04  0.00000000000E+00 0. -1.
        -11    1    3    3    0    0 -0.66541403739E+02  0.37247880775E+02 -0.85763207190E+02  0.11476275851E+03  0.00000000000E+00 0.  1.
          1    1    5    5  502    0  0.48317824904E+03 -0.26415495431E+03 -0.17146481596E+03  0.57674885638E+03  0.00000000000E+00 0. -1.
          3    1    6    6  503    0  0.12500122323E+03 -0.55279988185E+02  0.38031768334E+03  0.40413206154E+03  0.00000000000E+00 0. -1.
         -1    1    5    5    0  502  0.29317504055E+03 -0.10718487141E+03 -0.48705855337E+02  0.31593110231E+03  0.00000000000E+00 0.  1.
         -3    1    6    6    0  503  0.35652139394E+02  0.30431236927E+02  0.62574391368E+02  0.78183691902E+02  0.00000000000E+00 0.  1.
<mgrwt>
<rscale>  0 0.25861951E+04</rscale>
<asrwt>0</asrwt>
<pdfrwt beam="1">  1        1 0.24294230E+00 0.25861951E+04</pdfrwt>
<pdfrwt beam="2">  1       -1 0.16290437E+00 0.25861951E+04</pdfrwt>
<totfact> 0.14131903E+00</totfact>
</mgrwt>
</event>
<event>
12    1  0.4403484E-008  0.1924124E+04  0.7818608E-02  0.8642941E-01
         -2   -1    0    0    0  501 -0.00000000000E+00  0.00000000000E+00  0.43830948668E+03  0.43830948668E+03  0.00000000000E+00 0.  1.
          2   -1    0    0  501    0  0.00000000000E+00 -0.00000000000E+00 -0.21116650648E+04  0.21116650648E+04  0.00000000000E+00 0. -1.
         23    2    1    2    0    0  0.44337253308E+02  0.64478521121E+03 -0.11494501197E+04  0.13219103361E+04  0.92182418387E+02 0.  0.
        254    2    1    2    0    0 -0.44337253308E+02 -0.64478521121E+03 -0.52390545838E+03  0.12280642154E+04  0.90330007593E+03 0.  0.
         23    2    4    4    0    0  0.58494920620E+02 -0.56631129854E+03  0.98761268794E+02  0.58569700548E+03  0.95692483622E+02 0.  0.
         23    2    4    4    0    0 -0.10283217393E+03 -0.78473912665E+02 -0.62266672718E+03  0.64236720990E+03  0.90494023363E+02 0.  0.
         13    1    3    3    0    0  0.32300612769E+02  0.23575508811E+03 -0.50926092190E+03  0.56211251341E+03  0.00000000000E+00 0.  1.
        -13    1    3    3    0    0  0.12036640539E+02  0.40903012309E+03 -0.64018919781E+03  0.75979782265E+03  0.00000000000E+00 0. -1.
          3    1    5    5  502    0 -0.66957934640E+01 -0.24999123131E+03  0.79593778667E+01  0.25020751603E+03  0.00000000000E+00 0. -1.
          3    1    6    6  503    0 -0.30932314963E+02  0.19180468616E+02 -0.15785652213E+03  0.16199808661E+03  0.00000000000E+00 0. -1.
         -3    1    5    5    0  502  0.65190714084E+02 -0.31632006723E+03  0.90801890928E+02  0.33548948945E+03  0.00000000000E+00 0.  1.
         -3    1    6    6    0  503 -0.71899858965E+02 -0.97654381282E+02 -0.46481020504E+03  0.48036912330E+03  0.00000000000E+00 0.  1.
<mgrwt>
<rscale>  0 0.19241235E+04</rscale>
<asrwt>0</asrwt>
<pdfrwt beam="1">  1        2 0.32487154E+00 0.19241235E+04</pdfrwt>
<pdfrwt beam="2">  1       -2 0.67432229E-01 0.19241235E+04</pdfrwt>
<totfact> 0.10910798E+01</totfact>
</mgrwt>
</event>
<event>
12    1  0.4403484E-008  0.2083399E+04  0.7818608E-02  0.8568592E-01
         -2   -1    0    0    0  501 -0.00000000000E+00  0.00000000000E+00  0.59349638836E+03  0.59349638836E+03  0.00000000000E+00 0. -1.
          2   -1    0    0  501    0  0.00000000000E+00 -0.00000000000E+00 -0.18283819560E+04  0.18283819560E+04  0.00000000000E+00 0.  1.
         23    2    1    2    0    0 -0.39388082096E+03 -0.13696726858E+03 -0.13573277106E+04  0.14229089622E+04  0.91811039999E+02 0.  0.
        254    2    1    2    0    0  0.39388082096E+03  0.13696726858E+03  0.12244214290E+03  0.99896938218E+03  0.89946962950E+03 0.  0.
         23    2    4    4    0    0 -0.14008459421E+03 -0.42312146918E+02  0.34561028343E+03  0.38624811038E+03  0.91253073619E+02 0.  0.
         23    2    4    4    0    0  0.53396541518E+03  0.17927941550E+03 -0.22316814053E+03  0.61272127180E+03  0.91450339195E+02 0.  0.
         13    1    3    3    0    0 -0.28195615297E+03 -0.95735867591E+02 -0.10945049705E+04  0.11342864537E+04  0.00000000000E+00 0.  1.
        -13    1    3    3    0    0 -0.11192466799E+03 -0.41231400989E+02 -0.26282274004E+03  0.28862250850E+03  0.00000000000E+00 0. -1.
          3    1    6    6  502    0  0.21094739906E+02 -0.55893983711E+01  0.38696070748E+01  0.22163106388E+02  0.00000000000E+00 0. -1.
          3    1    5    5  503    0 -0.37162120504E+02 -0.30218628096E+02  0.36473442428E+02  0.60203826182E+02  0.00000000000E+00 0. -1.
         -3    1    5    5    0  503 -0.10292247371E+03 -0.12093518822E+02  0.30913684101E+03  0.32604428420E+03  0.00000000000E+00 0.  1.
         -3    1    6    6    0  502  0.51287067527E+03  0.18486881387E+03 -0.22703774760E+03  0.59055816541E+03  0.00000000000E+00 0.  1.
<mgrwt>
<rscale>  0 0.20833992E+04</rscale>
<asrwt>0</asrwt>
<pdfrwt beam="1">  1        2 0.28128953E+00 0.20833992E+04</pdfrwt>
<pdfrwt beam="2">  1       -2 0.91307138E-01 0.20833992E+04</pdfrwt>
<totfact> 0.78486082E+00</totfact>
</mgrwt>
</event>
<event>
12    1  0.4403484E-008  0.2070572E+04  0.7818608E-02  0.8574319E-01
          1   -1    0    0  501    0  0.00000000000E+00  0.00000000000E+00  0.13578343979E+04  0.13578343979E+04  0.00000000000E+00 0. -1.
         -1   -1    0    0    0  501 -0.00000000000E+00 -0.00000000000E+00 -0.78935748538E+03  0.78935748538E+03  0.00000000000E+00 0.  1.
         23    2    1    2    0    0  0.65842091787E+03  0.23979873519E+03  0.70265350863E+03  0.99666561068E+03  0.92729972768E+02 0.  0.
        254    2    1    2    0    0 -0.65842091787E+03 -0.23979873519E+03 -0.13417659613E+03  0.11505262726E+04  0.90259947177E+03 0.  0.
         23    2    4    4    0    0 -0.47855770543E+03 -0.45532838459E+03  0.20697906992E+03  0.69944493730E+03  0.10020713395E+03 0.  0.
         23    2    4    4    0    0 -0.17986321244E+03  0.21552964940E+03 -0.34115566605E+03  0.45108133527E+03  0.91013062727E+02 0.  0.
         13    1    3    3    0    0  0.40440014271E+03  0.98964473115E+02  0.42004101544E+03  0.59141178296E+03  0.00000000000E+00 0. -1.
        -13    1    3    3    0    0  0.25402077516E+03  0.14083426207E+03  0.28261249318E+03  0.40525382773E+03  0.00000000000E+00 0.  1.
          3    1    5    5  502    0 -0.24343294989E+03 -0.16677635606E+03  0.10874491131E+03  0.31448276546E+03  0.00000000000E+00 0. -1.
          3    1    6    6  503    0 -0.65917145030E+02  0.57919106129E+02 -0.50148572235E+02  0.10106716658E+03  0.00000000000E+00 0. -1.
         -3    1    5    5    0  502 -0.23512475554E+03 -0.28855202853E+03  0.98234158614E+02  0.38496217185E+03  0.00000000000E+00 0.  1.
         -3    1    6    6    0  503 -0.11394606741E+03  0.15761054327E+03 -0.29100709382E+03  0.35001416868E+03  0.00000000000E+00 0.  1.
<mgrwt>
<rscale>  0 0.20705717E+04</rscale>
<asrwt>0</asrwt>
<pdfrwt beam="1">  1        1 0.20889760E+00 0.20705717E+04</pdfrwt>
<pdfrwt beam="2">  1       -1 0.12143961E+00 0.20705717E+04</pdfrwt>
<totfact> 0.45608288E+00</totfact>
</mgrwt>
</event>
<event>
12    1  0.4403484E-008  0.2396133E+04  0.7818608E-02  0.8440953E-01
         -2   -1    0    0    0  501 -0.00000000000E+00  0.00000000000E+00  0.46417646998E+03  0.46417646998E+03  0.00000000000E+00 0.  1.
          2   -1    0    0  501    0  0.00000000000E+00 -0.00000000000E+00 -0.30922785825E+04  0.30922785825E+04  0.00000000000E+00 0. -1.
         23    2    1    2    0    0 -0.43102269222E+03  0.52773396136E+03 -0.22740935419E+04  0.23771859643E+04  0.12340168668E+03 0.  0.
        254    2    1    2    0    0  0.43102269222E+03 -0.52773396136E+03 -0.35400857057E+03  0.11792690882E+04  0.89502503824E+03 0.  0.
         23    2    4    4    0    0  0.12932899049E+03 -0.73162830723E+03 -0.25632661877E+03  0.79148472248E+03  0.93481349492E+02 0.  0.
         23    2    4    4    0    0  0.30169370173E+03  0.20389434587E+03 -0.97681951805E+02  0.38778436568E+03  0.90790729816E+02 0.  0.
         11    1    3    3    0    0 -0.16479587299E+03  0.19546968595E+03 -0.10670602560E+04  0.10972618957E+04  0.00000000000E+00 0.  1.
        -11    1    3    3    0    0 -0.26622681923E+03  0.33226427542E+03 -0.12070332860E+04  0.12799240686E+04  0.00000000000E+00 0. -1.
          1    1    5    5  502    0  0.53428256289E+02 -0.44350452584E+03 -0.19432906822E+03  0.48714949427E+03  0.00000000000E+00 0. -1.
          3    1    6    6  503    0  0.30284036825E+03  0.20949696438E+03 -0.91654572850E+02  0.37947572709E+03  0.00000000000E+00 0. -1.
         -1    1    5    5    0  502  0.75900734202E+02 -0.28812378139E+03 -0.61997550551E+02  0.30433522821E+03  0.00000000000E+00 0.  1.
         -3    1    6    6    0  503 -0.11466665210E+01 -0.56026185079E+01 -0.60273789550E+01  0.83086385962E+01  0.00000000000E+00 0.  1.
<mgrwt>
<rscale>  0 0.23961327E+04</rscale>
<asrwt>0</asrwt>
<pdfrwt beam="1">  1        2 0.47573516E+00 0.23961327E+04</pdfrwt>
<pdfrwt beam="2">  1       -2 0.71411766E-01 0.23961327E+04</pdfrwt>
<totfact> 0.24377621E+00</totfact>
</mgrwt>
</event>
<event>
12    1  0.4403484E-008  0.1053432E+04  0.7818608E-02  0.9251808E-01
          2   -1    0    0  501    0  0.00000000000E+00  0.00000000000E+00  0.25418509688E+03  0.25418509688E+03  0.00000000000E+00 0. -1.
         -2   -1    0    0    0  501 -0.00000000000E+00 -0.00000000000E+00 -0.10914467913E+04  0.10914467913E+04  0.00000000000E+00 0.  1.
         23    2    1    2    0    0  0.88134903354E+02 -0.58195022790E+01 -0.63445403162E+02  0.14206338025E+03  0.91406001058E+02 0.  0.
        254    2    1    2    0    0 -0.88134903354E+02  0.58195022790E+01 -0.77381629124E+03  0.12035685079E+04  0.91759679208E+03 0.  0.
         23    2    4    4    0    0 -0.43668020395E+03 -0.14724266394E+03 -0.63081037709E+03  0.78684254845E+03  0.93965214875E+02 0.  0.
         23    2    4    4    0    0  0.34854530059E+03  0.15306216622E+03 -0.14300591415E+03  0.41672595946E+03  0.91093251727E+02 0.  0.
         13    1    3    3    0    0  0.97054431150E+02 -0.29785221768E+02 -0.51555805290E+02  0.11386273798E+03  0.00000000000E+00 0. -1.
        -13    1    3    3    0    0 -0.89195277962E+01  0.23965719488E+02 -0.11889597872E+02  0.28200642267E+02  0.00000000000E+00 0.  1.
          1    1    5    5  502    0 -0.34393366416E+03 -0.11962097948E+03 -0.55552406859E+03  0.66423379533E+03  0.00000000000E+00 0. -1.
          3    1    6    6  503    0  0.11433518566E+03  0.40101789624E+02 -0.25545105980E+01  0.12119081540E+03  0.00000000000E+00 0. -1.
         -1    1    5    5    0  502 -0.92746539781E+02 -0.27621684464E+02 -0.75286308496E+02  0.12260875312E+03  0.00000000000E+00 0.  1.
         -3    1    6    6    0  503  0.23421011493E+03  0.11296037660E+03 -0.14045140355E+03  0.29553514406E+03  0.00000000000E+00 0.  1.
<mgrwt>
<rscale>  0 0.10534316E+04</rscale>
<asrwt>0</asrwt>
<pdfrwt beam="1">  1        2 0.39105399E-01 0.10534316E+04</pdfrwt>
<pdfrwt beam="2">  1       -2 0.16791489E+00 0.10534316E+04</pdfrwt>
<totfact> 0.28982660E+01</totfact>
</mgrwt>
</event>
<event>
12    1  0.4403484E-008  0.1741101E+04  0.7818608E-02  0.8738264E-01
          1   -1    0    0  501    0  0.00000000000E+00  0.00000000000E+00  0.61928136347E+03  0.61928136347E+03  0.00000000000E+00 0. -1.
         -1   -1    0    0    0  501 -0.00000000000E+00 -0.00000000000E+00 -0.12237702635E+04  0.12237702635E+04  0.00000000000E+00 0.  1.
         23    2    1    2    0    0  0.26915599473E+03 -0.42175666187E+03 -0.61993829368E+03  0.80227583067E+03  0.94865110474E+02 0.  0.
        254    2    1    2    0    0 -0.26915599473E+03  0.42175666187E+03  0.15449393626E+02  0.10407757963E+04  0.91249764005E+03 0.  0.
         23    2    4    4    0    0  0.12900778612E+03  0.51695392665E+03 -0.19120940910E+03  0.57335762850E+03  0.91068989656E+02 0.  0.
         23    2    4    4    0    0 -0.39816378085E+03 -0.95197264779E+02  0.20665880273E+03  0.46741816781E+03  0.90415525498E+02 0.  0.
         13    1    3    3    0    0  0.99491631047E+02 -0.10082613795E+03 -0.22472179926E+03  0.26563957124E+03  0.00000000000E+00 0. -1.
        -13    1    3    3    0    0  0.16966436369E+03 -0.32093052392E+03 -0.39521649441E+03  0.53663625944E+03  0.00000000000E+00 0.  1.
          2    1    5    5  502    0 -0.12265293288E+02  0.74844149366E+02 -0.36072194782E+02  0.83983851723E+02  0.00000000000E+00 0. -1.
          3    1    6    6  503    0 -0.44434109353E+02 -0.33878204741E+02  0.61471682558E+01  0.56213081289E+02  0.00000000000E+00 0. -1.
         -2    1    5    5    0  502  0.14127307940E+03  0.44210977728E+03 -0.15513721432E+03  0.48937377678E+03  0.00000000000E+00 0.  1.
         -3    1    6    6    0  503 -0.35372967149E+03 -0.61319060038E+02  0.20051163447E+03  0.41120508652E+03  0.00000000000E+00 0.  1.
<mgrwt>
<rscale>  0 0.17411009E+04</rscale>
<asrwt>0</asrwt>
<pdfrwt beam="1">  1        1 0.95274058E-01 0.17411009E+04</pdfrwt>
<pdfrwt beam="2">  1       -1 0.18827234E+00 0.17411009E+04</pdfrwt>
<totfact> 0.56356100E+00</totfact>
</mgrwt>
</event>
<event>
12    1  0.4403484E-008  0.1770299E+04  0.7818608E-02  0.8722255E-01
          1   -1    0    0  501    0  0.00000000000E+00  0.00000000000E+00  0.76830947489E+03  0.76830947489E+03  0.00000000000E+00 0. -1.
         -1   -1    0    0    0  501 -0.00000000000E+00 -0.00000000000E+00 -0.10197580822E+04  0.10197580822E+04  0.00000000000E+00 0.  1.
         23    2    1    2    0    0  0.55243112792E+02  0.45373338498E+03 -0.55937313113E+03  0.72786603206E+03  0.89246146407E+02 0.  0.
        254    2    1    2    0    0 -0.55243112792E+02 -0.45373338498E+03  0.30792452383E+03  0.10602015250E+04  0.90569529927E+03 0.  0.
         23    2    4    4    0    0 -0.20002200059E+03  0.23453040415E+02 -0.23224517767E+03  0.31975012102E+03  0.87996997214E+02 0.  0.
         23    2    4    4    0    0  0.14477888780E+03 -0.47718642540E+03  0.54016970149E+03  0.74045140400E+03  0.88414729184E+02 0.  0.
         11    1    3    3    0    0  0.68970700921E+02  0.36918831161E+03 -0.49156528554E+03  0.61862217626E+03  0.00000000000E+00 0.  1.
        -11    1    3    3    0    0 -0.13727588129E+02  0.84545073373E+02 -0.67807845582E+02  0.10924385580E+03  0.00000000000E+00 0. -1.
          1    1    6    6  502    0  0.11136130982E+03 -0.28795080675E+03  0.38474107902E+03  0.49329778665E+03  0.00000000000E+00 0. -1.
          1    1    5    5  503    0 -0.13102286023E+03 -0.26265029646E+02 -0.12606426448E+03  0.18370911917E+03  0.00000000000E+00 0. -1.
         -1    1    5    5    0  503 -0.68999140360E+02  0.49718070061E+02 -0.10618091318E+03  0.13604100186E+03  0.00000000000E+00 0.  1.
         -1    1    6    6    0  502  0.33417577978E+02 -0.18923561864E+03  0.15542862247E+03  0.24715361734E+03  0.00000000000E+00 0.  1.
<mgrwt>
<rscale>  0 0.17702992E+04</rscale>
<asrwt>0</asrwt>
<pdfrwt beam="1">  1        1 0.11820146E+00 0.17702992E+04</pdfrwt>
<pdfrwt beam="2">  1       -1 0.15688586E+00 0.17702992E+04</pdfrwt>
<totfact> 0.68857760E+00</totfact>
</mgrwt>
</event>
<event>
12    1  0.4403484E-008  0.1482767E+04  0.7818608E-02  0.8895994E-01
         -2   -1    0    0    0  501 -0.00000000000E+00  0.00000000000E+00  0.26179514191E+03  0.26179514191E+03  0.00000000000E+00 0.  1.
          2   -1    0    0  501    0  0.00000000000E+00 -0.00000000000E+00 -0.20995414373E+04  0.20995414373E+04  0.00000000000E+00 0. -1.
         23    2    1    2    0    0 -0.11732726465E+03  0.30991191718E+02  0.12417739098E+03  0.19383812878E+03  0.86180361697E+02 0.  0.
        254    2    1    2    0    0  0.11732726465E+03 -0.30991191718E+02 -0.19619236864E+04  0.21674984504E+04  0.91333391509E+03 0.  0.
         23    2    4    4    0    0  0.20477889297E+03  0.28776589754E+02 -0.27059819088E+02  0.22746523307E+03  0.90805899167E+02 0.  0.
         23    2    4    4    0    0 -0.87451628318E+02 -0.59767781472E+02 -0.19348638673E+04  0.19400332174E+04  0.93865459564E+02 0.  0.
         13    1    3    3    0    0 -0.65491787570E+02  0.29186210355E+02  0.12250370474E+03  0.14194423831E+03  0.00000000000E+00 0.  1.
        -13    1    3    3    0    0 -0.51835477084E+02  0.18049813632E+01  0.16736862383E+01  0.51893890468E+02  0.00000000000E+00 0. -1.
          2    1    5    5  502    0  0.12787431227E+03  0.51407202668E+02  0.11901540604E+02  0.13833360725E+03  0.00000000000E+00 0. -1.
          1    1    6    6  503    0 -0.35715560343E+02 -0.60735892766E+02 -0.15628962439E+04  0.15644836589E+04  0.00000000000E+00 0. -1.
         -2    1    5    5    0  502  0.76904580701E+02 -0.22630612914E+02 -0.38961359692E+02  0.89131625828E+02  0.00000000000E+00 0.  1.
         -1    1    6    6    0  503 -0.51736067975E+02  0.96811129374E+00 -0.37196762341E+03  0.37554955843E+03  0.00000000000E+00 0.  1.
<mgrwt>
<rscale>  0 0.14827673E+04</rscale>
<asrwt>0</asrwt>
<pdfrwt beam="1">  1        2 0.32300638E+00 0.14827673E+04</pdfrwt>
<pdfrwt beam="2">  1       -2 0.40276175E-01 0.14827673E+04</pdfrwt>
<totfact> 0.33213271E+01</totfact>
</mgrwt>
</event>
<event>
12    1  0.4403484E-008  0.1941637E+04  0.7818608E-02  0.8634404E-01
          3   -1    0    0  501    0  0.00000000000E+00  0.00000000000E+00  0.11311549106E+04  0.11311549106E+04  0.00000000000E+00 0.  1.
         -3   -1    0    0    0  501 -0.00000000000E+00 -0.00000000000E+00 -0.83320911625E+03  0.83320911625E+03  0.00000000000E+00 0. -1.
         23    2    1    2    0    0 -0.53990050408E+03  0.46939798829E+03  0.41337767079E+03  0.83107383916E+03  0.89306224371E+02 0.  0.
        254    2    1    2    0    0  0.53990050408E+03 -0.46939798829E+03 -0.11543187646E+03  0.11332901877E+04  0.87131802784E+03 0.  0.
         23    2    4    4    0    0  0.21478177259E+03 -0.68652105989E+03 -0.97986411983E+02  0.73183069307E+03  0.92371266515E+02 0.  0.
         23    2    4    4    0    0  0.32511873149E+03  0.21712307160E+03 -0.17445464480E+02  0.40145949460E+03  0.89558716980E+02 0.  0.
         13    1    3    3    0    0 -0.45800470295E+03  0.43547714703E+03  0.37080193365E+03  0.73273646525E+03  0.00000000000E+00 0.  1.
        -13    1    3    3    0    0 -0.81895801130E+02  0.33920841265E+02  0.42575737140E+02  0.98337373911E+02  0.00000000000E+00 0. -1.
          1    1    5    5  502    0  0.19608257076E+03 -0.56409728742E+03 -0.11055101050E+03  0.60735133996E+03  0.00000000000E+00 0. -1.
          1    1    6    6  503    0  0.17975563869E+03  0.17110899872E+03 -0.17345348318E+01  0.24818015170E+03  0.00000000000E+00 0. -1.
         -1    1    5    5    0  502  0.18699201835E+02 -0.12242377247E+03  0.12564598517E+02  0.12447935311E+03  0.00000000000E+00 0.  1.
         -1    1    6    6    0  503  0.14536309279E+03  0.46014072877E+02 -0.15710929648E+02  0.15327934290E+03  0.00000000000E+00 0.  1.
<mgrwt>
<rscale>  0 0.19416370E+04</rscale>
<asrwt>0</asrwt>
<pdfrwt beam="1">  1        3 0.17402383E+00 0.19416370E+04</pdfrwt>
<pdfrwt beam="2">  1       -3 0.12818602E+00 0.19416370E+04</pdfrwt>
<totfact> 0.25553852E-01</totfact>
</mgrwt>
</event>
<event>
12    1  0.4403484E-008  0.1873689E+04  0.7818608E-02  0.8668065E-01
          1   -1    0    0  501    0  0.00000000000E+00  0.00000000000E+00  0.43788899634E+03  0.43788899634E+03  0.00000000000E+00 0. -1.
         -1   -1    0    0    0  501 -0.00000000000E+00 -0.00000000000E+00 -0.20043370795E+04  0.20043370795E+04  0.00000000000E+00 0.  1.
         23    2    1    2    0    0  0.10671439263E+03  0.50894092773E+03 -0.12453933667E+04  0.13538089551E+04  0.10670154443E+03 0.  0.
        254    2    1    2    0    0 -0.10671439263E+03 -0.50894092773E+03 -0.32105471645E+03  0.10884171207E+04  0.90064802683E+03 0.  0.
         23    2    4    4    0    0  0.32660283269E+03 -0.27767316643E+03  0.82108579561E+02  0.44579977336E+03  0.90685287695E+02 0.  0.
         23    2    4    4    0    0 -0.43331722532E+03 -0.23126776129E+03 -0.40316329601E+03  0.64261734737E+03  0.95748716556E+02 0.  0.
         13    1    3    3    0    0  0.85196335700E+02  0.49070674641E+03 -0.11277314417E+04  0.12328137455E+04  0.00000000000E+00 0.  1.
        -13    1    3    3    0    0  0.21518056928E+02  0.18234181318E+02 -0.11766192502E+03  0.12099520959E+03  0.00000000000E+00 0. -1.
          4    1    5    5  502    0  0.23604235068E+03 -0.19862883826E+03  0.99939362817E+02  0.32427963695E+03  0.00000000000E+00 0. -1.
          4    1    6    6  503    0 -0.29595209077E+03 -0.11061098906E+03 -0.28007040591E+03  0.42221068579E+03  0.00000000000E+00 0. -1.
         -4    1    5    5    0  502  0.90560482017E+02 -0.79044328177E+02 -0.17830783257E+02  0.12152013640E+03  0.00000000000E+00 0.  1.
         -4    1    6    6    0  503 -0.13736513456E+03 -0.12065677223E+03 -0.12309289010E+03  0.22040666158E+03  0.00000000000E+00 0.  1.
<mgrwt>
<rscale>  0 0.18736885E+04</rscale>
<asrwt>0</asrwt>
<pdfrwt beam="1">  1        1 0.67367540E-01 0.18736885E+04</pdfrwt>
<pdfrwt beam="2">  1       -1 0.30835954E+00 0.18736885E+04</pdfrwt>
<totfact> 0.14536522E+00</totfact>
</mgrwt>
</event>
<event>
12    1  0.4403484E-008  0.1627795E+04  0.7818608E-02  0.8803652E-01
         -2   -1    0    0    0  501 -0.00000000000E+00  0.00000000000E+00  0.53481770725E+03  0.53481770725E+03  0.00000000000E+00 0.  1.
          2   -1    0    0  501    0  0.00000000000E+00 -0.00000000000E+00 -0.12386072510E+04  0.12386072510E+04  0.00000000000E+00 0. -1.
         23    2    1    2    0    0 -0.22090753198E+03 -0.51879491956E+03 -0.25746352275E+03  0.62614918092E+03  0.88470475088E+02 0.  0.
        254    2    1    2    0    0  0.22090753198E+03  0.51879491956E+03 -0.44632602103E+03  0.11472757774E+04  0.89391637529E+03 0.  0.
         23    2    4    4    0    0  0.32415144291E+03 -0.99302413861E+02 -0.36958539910E+03  0.50962383235E+03  0.90487324713E+02 0.  0.
         23    2    4    4    0    0 -0.10324391093E+03  0.61809733342E+03 -0.76740621928E+02  0.63765194500E+03  0.89483301132E+02 0.  0.
         13    1    3    3    0    0 -0.14546545082E+02 -0.84124137080E+02 -0.67522407092E+02  0.10884736043E+03  0.00000000000E+00 0. -1.
        -13    1    3    3    0    0 -0.20636098690E+03 -0.43467078248E+03 -0.18994111566E+03  0.51730182048E+03  0.00000000000E+00 0.  1.
          4    1    5    5  502    0  0.63564836978E+02 -0.56766413572E+02 -0.11217368386E+03  0.14087529791E+03  0.00000000000E+00 0.  1.
          1    1    6    6  503    0 -0.58923349759E+02  0.50135779829E+03 -0.87437271755E+02  0.51232497455E+03  0.00000000000E+00 0. -1.
         -4    1    5    5    0  502  0.26058660593E+03 -0.42536000288E+02 -0.25741171524E+03  0.36874853445E+03  0.00000000000E+00 0. -1.
         -1    1    6    6    0  503 -0.44320561175E+02  0.11673953514E+03  0.10696649826E+02  0.12532697046E+03  0.00000000000E+00 0.  1.
<mgrwt>
<rscale>  0 0.16277949E+04</rscale>
<asrwt>0</asrwt>
<pdfrwt beam="1">  1        2 0.19055496E+00 0.16277949E+04</pdfrwt>
<pdfrwt beam="2">  1       -2 0.82279648E-01 0.16277949E+04</pdfrwt>
<totfact> 0.22303476E+01</totfact>
</mgrwt>
</event>
<event>
12    1  0.4403484E-008  0.1668010E+04  0.7818608E-02  0.8779823E-01
          2   -1    0    0  501    0  0.00000000000E+00  0.00000000000E+00  0.82138262820E+03  0.82138262820E+03  0.00000000000E+00 0. -1.
         -2   -1    0    0    0  501 -0.00000000000E+00 -0.00000000000E+00 -0.84682142609E+03  0.84682142609E+03  0.00000000000E+00 0.  1.
         23    2    1    2    0    0  0.70871887895E+02  0.49085521639E+03 -0.32431404951E+03  0.59968415652E+03  0.92085921391E+02 0.  0.
        254    2    1    2    0    0 -0.70871887895E+02 -0.49085521639E+03  0.29887525162E+03  0.10685198978E+04  0.89802376803E+03 0.  0.
         23    2    4    4    0    0 -0.10570346785E+03  0.62637235179E+02  0.45918943956E+03  0.48372095739E+03  0.89634685615E+02 0.  0.
         23    2    4    4    0    0  0.34831579958E+02 -0.55349245157E+03 -0.16031418794E+03  0.58479894038E+03  0.93391803223E+02 0.  0.
         11    1    3    3    0    0  0.61101738750E+02  0.34751462881E+03 -0.18023610911E+03  0.39621319355E+03  0.00000000000E+00 0. -1.
        -11    1    3    3    0    0  0.97701491452E+01  0.14334058758E+03 -0.14407794040E+03  0.20347096297E+03  0.00000000000E+00 0.  1.
          4    1    5    5  502    0 -0.34579206808E+02  0.27686067142E+02  0.49454858601E+02  0.66392943122E+02  0.00000000000E+00 0. -1.
          3    1    6    6  503    0  0.78075742550E+01 -0.74599053508E+01 -0.16118715377E+02  0.19401582126E+02  0.00000000000E+00 0. -1.
         -4    1    5    5    0  502 -0.71124261046E+02  0.34951168038E+02  0.40973458096E+03  0.41732801427E+03  0.00000000000E+00 0.  1.
         -3    1    6    6    0  503  0.27024005703E+02 -0.54603254622E+03 -0.14419547256E+03  0.56539735825E+03  0.00000000000E+00 0.  1.
<mgrwt>
<rscale>  0 0.16680101E+04</rscale>
<asrwt>0</asrwt>
<pdfrwt beam="1">  1        2 0.12636656E+00 0.16680101E+04</pdfrwt>
<pdfrwt beam="2">  1       -2 0.13028022E+00 0.16680101E+04</pdfrwt>
<totfact> 0.13697647E+01</totfact>
</mgrwt>
</event>
<event>
12    1  0.4403484E-008  0.1451521E+04  0.7818608E-02  0.8917347E-01
         -1   -1    0    0    0  501 -0.00000000000E+00  0.00000000000E+00  0.66317540996E+03  0.66317540996E+03  0.00000000000E+00 0.  1.
          1   -1    0    0  501    0  0.00000000000E+00 -0.00000000000E+00 -0.79425185059E+03  0.79425185059E+03  0.00000000000E+00 0. -1.
         23    2    1    2    0    0 -0.47211673821E+01  0.34871886104E+03  0.20201376894E+03  0.41282966467E+03  0.89395949157E+02 0.  0.
        254    2    1    2    0    0  0.47211673821E+01 -0.34871886104E+03 -0.33309020958E+03  0.10445975959E+04  0.92661098425E+03 0.  0.
         23    2    4    4    0    0  0.13596695516E+03 -0.20899328672E+02  0.28386063138E+03  0.32785279285E+03  0.89368903422E+02 0.  0.
         23    2    4    4    0    0 -0.13124578778E+03 -0.32781953237E+03 -0.61695084096E+03  0.71674480302E+03  0.91671532603E+02 0.  0.
         11    1    3    3    0    0  0.13279172167E+02  0.13627533378E+03  0.33211006122E+02  0.14089100020E+03  0.00000000000E+00 0. -1.
        -11    1    3    3    0    0 -0.18000339549E+02  0.21244352726E+03  0.16880276282E+03  0.27193866447E+03  0.00000000000E+00 0.  1.
          1    1    6    6  502    0 -0.38088098087E+01 -0.30540977914E+02 -0.16997273362E+02  0.35159147684E+02  0.00000000000E+00 0. -1.
          1    1    5    5  503    0  0.47532083392E+02 -0.51394471660E+02  0.10903810986E+03  0.12957623266E+03  0.00000000000E+00 0.  1.
         -1    1    5    5    0  503  0.88434871771E+02  0.30495142988E+02  0.17482252152E+03  0.19827656019E+03  0.00000000000E+00 0. -1.
         -1    1    6    6    0  502 -0.12743697797E+03 -0.29727855445E+03 -0.59995356760E+03  0.68158565534E+03  0.00000000000E+00 0.  1.
<mgrwt>
<rscale>  0 0.14515210E+04</rscale>
<asrwt>0</asrwt>
<pdfrwt beam="1">  1        1 0.12219259E+00 0.14515210E+04</pdfrwt>
<pdfrwt beam="2">  1       -1 0.10202699E+00 0.14515210E+04</pdfrwt>
<totfact> 0.19775454E+01</totfact>
</mgrwt>
</event>
<event>
12    1  0.4403484E-008  0.1547142E+04  0.7818608E-02  0.8853695E-01
          2   -1    0    0  501    0  0.00000000000E+00  0.00000000000E+00  0.14676596856E+04  0.14676596856E+04  0.00000000000E+00 0. -1.
         -2   -1    0    0    0  501 -0.00000000000E+00 -0.00000000000E+00 -0.40773243670E+03  0.40773243670E+03  0.00000000000E+00 0.  1.
         23    2    1    2    0    0 -0.50780501032E+03  0.10858413850E+02  0.27025854793E+03  0.58230751121E+03  0.89769266600E+02 0.  0.
        254    2    1    2    0    0  0.50780501032E+03 -0.10858413850E+02  0.78966870100E+03  0.12930846111E+04  0.88910478601E+03 0.  0.
         23    2    4    4    0    0  0.52682782641E+03 -0.15618039885E+02  0.96025963079E+03  0.10989711039E+04  0.88585815817E+02 0.  0.
         23    2    4    4    0    0 -0.19022816090E+02  0.47596260351E+01 -0.17059092979E+03  0.19411350724E+03  0.90522189521E+02 0.  0.
         13    1    3    3    0    0 -0.44139327276E+03  0.40016469371E+02  0.23528232786E+03  0.50178393045E+03  0.00000000000E+00 0.  1.
        -13    1    3    3    0    0 -0.66411737561E+02 -0.29158055521E+02  0.34976220073E+02  0.80523580759E+02  0.00000000000E+00 0. -1.
          4    1    5    5  502    0  0.31538344104E+03 -0.49300618154E+02  0.53936433332E+03  0.62674647976E+03  0.00000000000E+00 0. -1.
          3    1    6    6  503    0  0.14698692316E+02  0.23072166396E+02 -0.10200058014E+02  0.29196191558E+02  0.00000000000E+00 0. -1.
         -4    1    5    5    0  502  0.21144438537E+03  0.33682578269E+02  0.42089529747E+03  0.47222462411E+03  0.00000000000E+00 0.  1.
         -3    1    6    6    0  503 -0.33721508405E+02 -0.18312540361E+02 -0.16039087178E+03  0.16491731569E+03  0.00000000000E+00 0.  1.
<mgrwt>
<rscale>  0 0.15471425E+04</rscale>
<asrwt>0</asrwt>
<pdfrwt beam="1">  1        2 0.22579380E+00 0.15471425E+04</pdfrwt>
<pdfrwt beam="2">  1       -2 0.62728068E-01 0.15471425E+04</pdfrwt>
<totfact> 0.30033801E+01</totfact>
</mgrwt>
</event>
<event>
12    1  0.4403484E-008  0.1497995E+04  0.7818608E-02  0.8885788E-01
          2   -1    0    0  501    0  0.00000000000E+00  0.00000000000E+00  0.37291140788E+04  0.37291140788E+04  0.00000000000E+00 0.  1.
         -2   -1    0    0    0  501 -0.00000000000E+00 -0.00000000000E+00 -0.15043705375E+03  0.15043705375E+03  0.00000000000E+00 0. -1.
         23    2    1    2    0    0  0.99985667843E+02  0.81852544552E+02 -0.27484472792E+02  0.16024304145E+03  0.90694339756E+02 0.  0.
        254    2    1    2    0    0 -0.99985667843E+02 -0.81852544552E+02  0.36061614978E+04  0.37193080911E+04  0.90119640211E+03 0.  0.
         23    2    4    4    0    0  0.16426454096E+03 -0.37395734981E+03  0.10326800824E+04  0.11142926596E+04  0.91613534710E+02 0.  0.
         23    2    4    4    0    0 -0.26425020880E+03  0.29210480525E+03  0.25734814154E+04  0.26050154314E+04  0.90251940067E+02 0.  0.
         11    1    3    3    0    0 -0.83962204592E+01 -0.11890865152E+02 -0.31427349845E+01  0.14891808998E+02  0.00000000000E+00 0.  1.
        -11    1    3    3    0    0  0.10838188830E+03  0.93743409703E+02 -0.24341737807E+02  0.14535123245E+03  0.00000000000E+00 0. -1.
          3    1    6    6  502    0 -0.21254899961E+03  0.27869093770E+03  0.22047506811E+04  0.22324361765E+04  0.00000000000E+00 0. -1.
          3    1    5    5  503    0 -0.60756957984E+01 -0.60746028373E+02  0.12535084171E+03  0.13942678208E+03  0.00000000000E+00 0.  1.
         -3    1    5    5    0  503  0.17034023676E+03 -0.31321132143E+03  0.90732924073E+03  0.97486587756E+03  0.00000000000E+00 0. -1.
         -3    1    6    6    0  502 -0.51701209189E+02  0.13413867556E+02  0.36873073423E+03  0.37257925498E+03  0.00000000000E+00 0.  1.
<mgrwt>
<rscale>  0 0.14979946E+04</rscale>
<asrwt>0</asrwt>
<pdfrwt beam="1">  1        2 0.57370979E+00 0.14979946E+04</pdfrwt>
<pdfrwt beam="2">  1       -2 0.23144165E-01 0.14979946E+04</pdfrwt>
<totfact> 0.90131116E+00</totfact>
</mgrwt>
</event>
<event>
12    1  0.4403484E-008  0.1904890E+04  0.7818608E-02  0.8652426E-01
         -2   -1    0    0    0  501 -0.00000000000E+00  0.00000000000E+00  0.57428234029E+03  0.57428234029E+03  0.00000000000E+00 0.  1.
          2   -1    0    0  501    0  0.00000000000E+00 -0.00000000000E+00 -0.15796258599E+04  0.15796258599E+04  0.00000000000E+00 0. -1.
         23    2    1    2    0    0  0.47831105997E+03  0.37801645285E+03  0.80613105769E+02  0.62223307950E+03  0.94855804715E+02 0.  0.
        254    2    1    2    0    0 -0.47831105997E+03 -0.37801645285E+03 -0.10859566254E+04  0.15316751207E+04  0.89165518806E+03 0.  0.
         23    2    4    4    0    0 -0.16549404232E+03  0.20332314306E+03 -0.25372536293E+02  0.27906828992E+03  0.92232132658E+02 0.  0.
         23    2    4    4    0    0 -0.31281701765E+03 -0.58133959591E+03 -0.10605840891E+04  0.12526068308E+04  0.91515300090E+02 0.  0.
         11    1    3    3    0    0  0.17597122727E+02 -0.39554935430E+01 -0.17781186990E+01  0.18123641013E+02  0.00000000000E+00 0. -1.
        -11    1    3    3    0    0  0.46071393725E+03  0.38197194639E+03  0.82391224468E+02  0.60410943849E+03  0.00000000000E+00 0.  1.
          1    1    5    5  502    0 -0.91802780367E+02  0.11161688409E+03  0.32241303904E+02  0.14807289075E+03  0.00000000000E+00 0.  1.
          3    1    6    6  503    0 -0.29009077317E+03 -0.56777248561E+03 -0.10360403054E+04  0.12165104876E+04  0.00000000000E+00 0. -1.
         -1    1    5    5    0  502 -0.73691261953E+02  0.91706258970E+02 -0.57613840197E+02  0.13099539917E+03  0.00000000000E+00 0. -1.
         -3    1    6    6    0  503 -0.22726244486E+02 -0.13567110303E+02 -0.24543783684E+02  0.36096343138E+02  0.00000000000E+00 0.  1.
<mgrwt>
<rscale>  0 0.19048897E+04</rscale>
<asrwt>0</asrwt>
<pdfrwt beam="1">  1        2 0.24301936E+00 0.19048897E+04</pdfrwt>
<pdfrwt beam="2">  1       -2 0.88351130E-01 0.19048897E+04</pdfrwt>
<totfact> 0.11820776E+01</totfact>
</mgrwt>
</event>
<event>
12    1  0.4403484E-008  0.1522628E+04  0.7818608E-02  0.8869543E-01
         -1   -1    0    0    0  501 -0.00000000000E+00  0.00000000000E+00  0.91320036424E+03  0.91320036424E+03  0.00000000000E+00 0.  1.
          1   -1    0    0  501    0  0.00000000000E+00 -0.00000000000E+00 -0.63469016948E+03  0.63469016948E+03  0.00000000000E+00 0. -1.
         23    2    1    2    0    0 -0.37621639795E+03 -0.40295635661E+02 -0.22681398296E+03  0.45159395213E+03  0.96591916832E+02 0.  0.
        254    2    1    2    0    0  0.37621639795E+03  0.40295635661E+02  0.50532417772E+03  0.10962965816E+04  0.89629858523E+03 0.  0.
         23    2    4    4    0    0 -0.28371960665E+03 -0.67028958749E+01  0.10755780529E+03  0.31763898378E+03  0.93723521759E+02 0.  0.
         23    2    4    4    0    0  0.65993600460E+03  0.46998531536E+02  0.39776637244E+03  0.77865759781E+03  0.10180950573E+03 0.  0.
         11    1    3    3    0    0 -0.12808347369E+02 -0.22079858047E+02 -0.69242515922E+01  0.26448424411E+02  0.00000000000E+00 0.  1.
        -11    1    3    3    0    0 -0.36340805058E+03 -0.18215777614E+02 -0.21988973137E+03  0.42514552772E+03  0.00000000000E+00 0. -1.
          1    1    5    5  502    0 -0.28293845287E+03 -0.87671086172E+01  0.11820689150E+03  0.30676358895E+03  0.00000000000E+00 0. -1.
          3    1    6    6  503    0  0.61755349010E+03  0.65987551839E+02  0.35415744839E+03  0.71495046568E+03  0.00000000000E+00 0. -1.
         -1    1    5    5    0  502 -0.78115377664E+00  0.20642127423E+01 -0.10649086218E+02  0.10875394832E+02  0.00000000000E+00 0.  1.
         -3    1    6    6    0  503  0.42382514498E+02 -0.18989020304E+02  0.43608924048E+02  0.63707132128E+02  0.00000000000E+00 0.  1.
<mgrwt>
<rscale>  0 0.15226284E+04</rscale>
<asrwt>0</asrwt>
<pdfrwt beam="1">  1        1 0.97644641E-01 0.15226284E+04</pdfrwt>
<pdfrwt beam="2">  1       -1 0.14049236E+00 0.15226284E+04</pdfrwt>
<totfact> 0.12653979E+01</totfact>
</mgrwt>
</event>
<event>
12    1  0.4403484E-008  0.1517900E+04  0.7818608E-02  0.8872636E-01
         -2   -1    0    0    0  501 -0.00000000000E+00  0.00000000000E+00  0.82423017481E+03  0.82423017481E+03  0.00000000000E+00 0.  1.
          2   -1    0    0  501    0  0.00000000000E+00 -0.00000000000E+00 -0.69884009027E+03  0.69884009027E+03  0.00000000000E+00 0. -1.
         23    2    1    2    0    0  0.74599294095E+02 -0.35700029092E+03 -0.29224687363E+03  0.47640896328E+03  0.92428365500E+02 0.  0.
        254    2    1    2    0    0 -0.74599294095E+02  0.35700029092E+03  0.41763695817E+03  0.10466613018E+04  0.88773024588E+03 0.  0.
         23    2    4    4    0    0 -0.11913278797E+03 -0.12695430881E+03  0.50700997819E+03  0.54430460614E+03  0.94331164447E+02 0.  0.
         23    2    4    4    0    0  0.44533493876E+02  0.48395459973E+03 -0.89373020018E+02  0.50235669566E+03  0.90440180748E+02 0.  0.
         13    1    3    3    0    0  0.75052867763E+01 -0.34194950100E+02 -0.71554305672E+02  0.79659541814E+02  0.00000000000E+00 0.  1.
        -13    1    3    3    0    0  0.67094007318E+02 -0.32280534082E+03 -0.22069256796E+03  0.39674942146E+03  0.00000000000E+00 0. -1.
          1    1    6    6  502    0  0.48205553203E+02  0.38582552326E+03 -0.35733287946E+02  0.39046379810E+03  0.00000000000E+00 0. -1.
          1    1    5    5  503    0 -0.78566480000E+02 -0.12760025640E+03  0.32580428793E+03  0.35861253638E+03  0.00000000000E+00 0. -1.
         -1    1    5    5    0  503 -0.40566307970E+02  0.64594758796E+00  0.18120569026E+03  0.18569206976E+03  0.00000000000E+00 0.  1.
         -1    1    6    6    0  502 -0.36720593270E+01  0.98129076469E+02 -0.53639732072E+02  0.11189289756E+03  0.00000000000E+00 0.  1.
<mgrwt>
<rscale>  0 0.15179000E+04</rscale>
<asrwt>0</asrwt>
<pdfrwt beam="1">  1        2 0.10751386E+00 0.15179000E+04</pdfrwt>
<pdfrwt beam="2">  1       -2 0.12680464E+00 0.15179000E+04</pdfrwt>
<totfact> 0.18318775E+01</totfact>
</mgrwt>
</event>
<event>
12    1  0.4403484E-008  0.1438241E+04  0.7818608E-02  0.8926594E-01
          1   -1    0    0  501    0  0.00000000000E+00  0.00000000000E+00  0.18518368259E+04  0.18518368259E+04  0.00000000000E+00 0. -1.
         -1   -1    0    0    0  501 -0.00000000000E+00 -0.00000000000E+00 -0.27925467893E+03  0.27925467893E+03  0.00000000000E+00 0.  1.
         23    2    1    2    0    0 -0.10039735038E+03 -0.59771552726E+02  0.11008626396E+04  0.11109387760E+04  0.92920106958E+02 0.  0.
        254    2    1    2    0    0  0.10039735038E+03  0.59771552726E+02  0.47171950742E+03  0.10201527289E+04  0.89696155441E+03 0.  0.
         23    2    4    4    0    0  0.30812756812E+03 -0.10560380845E+03 -0.12612482113E+03  0.35950377779E+03  0.85092497580E+02 0.  0.
         23    2    4    4    0    0 -0.20773021774E+03  0.16537536118E+03  0.59784432854E+03  0.66064895109E+03  0.92403149070E+02 0.  0.
         13    1    3    3    0    0  0.30956194062E+01 -0.10514217248E+02  0.12781202082E+02  0.16837183568E+02  0.00000000000E+00 0.  1.
        -13    1    3    3    0    0 -0.10349296979E+03 -0.49257335478E+02  0.10880814375E+04  0.10941015924E+04  0.00000000000E+00 0. -1.
          1    1    5    5  502    0  0.14125692423E+03 -0.83597388201E+02 -0.33995289258E+02  0.16762375025E+03  0.00000000000E+00 0. -1.
          1    1    6    6  503    0 -0.11125102915E+03  0.78289600966E+02  0.41191217215E+03  0.43379452587E+03  0.00000000000E+00 0. -1.
         -1    1    5    5    0  502  0.16687064390E+03 -0.22006420250E+02 -0.92129531868E+02  0.19188002754E+03  0.00000000000E+00 0.  1.
         -1    1    6    6    0  503 -0.96479188590E+02  0.87085760212E+02  0.18593215639E+03  0.22685442522E+03  0.00000000000E+00 0.  1.
<mgrwt>
<rscale>  0 0.14382407E+04</rscale>
<asrwt>0</asrwt>
<pdfrwt beam="1">  1        1 0.28489797E+00 0.14382407E+04</pdfrwt>
<pdfrwt beam="2">  1       -1 0.42962260E-01 0.14382407E+04</pdfrwt>
<totfact> 0.19505241E+01</totfact>
</mgrwt>
</event>
<event>
12    1  0.4403484E-008  0.1780741E+04  0.7818608E-02  0.8716609E-01
          1   -1    0    0  501    0  0.00000000000E+00  0.00000000000E+00  0.72002041876E+03  0.72002041876E+03  0.00000000000E+00 0. -1.
         -1   -1    0    0    0  501 -0.00000000000E+00 -0.00000000000E+00 -0.11010241173E+04  0.11010241173E+04  0.00000000000E+00 0.  1.
         23    2    1    2    0    0  0.26204918402E+03 -0.24740019241E+03 -0.70629977849E+03  0.79818130010E+03  0.91418710813E+02 0.  0.
        254    2    1    2    0    0 -0.26204918402E+03  0.24740019241E+03  0.32529607997E+03  0.10228632359E+04  0.90030829705E+03 0.  0.
         23    2    4    4    0    0 -0.15791788640E+03  0.54746361469E+03  0.37705410194E+03  0.68845241062E+03  0.84513061981E+02 0.  0.
         23    2    4    4    0    0 -0.10413129762E+03 -0.30006342228E+03 -0.51758021972E+02  0.33441082532E+03  0.90941314713E+02 0.  0.
         13    1    3    3    0    0  0.10999269179E+03 -0.10368871680E+03 -0.20276856797E+03  0.25291270114E+03  0.00000000000E+00 0. -1.
        -13    1    3    3    0    0  0.15205649223E+03 -0.14371147561E+03 -0.50353121052E+03  0.54526859896E+03  0.00000000000E+00 0.  1.
          2    1    5    5  502    0 -0.65412353746E+02  0.16029236431E+03  0.15644661966E+03  0.23334087272E+03  0.00000000000E+00 0. -1.
          3    1    6    6  503    0  0.36996342439E+01  0.35512269244E+00  0.87815693690E+01  0.95356890809E+01  0.00000000000E+00 0. -1.
         -2    1    5    5    0  502 -0.92505532650E+02  0.38717125038E+03  0.22060748228E+03  0.45511153790E+03  0.00000000000E+00 0.  1.
         -3    1    6    6    0  503 -0.10783093187E+03 -0.30041854497E+03 -0.60539591341E+02  0.32487513624E+03  0.00000000000E+00 0.  1.
<mgrwt>
<rscale>  0 0.17807412E+04</rscale>
<asrwt>0</asrwt>
<pdfrwt beam="1">  1        1 0.11077237E+00 0.17807412E+04</pdfrwt>
<pdfrwt beam="2">  1       -1 0.16938833E+00 0.17807412E+04</pdfrwt>
<totfact> 0.61313637E+00</totfact>
</mgrwt>
</event>
<event>
12    1  0.4403484E-008  0.1647157E+04  0.7818608E-02  0.8792090E-01
          1   -1    0    0  501    0  0.00000000000E+00  0.00000000000E+00  0.14408016214E+04  0.14408016214E+04  0.00000000000E+00 0. -1.
         -1   -1    0    0    0  501 -0.00000000000E+00 -0.00000000000E+00 -0.47076666406E+03  0.47076666406E+03  0.00000000000E+00 0.  1.
         23    2    1    2    0    0 -0.45266383530E+02 -0.47099104068E+03  0.71981463776E+03  0.86642571249E+03  0.93160059289E+02 0.  0.
        254    2    1    2    0    0  0.45266383530E+02  0.47099104068E+03  0.25022031957E+03  0.10451425730E+04  0.89768100326E+03 0.  0.
         23    2    4    4    0    0 -0.18386761764E+03  0.57012857655E+03 -0.90926289235E+02  0.61281703491E+03  0.91778175999E+02 0.  0.
         23    2    4    4    0    0  0.22913400117E+03 -0.99137535872E+02  0.34114660880E+03  0.43232553805E+03  0.90519172783E+02 0.  0.
         11    1    3    3    0    0 -0.18167273377E+02 -0.72194081081E+02  0.62905915756E+02  0.97463785080E+02  0.00000000000E+00 0. -1.
        -11    1    3    3    0    0 -0.27099110154E+02 -0.39879695960E+03  0.65690872201E+03  0.76896192741E+03  0.00000000000E+00 0.  1.
          2    1    5    5  502    0 -0.66782662738E+02  0.23275335873E+03 -0.81791825144E+02  0.25558550957E+03  0.00000000000E+00 0. -1.
          3    1    6    6  503    0  0.82946714954E+02 -0.53968209419E+02  0.70777411244E+02  0.12166415697E+03  0.00000000000E+00 0. -1.
         -2    1    5    5    0  502 -0.11708495490E+03  0.33737521782E+03 -0.91344640902E+01  0.35723152534E+03  0.00000000000E+00 0.  1.
         -3    1    6    6    0  503  0.14618728621E+03 -0.45169326453E+02  0.27036919756E+03  0.31066138108E+03  0.00000000000E+00 0.  1.
<mgrwt>
<rscale>  0 0.16471568E+04</rscale>
<asrwt>0</asrwt>
<pdfrwt beam="1">  1        1 0.22166179E+00 0.16471568E+04</pdfrwt>
<pdfrwt beam="2">  1       -1 0.72425641E-01 0.16471568E+04</pdfrwt>
<totfact> 0.13220610E+01</totfact>
</mgrwt>
</event>
<event>
12    1  0.4403484E-008  0.1529148E+04  0.7818608E-02  0.8865298E-01
         -1   -1    0    0    0  501 -0.00000000000E+00  0.00000000000E+00  0.28877082027E+03  0.28877082027E+03  0.00000000000E+00 0.  1.
          1   -1    0    0  501    0  0.00000000000E+00 -0.00000000000E+00 -0.20243510769E+04  0.20243510769E+04  0.00000000000E+00 0. -1.
         23    2    1    2    0    0 -0.28009753866E+02 -0.31352518239E+03  0.29122538072E+01  0.32909786593E+03  0.95991342485E+02 0.  0.
        254    2    1    2    0    0  0.28009753866E+02  0.31352518239E+03 -0.17384925105E+04  0.19840240313E+04  0.90272507520E+03 0.  0.
         23    2    4    4    0    0 -0.25271940569E+03  0.52610736720E+03 -0.10801851662E+04  0.12313381952E+04  0.93475653963E+02 0.  0.
         23    2    4    4    0    0  0.28072915956E+03 -0.21258218481E+03 -0.65830734426E+03  0.75268583605E+03  0.95746341733E+02 0.  0.
         11    1    3    3    0    0  0.14777806006E+02 -0.12171790298E+02 -0.14812603844E+02  0.24206388869E+02  0.00000000000E+00 0. -1.
        -11    1    3    3    0    0 -0.42787559872E+02 -0.30135339209E+03  0.17724857651E+02  0.30489147706E+03  0.00000000000E+00 0.  1.
          4    1    5    5  502    0 -0.20806899962E+03  0.41810103192E+03 -0.77887825869E+03  0.90815886460E+03  0.00000000000E+00 0. -1.
          1    1    6    6  503    0  0.20837252834E+03 -0.12561695887E+03 -0.51920942069E+03  0.57339092551E+03  0.00000000000E+00 0. -1.
         -4    1    5    5    0  502 -0.44650406075E+02  0.10800633528E+03 -0.30130690752E+03  0.32317933062E+03  0.00000000000E+00 0.  1.
         -1    1    6    6    0  503  0.72356631220E+02 -0.86965225937E+02 -0.13909792357E+03  0.17929491054E+03  0.00000000000E+00 0.  1.
<mgrwt>
<rscale>  0 0.15291482E+04</rscale>
<asrwt>0</asrwt>
<pdfrwt beam="1">  1        1 0.31143863E+00 0.15291482E+04</pdfrwt>
<pdfrwt beam="2">  1       -1 0.44426279E-01 0.15291482E+04</pdfrwt>
<totfact> 0.13895895E+01</totfact>
</mgrwt>
</event>
<event>
12    1  0.4403484E-008  0.2151934E+04  0.7818608E-02  0.8538705E-01
          2   -1    0    0  501    0  0.00000000000E+00  0.00000000000E+00  0.51215415836E+03  0.51215415836E+03  0.00000000000E+00 0. -1.
         -2   -1    0    0    0  501 -0.00000000000E+00 -0.00000000000E+00 -0.22604624019E+04  0.22604624019E+04  0.00000000000E+00 0.  1.
         23    2    1    2    0    0 -0.78553877191E+03  0.10997384635E+03 -0.21910880640E+03  0.82796713886E+03  0.91408451126E+02 0.  0.
        254    2    1    2    0    0  0.78553877191E+03 -0.10997384635E+03 -0.15291994372E+04  0.19446494214E+04  0.90224444834E+03 0.  0.
         23    2    4    4    0    0  0.41262911884E+03  0.34203325695E+03 -0.10468635843E+04  0.11797563430E+04  0.93016805729E+02 0.  0.
         23    2    4    4    0    0  0.37290965308E+03 -0.45200710330E+03 -0.48233585285E+03  0.76489307841E+03  0.95086884772E+02 0.  0.
         13    1    3    3    0    0 -0.74620770938E+03  0.83430454122E+02 -0.20235649383E+03  0.77764692298E+03  0.00000000000E+00 0. -1.
        -13    1    3    3    0    0 -0.39331062528E+02  0.26543392226E+02 -0.16752312572E+02  0.50320215887E+02  0.00000000000E+00 0.  1.
          2    1    5    5  502    0  0.60990508536E+02  0.13087154904E+02 -0.11388673302E+03  0.12985108283E+03  0.00000000000E+00 0.  1.
          3    1    6    6  503    0  0.25911354438E+03 -0.32262946107E+03 -0.28251266881E+03  0.50104192047E+03  0.00000000000E+00 0. -1.
         -2    1    5    5    0  502  0.35163861030E+03  0.32894610205E+03 -0.93297685129E+03  0.10499052602E+04  0.00000000000E+00 0. -1.
         -3    1    6    6    0  503  0.11379610869E+03 -0.12937764224E+03 -0.19982318404E+03  0.26385115793E+03  0.00000000000E+00 0.  1.
<mgrwt>
<rscale>  0 0.21519342E+04</rscale>
<asrwt>0</asrwt>
<pdfrwt beam="1">  1        2 0.78792947E-01 0.21519342E+04</pdfrwt>
<pdfrwt beam="2">  1       -2 0.34776345E+00 0.21519342E+04</pdfrwt>
<totfact> 0.88446718E-01</totfact>
</mgrwt>
</event>
<event>
12    1  0.4403484E-008  0.2287944E+04  0.7818608E-02  0.8482690E-01
         -2   -1    0    0    0  501 -0.00000000000E+00  0.00000000000E+00  0.14733898262E+04  0.14733898262E+04  0.00000000000E+00 0.  1.
          2   -1    0    0  501    0  0.00000000000E+00 -0.00000000000E+00 -0.88820461997E+03  0.88820461997E+03  0.00000000000E+00 0. -1.
         23    2    1    2    0    0 -0.27788006313E+03  0.15185340004E+03 -0.69283300691E+03  0.76714500859E+03  0.90648244045E+02 0.  0.
        254    2    1    2    0    0  0.27788006313E+03 -0.15185340004E+03  0.12780182131E+04  0.15944494376E+04  0.89925617669E+03 0.  0.
         23    2    4    4    0    0  0.55656739422E+03  0.64791232133E+02  0.93429681491E+03  0.10933571288E+04  0.92488403379E+02 0.  0.
         23    2    4    4    0    0 -0.27868733109E+03 -0.21664463217E+03  0.34372139822E+03  0.50109230874E+03  0.91365076102E+02 0.  0.
         13    1    3    3    0    0 -0.24986706786E+03  0.16123212969E+03 -0.59867781920E+03  0.66846427163E+03  0.00000000000E+00 0. -1.
        -13    1    3    3    0    0 -0.28012995270E+02 -0.93787296466E+01 -0.94155187709E+02  0.98680736957E+02  0.00000000000E+00 0.  1.
          2    1    5    5  502    0 -0.19787846587E+01  0.56324575845E+01  0.13716725431E+02  0.14959569637E+02  0.00000000000E+00 0. -1.
          3    1    6    6  503    0 -0.29571805867E+02 -0.51658492604E+02  0.26033907846E+02  0.64968114626E+02  0.00000000000E+00 0. -1.
         -2    1    5    5    0  502  0.55854617888E+03  0.59158774549E+02  0.92058008948E+03  0.10783975592E+04  0.00000000000E+00 0.  1.
         -3    1    6    6    0  503 -0.24911552522E+03 -0.16498613957E+03  0.31768749037E+03  0.43612419412E+03  0.00000000000E+00 0.  1.
<mgrwt>
<rscale>  0 0.22879437E+04</rscale>
<asrwt>0</asrwt>
<pdfrwt beam="1">  1        2 0.13664686E+00 0.22879437E+04</pdfrwt>
<pdfrwt beam="2">  1       -2 0.22667536E+00 0.22879437E+04</pdfrwt>
<totfact> 0.24307433E+00</totfact>
</mgrwt>
</event>
<event>
12    1  0.4403484E-008  0.3319953E+04  0.7818608E-02  0.8157837E-01
          1   -1    0    0  501    0  0.00000000000E+00  0.00000000000E+00  0.31103719735E+04  0.31103719735E+04  0.00000000000E+00 0. -1.
         -1   -1    0    0    0  501 -0.00000000000E+00 -0.00000000000E+00 -0.88591392660E+03  0.88591392660E+03  0.00000000000E+00 0.  1.
         23    2    1    2    0    0  0.51746863059E+03  0.13941852731E+04  0.56626337951E+03  0.15938947053E+04  0.91212702193E+02 0.  0.
        254    2    1    2    0    0 -0.51746863059E+03 -0.13941852731E+04  0.16581946674E+04  0.24023911949E+04  0.90019305631E+03 0.  0.
         23    2    4    4    0    0 -0.62996256966E+03 -0.53277616959E+03  0.56892265760E+03  0.10061410392E+04  0.89126395963E+02 0.  0.
         23    2    4    4    0    0  0.11249393906E+03 -0.86140910353E+03  0.10892720098E+04  0.13962501556E+04  0.91216531994E+02 0.  0.
         13    1    3    3    0    0  0.91603894417E+02  0.27981322151E+03  0.75744380865E+02  0.30401303202E+03  0.00000000000E+00 0. -1.
        -13    1    3    3    0    0  0.42586473618E+03  0.11143720516E+04  0.49051899864E+03  0.12898816732E+04  0.00000000000E+00 0.  1.
          2    1    5    5  502    0 -0.28309512006E+03 -0.20037438863E+03  0.19961165065E+03  0.40017190518E+03  0.00000000000E+00 0. -1.
          3    1    6    6  503    0  0.81118171497E+02 -0.29752107727E+03  0.36574529839E+03  0.47840210332E+03  0.00000000000E+00 0. -1.
         -2    1    5    5    0  502 -0.34686744959E+03 -0.33240178096E+03  0.36931100695E+03  0.60596913406E+03  0.00000000000E+00 0.  1.
         -3    1    6    6    0  503  0.31375767567E+02 -0.56388802626E+03  0.72352671142E+03  0.91784805229E+03  0.00000000000E+00 0.  1.
<mgrwt>
<rscale>  0 0.33199529E+04</rscale>
<asrwt>0</asrwt>
<pdfrwt beam="1">  1        1 0.47851876E+00 0.33199529E+04</pdfrwt>
<pdfrwt beam="2">  1       -1 0.13629445E+00 0.33199529E+04</pdfrwt>
<totfact> 0.18439954E-01</totfact>
</mgrwt>
</event>
<event>
12    1  0.4403484E-008  0.2252122E+04  0.7818608E-02  0.8497042E-01
          1   -1    0    0  501    0  0.00000000000E+00  0.00000000000E+00  0.67506761367E+03  0.67506761367E+03  0.00000000000E+00 0. -1.
         -1   -1    0    0    0  501 -0.00000000000E+00 -0.00000000000E+00 -0.18783498379E+04  0.18783498379E+04  0.00000000000E+00 0.  1.
         23    2    1    2    0    0 -0.80296598039E+03  0.10688744521E+03 -0.10664177997E+04  0.13423491765E+04  0.92060287178E+02 0.  0.
        254    2    1    2    0    0  0.80296598039E+03 -0.10688744521E+03 -0.13686442456E+03  0.12110682751E+04  0.88981751201E+03 0.  0.
         23    2    4    4    0    0  0.91515207783E+02  0.97056943138E+02  0.30477591519E+03  0.34475246292E+03  0.90392581215E+02 0.  0.
         23    2    4    4    0    0  0.71145077261E+03 -0.20394438835E+03 -0.44164033975E+03  0.86631581220E+03  0.87757514726E+02 0.  0.
         13    1    3    3    0    0 -0.33436339520E+03  0.37160261251E+02 -0.37020682339E+03  0.50023280295E+03  0.00000000000E+00 0. -1.
        -13    1    3    3    0    0 -0.46860258519E+03  0.69727183960E+02 -0.69621097633E+03  0.84211637354E+03  0.00000000000E+00 0.  1.
          2    1    5    5  502    0  0.15009202693E+02  0.79130174162E+02  0.18142795906E+03  0.19850180089E+03  0.00000000000E+00 0. -1.
          4    1    6    6  503    0  0.38876796653E+03 -0.15187277470E+03 -0.22475787851E+03  0.47404849482E+03  0.00000000000E+00 0. -1.
         -2    1    5    5    0  502  0.76506005090E+02  0.17926768975E+02  0.12334795613E+03  0.14625066202E+03  0.00000000000E+00 0.  1.
         -4    1    6    6    0  503  0.32268280608E+03 -0.52071613650E+02 -0.21688246125E+03  0.39226731738E+03  0.00000000000E+00 0.  1.
<mgrwt>
<rscale>  0 0.22521218E+04</rscale>
<asrwt>0</asrwt>
<pdfrwt beam="1">  1        1 0.10385656E+00 0.22521218E+04</pdfrwt>
<pdfrwt beam="2">  1       -1 0.28897689E+00 0.22521218E+04</pdfrwt>
<totfact> 0.10171687E+00</totfact>
</mgrwt>
</event>
<event>
12    1  0.4403484E-008  0.2249515E+04  0.7818608E-02  0.8498097E-01
         -2   -1    0    0    0  501 -0.00000000000E+00  0.00000000000E+00  0.10422350167E+04  0.10422350167E+04  0.00000000000E+00 0.  1.
          2   -1    0    0  501    0  0.00000000000E+00 -0.00000000000E+00 -0.12138142752E+04  0.12138142752E+04  0.00000000000E+00 0. -1.
         23    2    1    2    0    0 -0.53877950364E+03 -0.70507831654E+03  0.25402296302E+03  0.92772561753E+03  0.93425744251E+02 0.  0.
        254    2    1    2    0    0  0.53877950364E+03  0.70507831654E+03 -0.42560222159E+03  0.13283236744E+04  0.89212540982E+03 0.  0.
         23    2    4    4    0    0  0.28142494930E+03  0.39545283555E+03  0.23557490228E+03  0.54763941089E+03  0.93970434367E+02 0.  0.
         23    2    4    4    0    0  0.25735455433E+03  0.30962548099E+03 -0.66117712387E+03  0.78068426347E+03  0.10106149112E+03 0.  0.
         11    1    3    3    0    0 -0.41361932313E+03 -0.55112619123E+03  0.23656620479E+03  0.72854964990E+03  0.00000000000E+00 0.  1.
        -11    1    3    3    0    0 -0.12516018051E+03 -0.15395212531E+03  0.17456758224E+02  0.19917596763E+03  0.00000000000E+00 0. -1.
          4    1    5    5  502    0  0.64783344345E+02  0.34476782463E+02  0.35059090888E+02  0.81330622077E+02  0.00000000000E+00 0. -1.
          1    1    6    6  503    0  0.13450819205E+03  0.23097980726E+03 -0.39068893910E+03  0.47337297369E+03  0.00000000000E+00 0. -1.
         -4    1    5    5    0  502  0.21664160496E+03  0.36097605309E+03  0.20051581140E+03  0.46630878881E+03  0.00000000000E+00 0.  1.
         -1    1    6    6    0  503  0.12284636228E+03  0.78645673727E+02 -0.27048818478E+03  0.30731128978E+03  0.00000000000E+00 0.  1.
<mgrwt>
<rscale>  0 0.22495153E+04</rscale>
<asrwt>0</asrwt>
<pdfrwt beam="1">  1        2 0.18674066E+00 0.22495153E+04</pdfrwt>
<pdfrwt beam="2">  1       -2 0.16034385E+00 0.22495153E+04</pdfrwt>
<totfact> 0.42369581E+00</totfact>
</mgrwt>
</event>
<event>
12    1  0.4403484E-008  0.1939541E+04  0.7818608E-02  0.8635421E-01
          1   -1    0    0  501    0  0.00000000000E+00  0.00000000000E+00  0.10013998173E+04  0.10013998173E+04  0.00000000000E+00 0. -1.
         -1   -1    0    0    0  501 -0.00000000000E+00 -0.00000000000E+00 -0.93913995641E+03  0.93913995641E+03  0.00000000000E+00 0.  1.
         23    2    1    2    0    0 -0.58096418090E+03  0.51698020538E+03 -0.22669876060E+03  0.81513259297E+03  0.90889514390E+02 0.  0.
        254    2    1    2    0    0  0.58096418090E+03 -0.51698020538E+03  0.28895862144E+03  0.11254071807E+04  0.76043167031E+03 0.  0.
         23    2    4    4    0    0  0.26108355026E+03 -0.41807258437E+03 -0.18762188037E+03  0.53576588383E+03  0.94306978911E+02 0.  0.
         23    2    4    4    0    0  0.31988063064E+03 -0.98907621010E+02  0.47658050181E+03  0.58964129686E+03  0.91877902109E+02 0.  0.
         11    1    3    3    0    0 -0.54778950053E+03  0.48416488652E+03 -0.23459926841E+03  0.76780582895E+03  0.00000000000E+00 0.  1.
        -11    1    3    3    0    0 -0.33174680375E+02  0.32815318853E+02  0.79005078063E+01  0.47326764024E+02  0.00000000000E+00 0. -1.
          2    1    5    5  502    0 -0.78656382663E+01 -0.10194812414E+02 -0.83483116210E+01  0.15345904093E+02  0.00000000000E+00 0. -1.
          3    1    6    6  503    0  0.37096254770E+02 -0.42542217367E+02  0.54435412348E+02  0.78416748810E+02  0.00000000000E+00 0. -1.
         -2    1    5    5    0  502  0.26894918853E+03 -0.40787777195E+03 -0.17927356875E+03  0.52041997974E+03  0.00000000000E+00 0.  1.
         -3    1    6    6    0  503  0.28278437587E+03 -0.56365403643E+02  0.42214508946E+03  0.51122454805E+03  0.00000000000E+00 0.  1.
<mgrwt>
<rscale>  0 0.19395408E+04</rscale>
<asrwt>0</asrwt>
<pdfrwt beam="1">  1        1 0.15406151E+00 0.19395408E+04</pdfrwt>
<pdfrwt beam="2">  1       -1 0.14448307E+00 0.19395408E+04</pdfrwt>
<totfact> 0.54290773E+00</totfact>
</mgrwt>
</event>
<event>
12    1  0.4403484E-008  0.1992244E+04  0.7818608E-02  0.8610255E-01
         -2   -1    0    0    0  501 -0.00000000000E+00  0.00000000000E+00  0.69728188595E+03  0.69728188595E+03  0.00000000000E+00 0.  1.
          2   -1    0    0  501    0  0.00000000000E+00 -0.00000000000E+00 -0.14230391258E+04  0.14230391258E+04  0.00000000000E+00 0. -1.
         23    2    1    2    0    0  0.12214208612E+03 -0.38913784936E+03  0.43112126610E+03  0.60014407373E+03  0.89221119389E+02 0.  0.
        254    2    1    2    0    0 -0.12214208612E+03  0.38913784936E+03 -0.11568785059E+04  0.15201769380E+04  0.89789926511E+03 0.  0.
         23    2    4    4    0    0 -0.39097215265E+03  0.53039836016E+03 -0.71572038431E+03  0.97712692499E+03  0.91322036865E+02 0.  0.
         23    2    4    4    0    0  0.26883006653E+03 -0.14126051080E+03 -0.44115812161E+03  0.54305001298E+03  0.89770216403E+02 0.  0.
         13    1    3    3    0    0  0.88157121742E+02 -0.18556806132E+03  0.26436767509E+03  0.33480957443E+03  0.00000000000E+00 0.  1.
        -13    1    3    3    0    0  0.33984964379E+02 -0.20356978804E+03  0.16675359101E+03  0.26533449930E+03  0.00000000000E+00 0. -1.
          1    1    5    5  502    0 -0.42610822143E+02  0.72722717262E+02 -0.52762621953E+02  0.99439278180E+02  0.00000000000E+00 0. -1.
          1    1    6    6  503    0 -0.42018597184E+01 -0.15501599860E+02 -0.23399287193E+02  0.28381012393E+02  0.00000000000E+00 0. -1.
         -1    1    5    5    0  502 -0.34836133051E+03  0.45767564290E+03 -0.66295776236E+03  0.87768764681E+03  0.00000000000E+00 0.  1.
         -1    1    6    6    0  503  0.27303192625E+03 -0.12575891094E+03 -0.41775883442E+03  0.51466900059E+03  0.00000000000E+00 0.  1.
<mgrwt>
<rscale>  0 0.19922444E+04</rscale>
<asrwt>0</asrwt>
<pdfrwt beam="1">  1        2 0.21892910E+00 0.19922444E+04</pdfrwt>
<pdfrwt beam="2">  1       -2 0.10727414E+00 0.19922444E+04</pdfrwt>
<totfact> 0.91121881E+00</totfact>
</mgrwt>
</event>
<event>
12    1  0.4403484E-008  0.1559985E+04  0.7818608E-02  0.8845515E-01
          1   -1    0    0  501    0  0.00000000000E+00  0.00000000000E+00  0.56121730855E+03  0.56121730855E+03  0.00000000000E+00 0. -1.
         -1   -1    0    0    0  501 -0.00000000000E+00 -0.00000000000E+00 -0.10840511252E+04  0.10840511252E+04  0.00000000000E+00 0.  1.
         23    2    1    2    0    0 -0.24815714574E+03  0.21745687564E+03  0.24762538393E+03  0.42219931088E+03  0.89802369651E+02 0.  0.
        254    2    1    2    0    0  0.24815714574E+03 -0.21745687564E+03 -0.77045920054E+03  0.12230691228E+04  0.89074195915E+03 0.  0.
         23    2    4    4    0    0  0.36983876802E+03 -0.48709463574E+03 -0.38359997292E+03  0.72790030635E+03  0.92994721723E+02 0.  0.
         23    2    4    4    0    0 -0.12168162227E+03  0.26963776010E+03 -0.38685922762E+03  0.49516881649E+03  0.89560906391E+02 0.  0.
         13    1    3    3    0    0 -0.19843279180E+03  0.19420516920E+03  0.16493241711E+03  0.32294569640E+03  0.00000000000E+00 0. -1.
        -13    1    3    3    0    0 -0.49724353941E+02  0.23251706440E+02  0.82692966814E+02  0.99253614482E+02  0.00000000000E+00 0.  1.
          2    1    5    5  502    0  0.36072780192E+03 -0.43359170748E+03 -0.35638993337E+03  0.66718820469E+03  0.00000000000E+00 0. -1.
          3    1    6    6  503    0 -0.44426214427E+02  0.27333899515E+02 -0.43740431111E+02  0.68073900320E+02  0.00000000000E+00 0. -1.
         -2    1    5    5    0  502  0.91109660955E+01 -0.53502928260E+02 -0.27210039556E+02  0.60712101662E+02  0.00000000000E+00 0.  1.
         -3    1    6    6    0  503 -0.77255407846E+02  0.24230386058E+03 -0.34311879651E+03  0.42709491616E+03  0.00000000000E+00 0.  1.
<mgrwt>
<rscale>  0 0.15599849E+04</rscale>
<asrwt>0</asrwt>
<pdfrwt beam="1">  1        1 0.86341125E-01 0.15599849E+04</pdfrwt>
<pdfrwt beam="2">  1       -1 0.16677710E+00 0.15599849E+04</pdfrwt>
<totfact> 0.94322318E+00</totfact>
</mgrwt>
</event>
<event>
12    1  0.4403484E-008  0.1285081E+04  0.7818608E-02  0.9041480E-01
         -2   -1    0    0    0  501 -0.00000000000E+00  0.00000000000E+00  0.24274256677E+03  0.24274256677E+03  0.00000000000E+00 0.  1.
          2   -1    0    0  501    0  0.00000000000E+00 -0.00000000000E+00 -0.17008069375E+04  0.17008069375E+04  0.00000000000E+00 0. -1.
         23    2    1    2    0    0  0.17989490181E+03 -0.23119173502E+03 -0.16896612139E+03  0.35009422827E+03  0.90579382043E+02 0.  0.
        254    2    1    2    0    0 -0.17989490181E+03  0.23119173502E+03 -0.12890982493E+04  0.15934552760E+04  0.88967051548E+03 0.  0.
         23    2    4    4    0    0 -0.50712251909E+02 -0.14433362155E+03 -0.11485708785E+04  0.11622296676E+04  0.90326133978E+02 0.  0.
         23    2    4    4    0    0 -0.12918264990E+03  0.37552535657E+03 -0.14052737087E+03  0.43122560844E+03  0.92196165582E+02 0.  0.
         13    1    3    3    0    0  0.64539780310E+02 -0.55651731376E+02 -0.94461122251E+02  0.12722186158E+03  0.00000000000E+00 0. -1.
        -13    1    3    3    0    0  0.11535512150E+03 -0.17554000365E+03 -0.74504999137E+02  0.22287236669E+03  0.00000000000E+00 0.  1.
          1    1    5    5  502    0 -0.53521899409E+02 -0.33464907230E+02 -0.31039487946E+03  0.31674828323E+03  0.00000000000E+00 0. -1.
          3    1    6    6  503    0 -0.28867898912E+02  0.65629360952E+02 -0.65179699078E+02  0.96896655146E+02  0.00000000000E+00 0. -1.
         -1    1    5    5    0  502  0.28096475004E+01 -0.11086871432E+03 -0.83817599900E+03  0.84548138433E+03  0.00000000000E+00 0.  1.
         -3    1    6    6    0  503 -0.10031475099E+03  0.30989599562E+03 -0.75347671794E+02  0.33432895330E+03  0.00000000000E+00 0.  1.
<mgrwt>
<rscale>  0 0.12850809E+04</rscale>
<asrwt>0</asrwt>
<pdfrwt beam="1">  1        2 0.26166261E+00 0.12850809E+04</pdfrwt>
<pdfrwt beam="2">  1       -2 0.37345009E-01 0.12850809E+04</pdfrwt>
<totfact> 0.64980213E+01</totfact>
</mgrwt>
</event>
<event>
12    1  0.4403484E-008  0.3534055E+04  0.7818608E-02  0.8105766E-01
          2   -1    0    0  501    0  0.00000000000E+00  0.00000000000E+00  0.48698400882E+04  0.48698400882E+04  0.00000000000E+00 0. -1.
         -2   -1    0    0    0  501 -0.00000000000E+00 -0.00000000000E+00 -0.64116805074E+03  0.64116805074E+03  0.00000000000E+00 0.  1.
         23    2    1    2    0    0  0.67299124875E+03 -0.10527616287E+04  0.35723352359E+04  0.37857333932E+04  0.94731298792E+02 0.  0.
        254    2    1    2    0    0 -0.67299124875E+03  0.10527616287E+04  0.65633680162E+03  0.17252747458E+04  0.99225535208E+03 0.  0.
         23    2    4    4    0    0 -0.79617060798E+02  0.37979187186E+03  0.71795225101E+03  0.82126846730E+03  0.91900589528E+02 0.  0.
         23    2    4    4    0    0 -0.59337418796E+03  0.67296975679E+03 -0.61615449388E+02  0.90400627852E+03  0.91922073009E+02 0.  0.
         13    1    3    3    0    0  0.17788058248E+02 -0.21928764428E+02  0.47390976517E+02  0.55165119240E+02  0.00000000000E+00 0.  1.
        -13    1    3    3    0    0  0.65520319051E+03 -0.10308328642E+04  0.35249442594E+04  0.37305682739E+04  0.00000000000E+00 0. -1.
          3    1    6    6  502    0 -0.52829709050E+03  0.57137554745E+03 -0.27679627559E+02  0.77867451085E+03  0.00000000000E+00 0. -1.
          3    1    5    5  503    0 -0.30381211097E+02  0.31688743798E+03  0.55591522653E+03  0.64061096262E+03  0.00000000000E+00 0. -1.
         -3    1    5    5    0  503 -0.49235849700E+02  0.62904433886E+02  0.16203702448E+03  0.18065750469E+03  0.00000000000E+00 0.  1.
         -3    1    6    6    0  502 -0.65077097454E+02  0.10159420934E+03 -0.33935821829E+02  0.12533176767E+03  0.00000000000E+00 0.  1.
<mgrwt>
<rscale>  0 0.35340548E+04</rscale>
<asrwt>0</asrwt>
<pdfrwt beam="1">  1        2 0.74920614E+00 0.35340548E+04</pdfrwt>
<pdfrwt beam="2">  1       -2 0.98641242E-01 0.35340548E+04</pdfrwt>
<totfact> 0.34335526E-02</totfact>
</mgrwt>
</event>
<event>
12    1  0.4403484E-008  0.1928141E+04  0.7818608E-02  0.8640974E-01
         -1   -1    0    0    0  501 -0.00000000000E+00  0.00000000000E+00  0.55219353886E+03  0.55219353886E+03  0.00000000000E+00 0.  1.
          1   -1    0    0  501    0  0.00000000000E+00 -0.00000000000E+00 -0.16831629467E+04  0.16831629467E+04  0.00000000000E+00 0. -1.
         23    2    1    2    0    0 -0.29725273009E+03  0.23338796683E+03 -0.11878378981E+04  0.12495933687E+04  0.87724491864E+02 0.  0.
        254    2    1    2    0    0  0.29725273009E+03 -0.23338796683E+03  0.56868490202E+02  0.98576311686E+03  0.90866152596E+03 0.  0.
         23    2    4    4    0    0  0.50969582648E+03 -0.23757325878E+03  0.30553078408E+03  0.64637575601E+03  0.90673420109E+02 0.  0.
         23    2    4    4    0    0 -0.21244309639E+03  0.41852919502E+01 -0.24866229388E+03  0.33938736084E+03  0.90560799630E+02 0.  0.
         13    1    3    3    0    0 -0.23670911132E+03  0.22548663921E+03 -0.10006875687E+04  0.10527350274E+04  0.00000000000E+00 0. -1.
        -13    1    3    3    0    0 -0.60543618778E+02  0.79013276149E+01 -0.18715032940E+03  0.19685834132E+03  0.00000000000E+00 0.  1.
          1    1    5    5  502    0  0.23811238705E+03 -0.99437098869E+02  0.19028290827E+03  0.32061321039E+03  0.00000000000E+00 0. -1.
          3    1    6    6  503    0 -0.11510217252E+03  0.90103901841E+01 -0.19884533720E+03  0.22993295844E+03  0.00000000000E+00 0. -1.
         -1    1    5    5    0  502  0.27158343943E+03 -0.13813615991E+03  0.11524787582E+03  0.32576254562E+03  0.00000000000E+00 0.  1.
         -3    1    6    6    0  503 -0.97340923871E+02 -0.48250982339E+01 -0.49816956682E+02  0.10945440241E+03  0.00000000000E+00 0.  1.
<mgrwt>
<rscale>  0 0.19281408E+04</rscale>
<asrwt>0</asrwt>
<pdfrwt beam="1">  1        1 0.25894814E+00 0.19281408E+04</pdfrwt>
<pdfrwt beam="2">  1       -1 0.84952853E-01 0.19281408E+04</pdfrwt>
<totfact> 0.62607569E+00</totfact>
</mgrwt>
</event>
<event>
12    1  0.4403484E-008  0.2264614E+04  0.7818608E-02  0.8492005E-01
         -1   -1    0    0    0  501 -0.00000000000E+00  0.00000000000E+00  0.19576150603E+04  0.19576150603E+04  0.00000000000E+00 0.  1.
          1   -1    0    0  501    0  0.00000000000E+00 -0.00000000000E+00 -0.65493960985E+03  0.65493960985E+03  0.00000000000E+00 0. -1.
         23    2    1    2    0    0  0.37191908224E+03  0.42524279650E+03  0.14254212827E+04  0.15360494273E+04  0.92015054825E+02 0.  0.
        254    2    1    2    0    0 -0.37191908224E+03 -0.42524279650E+03 -0.12274583223E+03  0.10765052428E+04  0.90809787954E+03 0.  0.
         23    2    4    4    0    0 -0.34313556973E+03 -0.12293891688E+03  0.34541334073E+03  0.51034771558E+03  0.91040750996E+02 0.  0.
         23    2    4    4    0    0 -0.28783512508E+02 -0.30230387961E+03 -0.46815917296E+03  0.56615752726E+03  0.95630582059E+02 0.  0.
         11    1    3    3    0    0  0.24626761542E+03  0.27460665445E+03  0.10420450127E+04  0.11054023528E+04  0.00000000000E+00 0.  1.
        -11    1    3    3    0    0  0.12565146682E+03  0.15063614205E+03  0.38337627001E+03  0.43064707454E+03  0.00000000000E+00 0. -1.
          2    1    5    5  502    0 -0.56997345029E+02 -0.50584298634E+02  0.10465406898E+03  0.12946019760E+03  0.00000000000E+00 0. -1.
          1    1    6    6  503    0 -0.45474580380E+02 -0.62253417973E+02 -0.98583019698E+02  0.12514806144E+03  0.00000000000E+00 0. -1.
         -2    1    5    5    0  502 -0.28613822470E+03 -0.72354618251E+02  0.24075927175E+03  0.38088751798E+03  0.00000000000E+00 0.  1.
         -1    1    6    6    0  503  0.16691067872E+02 -0.24005046164E+03 -0.36957615326E+03  0.44100946582E+03  0.00000000000E+00 0.  1.
<mgrwt>
<rscale>  0 0.22646144E+04</rscale>
<asrwt>0</asrwt>
<pdfrwt beam="1">  1        1 0.10075994E+00 0.22646144E+04</pdfrwt>
<pdfrwt beam="2">  1       -1 0.30117154E+00 0.22646144E+04</pdfrwt>
<totfact> 0.88635170E-01</totfact>
</mgrwt>
</event>
<event>
12    1  0.4403484E-008  0.1838386E+04  0.7818608E-02  0.8686149E-01
          1   -1    0    0  501    0  0.00000000000E+00  0.00000000000E+00  0.71289141899E+03  0.71289141899E+03  0.00000000000E+00 0. -1.
         -1   -1    0    0    0  501 -0.00000000000E+00 -0.00000000000E+00 -0.11851953758E+04  0.11851953758E+04  0.00000000000E+00 0.  1.
         23    2    1    2    0    0  0.35730988914E+03 -0.24929984273E+03  0.37293114286E+03  0.58097653999E+03  0.92926499157E+02 0.  0.
        254    2    1    2    0    0 -0.35730988914E+03  0.24929984273E+03 -0.84523509966E+03  0.13171102548E+04  0.91133763288E+03 0.  0.
         23    2    4    4    0    0 -0.36732065057E+02 -0.22004791148E+03  0.55748488853E+02  0.24758973211E+03  0.91773925960E+02 0.  0.
         23    2    4    4    0    0 -0.32057782408E+03  0.46934775421E+03 -0.90098358851E+03  0.10695205227E+04  0.95106603165E+02 0.  0.
         11    1    3    3    0    0  0.81883766059E+01  0.42117675974E+01 -0.19458087441E+01  0.94114116584E+01  0.00000000000E+00 0.  1.
        -11    1    3    3    0    0  0.34912151253E+03 -0.25351161033E+03  0.37487695160E+03  0.57156512833E+03  0.00000000000E+00 0. -1.
          4    1    5    5  502    0 -0.96552538055E+01 -0.19418277772E+03  0.19373829360E+02  0.19538556843E+03  0.00000000000E+00 0. -1.
          3    1    6    6  503    0 -0.31138672385E+03  0.45495092730E+03 -0.89546597864E+03  0.10515708996E+04  0.00000000000E+00 0. -1.
         -4    1    5    5    0  502 -0.27076811251E+02 -0.25865133770E+02  0.36374659492E+02  0.52204163681E+02  0.00000000000E+00 0.  1.
         -3    1    6    6    0  503 -0.91911002284E+01  0.14396826914E+02 -0.55176098703E+01  0.17949623040E+02  0.00000000000E+00 0.  1.
<mgrwt>
<rscale>  0 0.18383858E+04</rscale>
<asrwt>0</asrwt>
<pdfrwt beam="1">  1        1 0.10967561E+00 0.18383858E+04</pdfrwt>
<pdfrwt beam="2">  1       -1 0.18233775E+00 0.18383858E+04</pdfrwt>
<totfact> 0.49890305E+00</totfact>
</mgrwt>
</event>
<event>
12    1  0.4403484E-008  0.1779300E+04  0.7818608E-02  0.8717385E-01
          1   -1    0    0  501    0  0.00000000000E+00  0.00000000000E+00  0.10884625438E+04  0.10884625438E+04  0.00000000000E+00 0. -1.
         -1   -1    0    0    0  501 -0.00000000000E+00 -0.00000000000E+00 -0.72715176734E+03  0.72715176734E+03  0.00000000000E+00 0.  1.
         23    2    1    2    0    0  0.43287606231E+03 -0.19376573853E+03  0.55492770594E+03  0.73552804585E+03  0.90165961711E+02 0.  0.
        254    2    1    2    0    0 -0.43287606231E+03  0.19376573853E+03 -0.19361692945E+03  0.10800862653E+04  0.95087958146E+03 0.  0.
         23    2    4    4    0    0  0.15655496770E+03  0.90380282582E+02 -0.39330040491E+03  0.44292011998E+03  0.93888075837E+02 0.  0.
         23    2    4    4    0    0 -0.58943103001E+03  0.10338545595E+03  0.19968347546E+03  0.63716614536E+03  0.89385204438E+02 0.  0.
         11    1    3    3    0    0  0.23077586490E+03 -0.13465213924E+03  0.25721397416E+03  0.37087427374E+03  0.00000000000E+00 0. -1.
        -11    1    3    3    0    0  0.20210019741E+03 -0.59113599289E+02  0.29771373179E+03  0.36465377210E+03  0.00000000000E+00 0.  1.
          2    1    5    5  502    0  0.34966865322E+02  0.72226474612E+02 -0.17095927167E+03  0.18885554765E+03  0.00000000000E+00 0. -1.
          4    1    6    6  503    0 -0.26890163004E+02  0.21634097349E+02  0.24534835902E+02  0.42344695149E+02  0.00000000000E+00 0. -1.
         -2    1    5    5    0  502  0.12158810238E+03  0.18153807971E+02 -0.22234113324E+03  0.25406457233E+03  0.00000000000E+00 0.  1.
         -4    1    6    6    0  503 -0.56254086701E+03  0.81751358596E+02  0.17514863956E+03  0.59482145021E+03  0.00000000000E+00 0.  1.
<mgrwt>
<rscale>  0 0.17793004E+04</rscale>
<asrwt>0</asrwt>
<pdfrwt beam="1">  1        1 0.16745578E+00 0.17793004E+04</pdfrwt>
<pdfrwt beam="2">  1       -1 0.11186950E+00 0.17793004E+04</pdfrwt>
<totfact> 0.89674068E+00</totfact>
</mgrwt>
</event>
<event>
12    1  0.4403484E-008  0.2249904E+04  0.7818608E-02  0.8497939E-01
         -2   -1    0    0    0  501 -0.00000000000E+00  0.00000000000E+00  0.61515405200E+03  0.61515405200E+03  0.00000000000E+00 0.  1.
          2   -1    0    0  501    0  0.00000000000E+00 -0.00000000000E+00 -0.20572365021E+04  0.20572365021E+04  0.00000000000E+00 0. -1.
         23    2    1    2    0    0  0.89498098036E+00 -0.88011071365E+03 -0.99801329068E+03  0.13344167489E+04  0.10020909215E+03 0.  0.
        254    2    1    2    0    0 -0.89498098036E+00  0.88011071365E+03 -0.44406915941E+03  0.13379738052E+04  0.90464402707E+03 0.  0.
         23    2    4    4    0    0 -0.39222316306E+03  0.61692784813E+03 -0.43877800338E+03  0.85753140474E+03  0.91624202177E+02 0.  0.
         23    2    4    4    0    0  0.39132818208E+03  0.26318286552E+03 -0.52911560289E+01  0.48044240044E+03  0.91618431615E+02 0.  0.
         13    1    3    3    0    0  0.22477080119E+01  0.15804261405E+01 -0.92043962720E+01  0.96057716413E+01  0.00000000000E+00 0. -1.
        -13    1    3    3    0    0 -0.13527270315E+01 -0.88169113979E+03 -0.98880889441E+03  0.13248109773E+04  0.00000000000E+00 0.  1.
          1    1    5    5  502    0 -0.23241999686E+03  0.32984606670E+03 -0.28968622097E+03  0.49672486275E+03  0.00000000000E+00 0. -1.
          3    1    6    6  503    0  0.39060047398E+03  0.26898670275E+03 -0.71212990505E+01  0.47431349278E+03  0.00000000000E+00 0. -1.
         -1    1    5    5    0  502 -0.15980316620E+03  0.28708178143E+03 -0.14909178241E+03  0.36080654198E+03  0.00000000000E+00 0.  1.
         -3    1    6    6    0  503  0.72770809326E+00 -0.58038372242E+01  0.18301430216E+01  0.61289076575E+01  0.00000000000E+00 0.  1.
<mgrwt>
<rscale>  0 0.22499043E+04</rscale>
<asrwt>0</asrwt>
<pdfrwt beam="1">  1        2 0.31649793E+00 0.22499043E+04</pdfrwt>
<pdfrwt beam="2">  1       -2 0.94639084E-01 0.22499043E+04</pdfrwt>
<totfact> 0.53136817E+00</totfact>
</mgrwt>
</event>
<event>
12    1  0.4403484E-008  0.1492010E+04  0.7818608E-02  0.8889783E-01
         -1   -1    0    0    0  501 -0.00000000000E+00  0.00000000000E+00  0.61672471039E+03  0.61672471039E+03  0.00000000000E+00 0.  1.
          1   -1    0    0  501    0  0.00000000000E+00 -0.00000000000E+00 -0.90238604416E+03  0.90238604416E+03  0.00000000000E+00 0. -1.
         23    2    1    2    0    0  0.45526776224E+03 -0.71672286545E+02 -0.94396484846E+02  0.47923715195E+03  0.91388727229E+02 0.  0.
        254    2    1    2    0    0 -0.45526776224E+03  0.71672286545E+02 -0.19126484892E+03  0.10398736026E+04  0.91233174611E+03 0.  0.
         23    2    4    4    0    0 -0.44275762927E+03 -0.35555467869E+03 -0.36159366315E+02  0.57648242259E+03  0.92579889672E+02 0.  0.
         23    2    4    4    0    0 -0.12510132969E+02  0.42722696524E+03 -0.15510548261E+03  0.46339118001E+03  0.89410803165E+02 0.  0.
         13    1    3    3    0    0  0.81983418619E+02  0.13088386532E+02  0.68008511846E+01  0.83299690079E+02  0.00000000000E+00 0.  1.
        -13    1    3    3    0    0  0.37328434362E+03 -0.84760673077E+02 -0.10119733603E+03  0.39593746187E+03  0.00000000000E+00 0. -1.
          4    1    5    5  502    0 -0.97092250809E+02 -0.81807460690E+02  0.30407981468E+02  0.13055271398E+03  0.00000000000E+00 0.  1.
          3    1    6    6  503    0  0.25772355973E+02  0.28563791750E+03 -0.75778562960E+02  0.29664056508E+03  0.00000000000E+00 0. -1.
         -4    1    5    5    0  502 -0.34566537846E+03 -0.27374721800E+03 -0.66567347783E+02  0.44592970861E+03  0.00000000000E+00 0. -1.
         -3    1    6    6    0  503 -0.38282488942E+02  0.14158904774E+03 -0.79326919649E+02  0.16675061493E+03  0.00000000000E+00 0.  1.
<mgrwt>
<rscale>  0 0.14920104E+04</rscale>
<asrwt>0</asrwt>
<pdfrwt beam="1">  1        1 0.13882862E+00 0.14920104E+04</pdfrwt>
<pdfrwt beam="2">  1       -1 0.94880725E-01 0.14920104E+04</pdfrwt>
<totfact> 0.18834499E+01</totfact>
</mgrwt>
</event>
<event>
12    1  0.6703141E-008  0.2216098E+04  0.7818608E-02  0.8511757E-01
          1   -1    0    0  501    0  0.00000000000E+00  0.00000000000E+00  0.14606160627E+04  0.14606160627E+04  0.00000000000E+00 0. -1.
         -1   -1    0    0    0  501 -0.00000000000E+00 -0.00000000000E+00 -0.84058574180E+03  0.84058574180E+03  0.00000000000E+00 0.  1.
         23    2    1    2    0    0 -0.95200117968E+01 -0.71236455180E+03  0.92088345917E+03  0.11678572675E+04  0.91161211751E+02 0.  0.
        254    2    1    2    0    0  0.95200117968E+01  0.71236455180E+03 -0.30085313829E+03  0.11333445370E+04  0.82849462488E+03 0.  0.
         23    2    4    4    0    0 -0.36117885524E+02  0.48180189878E+03  0.23335586389E+03  0.54414648866E+03  0.90569700142E+02 0.  0.
         23    2    4    4    0    0  0.45637897321E+02  0.23056265302E+03 -0.53420900218E+03  0.58919804835E+03  0.80827764570E+02 0.  0.
         11    1    3    3    0    0 -0.24753831786E+02 -0.29622946476E+03  0.31974887380E+03  0.43658216899E+03  0.00000000000E+00 0.  1.
        -11    1    3    3    0    0  0.15233819989E+02 -0.41613508704E+03  0.60113458537E+03  0.73127509848E+03  0.00000000000E+00 0. -1.
          3    1    5    5  502    0 -0.39102263280E+02  0.45761783431E+03  0.24091187114E+03  0.51863435957E+03  0.00000000000E+00 0. -1.
          3    1    6    6  503    0  0.40791971189E+02  0.21332925390E+03 -0.52681201210E+03  0.56982826499E+03  0.00000000000E+00 0. -1.
         -3    1    5    5    0  502  0.29843777557E+01  0.24184064475E+02 -0.75560072509E+01  0.25512129089E+02  0.00000000000E+00 0.  1.
         -3    1    6    6    0  503  0.48459261322E+01  0.17233399115E+02 -0.73969900799E+01  0.19369783359E+02  0.00000000000E+00 0.  1.
<mgrwt>
<rscale>  0 0.22160984E+04</rscale>
<asrwt>0</asrwt>
<pdfrwt beam="1">  1        1 0.22471016E+00 0.22160984E+04</pdfrwt>
<pdfrwt beam="2">  1       -1 0.12932088E+00 0.22160984E+04</pdfrwt>
<totfact> 0.32600583E+00</totfact>
</mgrwt>
</event>
<event>
12    1  0.4403484E-008  0.1812891E+04  0.7818608E-02  0.8699474E-01
         -2   -1    0    0    0  501 -0.00000000000E+00  0.00000000000E+00  0.37866837692E+03  0.37866837692E+03  0.00000000000E+00 0.  1.
          2   -1    0    0  501    0  0.00000000000E+00 -0.00000000000E+00 -0.21698231662E+04  0.21698231662E+04  0.00000000000E+00 0. -1.
         23    2    1    2    0    0  0.21269047719E+03 -0.64610171601E+03 -0.61025332128E+03  0.91802454124E+03  0.87608650620E+02 0.  0.
        254    2    1    2    0    0 -0.21269047719E+03  0.64610171601E+03 -0.11809014680E+04  0.16304670019E+04  0.89510317873E+03 0.  0.
         23    2    4    4    0    0 -0.27441009249E+03  0.43453093174E+03 -0.11035726924E+03  0.53317331339E+03  0.89314196708E+02 0.  0.
         23    2    4    4    0    0  0.61719615299E+02  0.21157078427E+03 -0.10705441988E+04  0.10972936885E+04  0.97041484111E+02 0.  0.
         11    1    3    3    0    0  0.18818088750E+03 -0.59550221793E+03 -0.52488807841E+03  0.81580784063E+03  0.00000000000E+00 0.  1.
        -11    1    3    3    0    0  0.24509589692E+02 -0.50599498085E+02 -0.85365242870E+02  0.10221670061E+03  0.00000000000E+00 0. -1.
          2    1    6    6  502    0 -0.23146108482E+02  0.80034686187E+02 -0.41969341440E+03  0.42788299267E+03  0.00000000000E+00 0. -1.
          2    1    5    5  503    0 -0.74732230453E+02  0.18637568769E+03 -0.67202354609E+02  0.21174739596E+03  0.00000000000E+00 0. -1.
         -2    1    5    5    0  503 -0.19967786203E+03  0.24815524405E+03 -0.43154914633E+02  0.32142591743E+03  0.00000000000E+00 0.  1.
         -2    1    6    6    0  502  0.84865723781E+02  0.13153609808E+03 -0.65085078437E+03  0.66941069583E+03  0.00000000000E+00 0.  1.
<mgrwt>
<rscale>  0 0.18128910E+04</rscale>
<asrwt>0</asrwt>
<pdfrwt beam="1">  1        2 0.33381895E+00 0.18128910E+04</pdfrwt>
<pdfrwt beam="2">  1       -2 0.58256674E-01 0.18128910E+04</pdfrwt>
<totfact> 0.13960794E+01</totfact>
</mgrwt>
</event>
<event>
12    1  0.4403484E-008  0.1247946E+04  0.7818608E-02  0.9071895E-01
          2   -1    0    0  501    0  0.00000000000E+00  0.00000000000E+00  0.25122894840E+04  0.25122894840E+04  0.00000000000E+00 0.  1.
         -2   -1    0    0    0  501 -0.00000000000E+00 -0.00000000000E+00 -0.15497509594E+03  0.15497509594E+03  0.00000000000E+00 0. -1.
         23    2    1    2    0    0  0.13405781461E+03 -0.18513933888E+03  0.94238945911E+03  0.97407035357E+03  0.92016784399E+02 0.  0.
        254    2    1    2    0    0 -0.13405781461E+03  0.18513933888E+03  0.14149249290E+04  0.16931942264E+04  0.90146883541E+03 0.  0.
         23    2    4    4    0    0 -0.91490401055E+02  0.31083959865E+03  0.14807537986E+04  0.15184792259E+04  0.90308350162E+02 0.  0.
         23    2    4    4    0    0 -0.42567413552E+02 -0.12570025978E+03 -0.65828869552E+02  0.17471500048E+03  0.92624787835E+02 0.  0.
         13    1    3    3    0    0  0.81130837432E+02 -0.95539962429E+02  0.33196681440E+03  0.35484089824E+03  0.00000000000E+00 0.  1.
        -13    1    3    3    0    0  0.52926977176E+02 -0.89599376447E+02  0.61042264471E+03  0.61922945533E+03  0.00000000000E+00 0. -1.
          2    1    5    5  502    0 -0.37798743612E+02  0.14977647303E+03  0.50610675863E+03  0.52915573135E+03  0.00000000000E+00 0. -1.
          3    1    6    6  503    0  0.33797803423E+01 -0.11420564189E+03 -0.50649135877E+02  0.12497874427E+03  0.00000000000E+00 0. -1.
         -2    1    5    5    0  502 -0.53691657443E+02  0.16106312562E+03  0.97464703993E+03  0.98932349459E+03  0.00000000000E+00 0.  1.
         -3    1    6    6    0  503 -0.45947193895E+02 -0.11494617888E+02 -0.15179733676E+02  0.49736256209E+02  0.00000000000E+00 0.  1.
<mgrwt>
<rscale>  0 0.12479460E+04</rscale>
<asrwt>0</asrwt>
<pdfrwt beam="1">  1        2 0.38650605E+00 0.12479460E+04</pdfrwt>
<pdfrwt beam="2">  1       -2 0.23842324E-01 0.12479460E+04</pdfrwt>
<totfact> 0.52951520E+01</totfact>
</mgrwt>
</event>
<event>
12    1  0.4403484E-008  0.1255553E+04  0.7818608E-02  0.9065574E-01
          2   -1    0    0  501    0  0.00000000000E+00  0.00000000000E+00  0.47625018344E+03  0.47625018344E+03  0.00000000000E+00 0. -1.
         -2   -1    0    0    0  501 -0.00000000000E+00 -0.00000000000E+00 -0.82751312026E+03  0.82751312026E+03  0.00000000000E+00 0.  1.
         23    2    1    2    0    0  0.87567146599E+02 -0.16824074329E+03  0.17115677620E+03  0.27060130650E+03  0.89204664522E+02 0.  0.
        254    2    1    2    0    0 -0.87567146599E+02  0.16824074329E+03 -0.52241971302E+03  0.10331619972E+04  0.87093536100E+03 0.  0.
         23    2    4    4    0    0 -0.15914937844E+03  0.18082578595E+03  0.18450430816E+03  0.31669412269E+03  0.90701918888E+02 0.  0.
         23    2    4    4    0    0  0.71582231843E+02 -0.12585042661E+02 -0.70692402119E+03  0.71646787451E+03  0.91116651971E+02 0.  0.
         11    1    3    3    0    0  0.39375934061E+00 -0.93084381086E+02  0.61058444672E+02  0.11132381019E+03  0.00000000000E+00 0.  1.
        -11    1    3    3    0    0  0.87173387258E+02 -0.75156362203E+02  0.11009833153E+03  0.15927749631E+03  0.00000000000E+00 0. -1.
          2    1    5    5  502    0 -0.15963528900E+03  0.18197131848E+03  0.15560294719E+03  0.28776598724E+03  0.00000000000E+00 0.  1.
          1    1    6    6  503    0 -0.20313488282E+02  0.35454113039E+01 -0.19720653920E+03  0.19828168561E+03  0.00000000000E+00 0. -1.
         -2    1    5    5    0  502  0.48591055624E+00 -0.11455325263E+01  0.28901360976E+02  0.28928135441E+02  0.00000000000E+00 0. -1.
         -1    1    6    6    0  503  0.91895720125E+02 -0.16130453965E+02 -0.50971748199E+03  0.51818618890E+03  0.00000000000E+00 0.  1.
<mgrwt>
<rscale>  0 0.12555529E+04</rscale>
<asrwt>0</asrwt>
<pdfrwt beam="1">  1        2 0.73269260E-01 0.12555529E+04</pdfrwt>
<pdfrwt beam="2">  1       -2 0.12730971E+00 0.12555529E+04</pdfrwt>
<totfact> 0.29316409E+01</totfact>
</mgrwt>
</event>
<event>
12    1  0.4403484E-008  0.2473931E+04  0.7818608E-02  0.8412332E-01
          2   -1    0    0  501    0  0.00000000000E+00  0.00000000000E+00  0.33724328255E+04  0.33724328255E+04  0.00000000000E+00 0. -1.
         -2   -1    0    0    0  501 -0.00000000000E+00 -0.00000000000E+00 -0.45370304944E+03  0.45370304944E+03  0.00000000000E+00 0.  1.
         23    2    1    2    0    0  0.52089861497E+03 -0.26224648093E+03 -0.12125231736E+03  0.60281533296E+03  0.92604629185E+02 0.  0.
        254    2    1    2    0    0 -0.52089861497E+03  0.26224648093E+03  0.30399820935E+04  0.32233205420E+04  0.89899699899E+03 0.  0.
         23    2    4    4    0    0 -0.31299685628E+02  0.43883955381E+03  0.75930266581E+03  0.88232594834E+03  0.91644511612E+02 0.  0.
         23    2    4    4    0    0 -0.48959892935E+03 -0.17659307288E+03  0.22806794276E+04  0.23409945937E+04  0.88683769137E+02 0.  0.
         13    1    3    3    0    0  0.94082388221E+02 -0.15002583089E+02 -0.17389135783E+01  0.95286919843E+02  0.00000000000E+00 0. -1.
        -13    1    3    3    0    0  0.42681622675E+03 -0.24724389784E+03 -0.11951340379E+03  0.50752841312E+03  0.00000000000E+00 0.  1.
          1    1    5    5  502    0  0.24489986586E+01  0.37053054450E+03  0.59056717860E+03  0.69718611176E+03  0.00000000000E+00 0. -1.
          3    1    6    6  503    0 -0.12127278837E+03 -0.34245130220E+02  0.40297762702E+03  0.42222125245E+03  0.00000000000E+00 0. -1.
         -1    1    5    5    0  502 -0.33748684287E+02  0.68309009309E+02  0.16873548721E+03  0.18513983658E+03  0.00000000000E+00 0.  1.
         -3    1    6    6    0  503 -0.36832614098E+03 -0.14234794266E+03  0.18777018006E+04  0.19187733412E+04  0.00000000000E+00 0.  1.
<mgrwt>
<rscale>  0 0.24739305E+04</rscale>
<asrwt>0</asrwt>
<pdfrwt beam="1">  1        2 0.51883580E+00 0.24739305E+04</pdfrwt>
<pdfrwt beam="2">  1       -2 0.69800471E-01 0.24739305E+04</pdfrwt>
<totfact> 0.16661976E+00</totfact>
</mgrwt>
</event>
<event>
12    1  0.4403484E-008  0.1518047E+04  0.7818608E-02  0.8872540E-01
          2   -1    0    0  501    0  0.00000000000E+00  0.00000000000E+00  0.28686415681E+04  0.28686415681E+04  0.00000000000E+00 0. -1.
         -2   -1    0    0    0  501 -0.00000000000E+00 -0.00000000000E+00 -0.20083263809E+03  0.20083263809E+03  0.00000000000E+00 0.  1.
         23    2    1    2    0    0  0.93557683786E+02 -0.37535343953E+03  0.27043097679E+03  0.48060657053E+03  0.90589831982E+02 0.  0.
        254    2    1    2    0    0 -0.93557683786E+02  0.37535343953E+03  0.23973779532E+04  0.25888676357E+04  0.89731340104E+03 0.  0.
         23    2    4    4    0    0  0.15718120533E+03 -0.20174405484E+03  0.12264766659E+04  0.12563120282E+04  0.93103733741E+02 0.  0.
         23    2    4    4    0    0 -0.25073888911E+03  0.57709749437E+03  0.11709012873E+04  0.13325556075E+04  0.93718268494E+02 0.  0.
         11    1    3    3    0    0  0.63352519161E+01 -0.16344568763E+03  0.77274321466E+02  0.18090314806E+03  0.00000000000E+00 0.  1.
        -11    1    3    3    0    0  0.87222431870E+02 -0.21190775190E+03  0.19315665533E+03  0.29970342246E+03  0.00000000000E+00 0. -1.
          1    1    5    5  502    0  0.14648613302E+03 -0.12561143391E+03  0.79855701095E+03  0.82154106363E+03  0.00000000000E+00 0. -1.
          3    1    6    6  503    0 -0.25033133524E+03  0.50756477761E+03  0.10610956103E+04  0.12025854128E+04  0.00000000000E+00 0. -1.
         -1    1    5    5    0  502  0.10695072309E+02 -0.76132620925E+02  0.42791965492E+03  0.43477096454E+03  0.00000000000E+00 0.  1.
         -3    1    6    6    0  503 -0.40755387389E+00  0.69532716756E+02  0.10980567708E+03  0.12997019473E+03  0.00000000000E+00 0.  1.
<mgrwt>
<rscale>  0 0.15180472E+04</rscale>
<asrwt>0</asrwt>
<pdfrwt beam="1">  1        2 0.44132944E+00 0.15180472E+04</pdfrwt>
<pdfrwt beam="2">  1       -2 0.30897331E-01 0.15180472E+04</pdfrwt>
<totfact> 0.19776491E+01</totfact>
</mgrwt>
</event>
<event>
12    1  0.4403484E-008  0.2116513E+04  0.7818608E-02  0.8554004E-01
         -2   -1    0    0    0  501 -0.00000000000E+00  0.00000000000E+00  0.59865385978E+03  0.59865385978E+03  0.00000000000E+00 0.  1.
          2   -1    0    0  501    0  0.00000000000E+00 -0.00000000000E+00 -0.18707080263E+04  0.18707080263E+04  0.00000000000E+00 0. -1.
         23    2    1    2    0    0  0.79757178016E+03 -0.28448701119E+03 -0.69062129405E+03  0.10974863086E+04  0.10229771116E+03 0.  0.
        254    2    1    2    0    0 -0.79757178016E+03  0.28448701119E+03 -0.58143287243E+03  0.13718755774E+04  0.90935406240E+03 0.  0.
         23    2    4    4    0    0 -0.92807473145E+02 -0.17942078942E+03  0.13692879720E+03  0.26053650492E+03  0.91239948204E+02 0.  0.
         23    2    4    4    0    0 -0.70476430701E+03  0.46390780061E+03 -0.71836166963E+03  0.11113390725E+04  0.84426712699E+02 0.  0.
         11    1    3    3    0    0  0.42436711784E+03 -0.15820650645E+03 -0.43412056970E+03  0.62735748854E+03  0.00000000000E+00 0. -1.
        -11    1    3    3    0    0  0.37320466231E+03 -0.12628050474E+03 -0.25650072435E+03  0.47012882005E+03  0.00000000000E+00 0.  1.
          1    1    5    5  502    0 -0.16555212456E+02 -0.21632214628E+02 -0.12742869874E+02  0.30073385273E+02  0.00000000000E+00 0. -1.
          1    1    6    6  503    0 -0.74900728117E+02  0.40968763911E+02 -0.10763331957E+03  0.13738082170E+03  0.00000000000E+00 0. -1.
         -1    1    5    5    0  502 -0.76252260689E+02 -0.15778857479E+03  0.14967166707E+03  0.23046311965E+03  0.00000000000E+00 0.  1.
         -1    1    6    6    0  503 -0.62986357889E+03  0.42293903670E+03 -0.61072835006E+03  0.97395825082E+03  0.00000000000E+00 0.  1.
<mgrwt>
<rscale>  0 0.21165128E+04</rscale>
<asrwt>0</asrwt>
<pdfrwt beam="1">  1        2 0.28780123E+00 0.21165128E+04</pdfrwt>
<pdfrwt beam="2">  1       -2 0.92100596E-01 0.21165128E+04</pdfrwt>
<totfact> 0.72678498E+00</totfact>
</mgrwt>
</event>
<event>
12    1  0.4403484E-008  0.1748785E+04  0.7818608E-02  0.8734019E-01
         -2   -1    0    0    0  501 -0.00000000000E+00  0.00000000000E+00  0.24609513955E+03  0.24609513955E+03  0.00000000000E+00 0. -1.
          2   -1    0    0  501    0  0.00000000000E+00 -0.00000000000E+00 -0.31067768256E+04  0.31067768256E+04  0.00000000000E+00 0.  1.
         23    2    1    2    0    0 -0.91017450861E+02  0.41554256186E+03 -0.19861363328E+04  0.20333744952E+04  0.94416671573E+02 0.  0.
        254    2    1    2    0    0  0.91017450861E+02 -0.41554256186E+03 -0.87454535326E+03  0.13194974700E+04  0.89178708301E+03 0.  0.
         23    2    4    4    0    0 -0.10862990876E+03  0.79597456793E+02  0.10979054321E+03  0.19586285239E+03  0.90399565043E+02 0.  0.
         23    2    4    4    0    0  0.19964735962E+03 -0.49514001865E+03 -0.98433589648E+03  0.11236346176E+04  0.92816435009E+02 0.  0.
         11    1    3    3    0    0 -0.31016026293E+02  0.31596252168E+03 -0.15359453473E+04  0.15684139820E+04  0.00000000000E+00 0.  1.
        -11    1    3    3    0    0 -0.60001424568E+02  0.99580040184E+02 -0.45019098553E+03  0.46496051316E+03  0.00000000000E+00 0. -1.
          3    1    6    6  502    0  0.19458953227E+03 -0.49873825075E+03 -0.96831488049E+03  0.11064531787E+04  0.00000000000E+00 0. -1.
          3    1    5    5  503    0 -0.98547897203E+02  0.99003040025E+02  0.88640949939E+02  0.16544034569E+03  0.00000000000E+00 0. -1.
         -3    1    5    5    0  503 -0.10082011558E+02 -0.19405583233E+02  0.21149593274E+02  0.30422506690E+02  0.00000000000E+00 0.  1.
         -3    1    6    6    0  502  0.50578273532E+01  0.35982320982E+01 -0.16021015992E+02  0.17181438973E+02  0.00000000000E+00 0.  1.
<mgrwt>
<rscale>  0 0.17487855E+04</rscale>
<asrwt>0</asrwt>
<pdfrwt beam="1">  1        2 0.47796565E+00 0.17487855E+04</pdfrwt>
<pdfrwt beam="2">  1       -2 0.37860792E-01 0.17487855E+04</pdfrwt>
<totfact> 0.93466118E+00</totfact>
</mgrwt>
</event>
<event>
12    1  0.4403484E-008  0.1214438E+04  0.7818608E-02  0.9100312E-01
         -2   -1    0    0    0  501 -0.00000000000E+00  0.00000000000E+00  0.19824675284E+03  0.19824675284E+03  0.00000000000E+00 0.  1.
          2   -1    0    0  501    0  0.00000000000E+00 -0.00000000000E+00 -0.18598797446E+04  0.18598797446E+04  0.00000000000E+00 0. -1.
         23    2    1    2    0    0 -0.13249196159E+03 -0.60522135802E+01  0.18212051586E+02  0.16232174046E+03  0.91792807057E+02 0.  0.
        254    2    1    2    0    0  0.13249196159E+03  0.60522135802E+01 -0.16798450433E+04  0.18958047570E+04  0.86868035420E+03 0.  0.
         23    2    4    4    0    0  0.10702100640E+02  0.36144441931E+03 -0.13053746539E+04  0.13575318080E+04  0.90183255385E+02 0.  0.
         23    2    4    4    0    0  0.12178986095E+03 -0.35539220573E+03 -0.37447038943E+03  0.53827294894E+03  0.91505764197E+02 0.  0.
         13    1    3    3    0    0 -0.11549793660E+03  0.23119815077E+02  0.37280252011E+02  0.12354803276E+03  0.00000000000E+00 0.  1.
        -13    1    3    3    0    0 -0.16994024985E+02 -0.29172028657E+02 -0.19068200425E+02  0.38773707697E+02  0.00000000000E+00 0. -1.
          4    1    5    5  502    0  0.44848927966E+02  0.26211549656E+03 -0.99191134494E+03  0.10269391784E+04  0.00000000000E+00 0. -1.
          1    1    6    6  503    0  0.72465187149E+02 -0.28604656568E+03 -0.24599946063E+03  0.38417388734E+03  0.00000000000E+00 0. -1.
         -4    1    5    5    0  502 -0.34146827326E+02  0.99328922747E+02 -0.31346330897E+03  0.33059262965E+03  0.00000000000E+00 0.  1.
         -1    1    6    6    0  503  0.49324673800E+02 -0.69345640045E+02 -0.12847092880E+03  0.15409906159E+03  0.00000000000E+00 0.  1.
<mgrwt>
<rscale>  0 0.12144383E+04</rscale>
<asrwt>0</asrwt>
<pdfrwt beam="1">  1        2 0.28613535E+00 0.12144383E+04</pdfrwt>
<pdfrwt beam="2">  1       -2 0.30499500E-01 0.12144383E+04</pdfrwt>
<totfact> 0.78381027E+01</totfact>
</mgrwt>
</event>
<event>
12    1  0.4403484E-008  0.1211584E+04  0.7818608E-02  0.9102777E-01
         -2   -1    0    0    0  501 -0.00000000000E+00  0.00000000000E+00  0.13338631327E+03  0.13338631327E+03  0.00000000000E+00 0.  1.
          2   -1    0    0  501    0  0.00000000000E+00 -0.00000000000E+00 -0.27512862517E+04  0.27512862517E+04  0.00000000000E+00 0. -1.
         23    2    1    2    0    0 -0.14002526647E+03  0.56335692437E+02 -0.12129844391E+04  0.12259254962E+04  0.93708522033E+02 0.  0.
        254    2    1    2    0    0  0.14002526647E+03 -0.56335692437E+02 -0.14049154992E+04  0.16587470687E+04  0.86883455994E+03 0.  0.
         23    2    4    4    0    0 -0.11244140726E+03  0.12663084020E+03 -0.13045704744E+04  0.13185947147E+04  0.90052535219E+02 0.  0.
         23    2    4    4    0    0  0.25246667373E+03 -0.18296653264E+03 -0.10034502479E+03  0.34015235403E+03  0.91751438897E+02 0.  0.
         13    1    3    3    0    0 -0.21270512305E+02  0.36683079504E+02 -0.58330711662E+03  0.58484636899E+03  0.00000000000E+00 0.  1.
        -13    1    3    3    0    0 -0.11875475416E+03  0.19652612933E+02 -0.62967732253E+03  0.64107912720E+03  0.00000000000E+00 0. -1.
          2    1    5    5  502    0 -0.69503468337E+01  0.39244951942E+02 -0.12760336586E+03  0.13368280575E+03  0.00000000000E+00 0. -1.
          1    1    6    6  503    0 -0.96605644856E+00 -0.17666080299E+02 -0.20776415700E+02  0.27288882490E+02  0.00000000000E+00 0. -1.
         -2    1    5    5    0  502 -0.10549106043E+03  0.87385888259E+02 -0.11769671086E+04  0.11849119090E+04  0.00000000000E+00 0.  1.
         -1    1    6    6    0  503  0.25343273018E+03 -0.16530045234E+03 -0.79568609092E+02  0.31286347154E+03  0.00000000000E+00 0.  1.
<mgrwt>
<rscale>  0 0.12115840E+04</rscale>
<asrwt>0</asrwt>
<pdfrwt beam="1">  1        2 0.42327478E+00 0.12115840E+04</pdfrwt>
<pdfrwt beam="2">  1       -2 0.20520973E-01 0.12115840E+04</pdfrwt>
<totfact> 0.50328355E+01</totfact>
</mgrwt>
</event>
<event>
12    1  0.4403484E-008  0.1329936E+04  0.7818608E-02  0.9006157E-01
         -1   -1    0    0    0  501 -0.00000000000E+00  0.00000000000E+00  0.37586465675E+03  0.37586465675E+03  0.00000000000E+00 0.  1.
          1   -1    0    0  501    0  0.00000000000E+00 -0.00000000000E+00 -0.11764411348E+04  0.11764411348E+04  0.00000000000E+00 0. -1.
         23    2    1    2    0    0  0.33873074599E+03 -0.34871965516E+02 -0.15153726786E+03  0.38350043645E+03  0.90302098280E+02 0.  0.
        254    2    1    2    0    0 -0.33873074599E+03  0.34871965516E+02 -0.64903921017E+03  0.11688053551E+04  0.91043917395E+03 0.  0.
         23    2    4    4    0    0 -0.24157426219E+03 -0.39121656697E+03 -0.13384123117E+03  0.48770598120E+03  0.92385726782E+02 0.  0.
         23    2    4    4    0    0 -0.97156483801E+02  0.42608853249E+03 -0.51519797900E+03  0.68109937387E+03  0.86467217267E+02 0.  0.
         13    1    3    3    0    0  0.18466487533E+03 -0.49671539240E+02 -0.47597054838E+02  0.19706308031E+03  0.00000000000E+00 0.  1.
        -13    1    3    3    0    0  0.15406587066E+03  0.14799573725E+02 -0.10394021302E+03  0.18643735614E+03  0.00000000000E+00 0. -1.
          2    1    5    5  502    0 -0.10465584807E+03 -0.15869497747E+03 -0.87927695321E+01  0.19030043407E+03  0.00000000000E+00 0. -1.
          1    1    6    6  503    0 -0.10005683214E+03  0.35785288046E+03 -0.39124753870E+03  0.53957825220E+03  0.00000000000E+00 0. -1.
         -2    1    5    5    0  502 -0.13691841412E+03 -0.23252158950E+03 -0.12504846164E+03  0.29740554713E+03  0.00000000000E+00 0.  1.
         -1    1    6    6    0  503  0.29003483419E+01  0.68235652030E+02 -0.12395044030E+03  0.14152112167E+03  0.00000000000E+00 0.  1.
<mgrwt>
<rscale>  0 0.13299363E+04</rscale>
<asrwt>0</asrwt>
<pdfrwt beam="1">  1        1 0.18099094E+00 0.13299363E+04</pdfrwt>
<pdfrwt beam="2">  1       -1 0.57825333E-01 0.13299363E+04</pdfrwt>
<totfact> 0.33022808E+01</totfact>
</mgrwt>
</event>
<event>
12    1  0.4403484E-008  0.3105591E+04  0.7818608E-02  0.8214205E-01
         -1   -1    0    0    0  501 -0.00000000000E+00  0.00000000000E+00  0.10595874144E+04  0.10595874144E+04  0.00000000000E+00 0.  1.
          1   -1    0    0  501    0  0.00000000000E+00 -0.00000000000E+00 -0.22755779432E+04  0.22755779432E+04  0.00000000000E+00 0. -1.
         23    2    1    2    0    0  0.83499408334E+03 -0.46477033715E+03  0.56911466620E+03  0.11159416952E+04  0.90596790287E+02 0.  0.
        254    2    1    2    0    0 -0.83499408334E+03  0.46477033715E+03 -0.17851051950E+04  0.22192236624E+04  0.90836475090E+03 0.  0.
         23    2    4    4    0    0 -0.54842492018E+03 -0.77722227188E+02 -0.36539812006E+03  0.67006121977E+03  0.93035554577E+02 0.  0.
         23    2    4    4    0    0 -0.28656916315E+03  0.54249256434E+03 -0.14197070750E+04  0.15491624426E+04  0.88972058137E+02 0.  0.
         11    1    3    3    0    0  0.50341559756E+03 -0.23080703781E+03  0.34214602098E+03  0.65097085360E+03  0.00000000000E+00 0. -1.
        -11    1    3    3    0    0  0.33157848578E+03 -0.23396329934E+03  0.22696864522E+03  0.46497084165E+03  0.00000000000E+00 0.  1.
          1    1    6    6  502    0 -0.49048409039E+01  0.49309983812E+02 -0.15634163945E+03  0.16400682972E+03  0.00000000000E+00 0. -1.
          1    1    5    5  503    0 -0.34836812092E+01  0.51281414498E+01  0.31936160915E+01  0.69737402616E+01  0.00000000000E+00 0. -1.
         -1    1    5    5    0  503 -0.54494123897E+03 -0.82850368638E+02 -0.36859173615E+03  0.66308747951E+03  0.00000000000E+00 0.  1.
         -1    1    6    6    0  502 -0.28166432225E+03  0.49318258053E+03 -0.12633654355E+04  0.13851556129E+04  0.00000000000E+00 0.  1.
<mgrwt>
<rscale>  0 0.31055909E+04</rscale>
<asrwt>0</asrwt>
<pdfrwt beam="1">  1        1 0.35008891E+00 0.31055909E+04</pdfrwt>
<pdfrwt beam="2">  1       -1 0.16301345E+00 0.31055909E+04</pdfrwt>
<totfact> 0.45235354E-01</totfact>
</mgrwt>
</event>
<event>
12    1  0.4403484E-008  0.1637571E+04  0.7818608E-02  0.8797794E-01
          1   -1    0    0  501    0  0.00000000000E+00  0.00000000000E+00  0.20373661330E+04  0.20373661330E+04  0.00000000000E+00 0. -1.
         -1   -1    0    0    0  501 -0.00000000000E+00 -0.00000000000E+00 -0.32905691212E+03  0.32905691212E+03  0.00000000000E+00 0.  1.
         23    2    1    2    0    0 -0.53734799709E+01 -0.45230899550E+03  0.10385344687E+03  0.47356447651E+03  0.94156642274E+02 0.  0.
        254    2    1    2    0    0  0.53734799709E+01  0.45230899550E+03  0.16044557740E+04  0.18928585686E+04  0.89667325616E+03 0.  0.
         23    2    4    4    0    0 -0.14068604185E+03 -0.17167142138E+03  0.10943187931E+03  0.26366961561E+03  0.91009289093E+02 0.  0.
         23    2    4    4    0    0  0.14605952182E+03  0.62398041688E+03  0.14950238947E+04  0.16291889530E+04  0.92061144187E+02 0.  0.
         13    1    3    3    0    0 -0.33733626408E+02 -0.22978857615E+03  0.89111730051E+02  0.24876022132E+03  0.00000000000E+00 0. -1.
        -13    1    3    3    0    0  0.28360146437E+02 -0.22252041935E+03  0.14741716815E+02  0.22480425518E+03  0.00000000000E+00 0.  1.
          2    1    5    5  502    0 -0.70603513887E+02 -0.60121004600E+02  0.51070313344E+00  0.92734309643E+02  0.00000000000E+00 0. -1.
          2    1    6    6  503    0  0.22969356993E+02  0.39072721756E+02  0.16338953691E+03  0.16955945777E+03  0.00000000000E+00 0. -1.
         -2    1    5    5    0  502 -0.70082527960E+02 -0.11155041678E+03  0.10892117617E+03  0.17093530597E+03  0.00000000000E+00 0.  1.
         -2    1    6    6    0  503  0.12309016483E+03  0.58490769513E+03  0.13316343578E+04  0.14596294952E+04  0.00000000000E+00 0.  1.
<mgrwt>
<rscale>  0 0.16375707E+04</rscale>
<asrwt>0</asrwt>
<pdfrwt beam="1">  1        1 0.31344094E+00 0.16375707E+04</pdfrwt>
<pdfrwt beam="2">  1       -1 0.50624142E-01 0.16375707E+04</pdfrwt>
<totfact> 0.10544551E+01</totfact>
</mgrwt>
</event>
<event>
12    1  0.4403484E-008  0.1824002E+04  0.7818608E-02  0.8693639E-01
          2   -1    0    0  501    0  0.00000000000E+00  0.00000000000E+00  0.24507554760E+04  0.24507554760E+04  0.00000000000E+00 0.  1.
         -2   -1    0    0    0  501 -0.00000000000E+00 -0.00000000000E+00 -0.33938334907E+03  0.33938334907E+03  0.00000000000E+00 0. -1.
         23    2    1    2    0    0 -0.34044572607E+03  0.47364208856E+03  0.24512438547E+03  0.63847317386E+03  0.85568153791E+02 0.  0.
        254    2    1    2    0    0  0.34044572607E+03 -0.47364208856E+03  0.18662477415E+04  0.21516656513E+04  0.89807812671E+03 0.  0.
         23    2    4    4    0    0  0.68680789223E+01  0.24890076610E+03  0.54094663188E+03  0.60301265605E+03  0.94880150434E+02 0.  0.
         23    2    4    4    0    0  0.33357764714E+03 -0.72254285466E+03  0.13253011096E+04  0.15486529952E+04  0.92524833904E+02 0.  0.
         11    1    3    3    0    0 -0.32686586522E+02  0.12542800978E+02  0.18155565534E+02  0.39438044509E+02  0.00000000000E+00 0.  1.
        -11    1    3    3    0    0 -0.30775913954E+03  0.46109928758E+03  0.22696881993E+03  0.59903512935E+03  0.00000000000E+00 0. -1.
          4    1    5    5  502    0  0.27680853417E+02  0.72423951134E+02  0.25332683158E+03  0.26492629530E+03  0.00000000000E+00 0. -1.
          1    1    6    6  503    0  0.60984313378E+02 -0.20412094278E+03  0.40871096231E+03  0.46090031077E+03  0.00000000000E+00 0. -1.
         -4    1    5    5    0  502 -0.20812774495E+02  0.17647681497E+03  0.28761980030E+03  0.33808636075E+03  0.00000000000E+00 0.  1.
         -1    1    6    6    0  503  0.27259333377E+03 -0.51842191187E+03  0.91659014732E+03  0.10877526844E+04  0.00000000000E+00 0.  1.
<mgrwt>
<rscale>  0 0.18240018E+04</rscale>
<asrwt>0</asrwt>
<pdfrwt beam="1">  1        2 0.37703929E+00 0.18240018E+04</pdfrwt>
<pdfrwt beam="2">  1       -2 0.52212824E-01 0.18240018E+04</pdfrwt>
<totfact> 0.12138350E+01</totfact>
</mgrwt>
</event>
<event>
12    1  0.7014067E-008  0.1921373E+04  0.7818608E-02  0.8644290E-01
         -1   -1    0    0    0  501 -0.00000000000E+00  0.00000000000E+00  0.84209393251E+03  0.84209393251E+03  0.00000000000E+00 0.  1.
          1   -1    0    0  501    0  0.00000000000E+00 -0.00000000000E+00 -0.10959807153E+04  0.10959807153E+04  0.00000000000E+00 0. -1.
         23    2    1    2    0    0  0.18251855388E+03  0.46178378503E+03 -0.66952573720E+03  0.83896262737E+03  0.95059406278E+02 0.  0.
        254    2    1    2    0    0 -0.18251855388E+03 -0.46178378503E+03  0.41563895444E+03  0.10991120204E+04  0.88810709172E+03 0.  0.
         23    2    4    4    0    0  0.19846016063E+03  0.61615294228E+01 -0.15151318197E+03  0.26586491126E+03  0.91123580525E+02 0.  0.
         23    2    4    4    0    0 -0.38097871451E+03 -0.46794531445E+03  0.56715213641E+03  0.83324710916E+03  0.92312517397E+02 0.  0.
         11    1    3    3    0    0  0.14590492083E+03  0.36503065524E+03 -0.45855425790E+03  0.60399307333E+03  0.00000000000E+00 0. -1.
        -11    1    3    3    0    0  0.36613633057E+02  0.96753129782E+02 -0.21097147929E+03  0.23496955404E+03  0.00000000000E+00 0.  1.
          1    1    5    5  502    0  0.19919068349E+03  0.22128651268E+02 -0.14888495362E+03  0.24966644751E+03  0.00000000000E+00 0. -1.
          3    1    6    6  503    0 -0.36825627112E+03 -0.46504742902E+03  0.56639980111E+03  0.82017713157E+03  0.00000000000E+00 0. -1.
         -1    1    5    5    0  502 -0.73052286430E+00 -0.15967121845E+02 -0.26282283494E+01  0.16198463752E+02  0.00000000000E+00 0.  1.
         -3    1    6    6    0  503 -0.12722443393E+02 -0.28978854322E+01  0.75233530011E+00  0.13069977593E+02  0.00000000000E+00 0.  1.
<mgrwt>
<rscale>  0 0.19213732E+04</rscale>
<asrwt>0</asrwt>
<pdfrwt beam="1">  1        1 0.16861242E+00 0.19213732E+04</pdfrwt>
<pdfrwt beam="2">  1       -1 0.12955291E+00 0.19213732E+04</pdfrwt>
<totfact> 0.61007340E+00</totfact>
</mgrwt>
</event>
<event>
12    1  0.4403484E-008  0.2762215E+04  0.7818608E-02  0.8315096E-01
          1   -1    0    0  501    0  0.00000000000E+00  0.00000000000E+00  0.13788835564E+04  0.13788835564E+04  0.00000000000E+00 0. -1.
         -1   -1    0    0    0  501 -0.00000000000E+00 -0.00000000000E+00 -0.13833353552E+04  0.13833353552E+04  0.00000000000E+00 0.  1.
         23    2    1    2    0    0  0.17662714508E+01 -0.25565826418E+03  0.12037907098E+04  0.12340455359E+04  0.91608099633E+02 0.  0.
        254    2    1    2    0    0 -0.17662714508E+01  0.25565826418E+03 -0.12082425086E+04  0.15281733757E+04  0.90005535320E+03 0.  0.
         23    2    4    4    0    0  0.18711367830E+03 -0.25753877236E+03 -0.23296411858E+03  0.40630512535E+03  0.97333583433E+02 0.  0.
         23    2    4    4    0    0 -0.18887994975E+03  0.51319703654E+03 -0.97527838998E+03  0.11218682503E+04  0.91507373239E+02 0.  0.
         13    1    3    3    0    0  0.27392400786E+02 -0.23768548376E+03  0.10954459953E+04  0.11212701109E+04  0.00000000000E+00 0. -1.
        -13    1    3    3    0    0 -0.25626129336E+02 -0.17972780415E+02  0.10834471446E+03  0.11277542503E+03  0.00000000000E+00 0.  1.
          3    1    6    6  502    0 -0.43711567673E+01  0.27074718440E+02 -0.18977665341E+02  0.33351149483E+02  0.00000000000E+00 0. -1.
          3    1    5    5  503    0 -0.11248935248E+02 -0.17346321863E+02 -0.85352101967E+01  0.22367012306E+02  0.00000000000E+00 0. -1.
         -3    1    5    5    0  503  0.19836261355E+03 -0.24019245049E+03 -0.22442890838E+03  0.38393811304E+03  0.00000000000E+00 0.  1.
         -3    1    6    6    0  502 -0.18450879299E+03  0.48612231810E+03 -0.95630072464E+03  0.10885171008E+04  0.00000000000E+00 0.  1.
<mgrwt>
<rscale>  0 0.27622153E+04</rscale>
<asrwt>0</asrwt>
<pdfrwt beam="1">  1        1 0.21213593E+00 0.27622153E+04</pdfrwt>
<pdfrwt beam="2">  1       -1 0.21282082E+00 0.27622153E+04</pdfrwt>
<totfact> 0.84949052E-01</totfact>
</mgrwt>
</event>
<event>
12    1  0.4403484E-008  0.2921359E+04  0.7818608E-02  0.8266551E-01
          2   -1    0    0  501    0  0.00000000000E+00  0.00000000000E+00  0.22288232869E+04  0.22288232869E+04  0.00000000000E+00 0. -1.
         -2   -1    0    0    0  501 -0.00000000000E+00 -0.00000000000E+00 -0.95726976846E+03  0.95726976846E+03  0.00000000000E+00 0.  1.
         23    2    1    2    0    0 -0.21953056927E+03 -0.13020406470E+04  0.57774702043E+03  0.14441074490E+04  0.90283926941E+02 0.  0.
        254    2    1    2    0    0  0.21953056927E+03  0.13020406470E+04  0.69380649804E+03  0.17419856064E+04  0.89980157741E+03 0.  0.
         23    2    4    4    0    0 -0.12094345418E+03  0.35018293663E+03 -0.16299054724E+03  0.41404000565E+03  0.87222701013E+02 0.  0.
         23    2    4    4    0    0  0.34047402344E+03  0.95185771038E+03  0.85679704528E+03  0.13279456007E+04  0.85922524260E+02 0.  0.
         11    1    3    3    0    0 -0.19282550600E+03 -0.99674755984E+03  0.41144228240E+03  0.10954323921E+04  0.00000000000E+00 0.  1.
        -11    1    3    3    0    0 -0.26705063269E+02 -0.30529308717E+03  0.16630473803E+03  0.34867505699E+03  0.00000000000E+00 0. -1.
          2    1    6    6  502    0  0.19962740958E+03  0.61762497624E+03  0.59612085909E+03  0.88128984594E+03  0.00000000000E+00 0. -1.
          2    1    5    5  503    0 -0.85546589127E+02  0.15567594173E+03 -0.11155743107E+03  0.20975766534E+03  0.00000000000E+00 0. -1.
         -2    1    5    5    0  503 -0.35396865049E+02  0.19450699490E+03 -0.51433116176E+02  0.20428234030E+03  0.00000000000E+00 0.  1.
         -2    1    6    6    0  502  0.14084661387E+03  0.33423273415E+03  0.26067618619E+03  0.44665575476E+03  0.00000000000E+00 0.  1.
<mgrwt>
<rscale>  0 0.29213594E+04</rscale>
<asrwt>0</asrwt>
<pdfrwt beam="1">  1        2 0.34289589E+00 0.29213594E+04</pdfrwt>
<pdfrwt beam="2">  1       -2 0.14727227E+00 0.29213594E+04</pdfrwt>
<totfact> 0.13478788E+00</totfact>
</mgrwt>
</event>
<event>
12    1  0.5053513E-008  0.1751211E+04  0.7818608E-02  0.8732684E-01
         -2   -1    0    0    0  501 -0.00000000000E+00  0.00000000000E+00  0.49415265045E+03  0.49415265045E+03  0.00000000000E+00 0. -1.
          2   -1    0    0  501    0  0.00000000000E+00 -0.00000000000E+00 -0.15515143553E+04  0.15515143553E+04  0.00000000000E+00 0.  1.
         23    2    1    2    0    0 -0.33549189849E+03  0.40180519085E+03 -0.79771276372E+03  0.95844328427E+03  0.90915622488E+02 0.  0.
        254    2    1    2    0    0  0.33549189849E+03 -0.40180519085E+03 -0.25964894109E+03  0.10872237214E+04  0.91686183393E+03 0.  0.
         23    2    4    4    0    0  0.50887851036E+03 -0.44584137320E+03 -0.44461282916E+03  0.81458415162E+03  0.90193701859E+02 0.  0.
         23    2    4    4    0    0 -0.17338661187E+03  0.44036182348E+02  0.18496388808E+03  0.27263956983E+03  0.90103233074E+02 0.  0.
         11    1    3    3    0    0 -0.23034910692E+03  0.26612311430E+03 -0.45596682443E+03  0.57601038880E+03  0.00000000000E+00 0.  1.
        -11    1    3    3    0    0 -0.10514279156E+03  0.13568207655E+03 -0.34174593929E+03  0.38243289547E+03  0.00000000000E+00 0. -1.
          2    1    5    5  502    0  0.46642250256E+03 -0.43567202171E+03 -0.40712748008E+03  0.75704216952E+03  0.00000000000E+00 0. -1.
          3    1    6    6  503    0 -0.12154930051E+03  0.38467773424E+02  0.17956998700E+03  0.22022575298E+03  0.00000000000E+00 0. -1.
         -2    1    5    5    0  502  0.42456007798E+02 -0.10169351482E+02 -0.37485349087E+02  0.57541982099E+02  0.00000000000E+00 0.  1.
         -3    1    6    6    0  503 -0.51837311363E+02  0.55684089242E+01  0.53939010798E+01  0.52413816844E+02  0.00000000000E+00 0.  1.
<mgrwt>
<rscale>  0 0.17512109E+04</rscale>
<asrwt>0</asrwt>
<pdfrwt beam="1">  1        2 0.23869451E+00 0.17512109E+04</pdfrwt>
<pdfrwt beam="2">  1       -2 0.76023485E-01 0.17512109E+04</pdfrwt>
<totfact> 0.17433480E+01</totfact>
</mgrwt>
</event>
<event>
12    1  0.4403484E-008  0.2049423E+04  0.7818608E-02  0.8583856E-01
         -2   -1    0    0    0  501 -0.00000000000E+00  0.00000000000E+00  0.62664494971E+03  0.62664494971E+03  0.00000000000E+00 0.  1.
          2   -1    0    0  501    0  0.00000000000E+00 -0.00000000000E+00 -0.16756432742E+04  0.16756432742E+04  0.00000000000E+00 0. -1.
         23    2    1    2    0    0 -0.47055050833E+03 -0.17377277752E+03  0.30935511371E+03  0.59622300892E+03  0.90368860146E+02 0.  0.
        254    2    1    2    0    0  0.47055050833E+03  0.17377277752E+03 -0.13583534382E+04  0.17060652149E+04  0.90217498057E+03 0.  0.
         23    2    4    4    0    0  0.45374648157E+03 -0.11305639480E+03 -0.21309073285E+03  0.52193891023E+03  0.91350684979E+02 0.  0.
         23    2    4    4    0    0  0.16804026766E+02  0.28682917232E+03 -0.11452627053E+04  0.11841263047E+04  0.89303370137E+02 0.  0.
         11    1    3    3    0    0 -0.12970421147E+02 -0.12848012195E+02 -0.40878745358E+01  0.18708660035E+02  0.00000000000E+00 0. -1.
        -11    1    3    3    0    0 -0.45758008719E+03 -0.16092476533E+03  0.31344298825E+03  0.57751434888E+03  0.00000000000E+00 0.  1.
          1    1    6    6  502    0 -0.21432876896E+02  0.19997591471E+03 -0.87069644662E+03  0.89362298360E+03  0.00000000000E+00 0. -1.
          1    1    5    5  503    0  0.10512056346E+03  0.12060192385E+02 -0.40367352120E+02  0.11324885968E+03  0.00000000000E+00 0. -1.
         -1    1    5    5    0  503  0.34862591811E+03 -0.12511658719E+03 -0.17272338073E+03  0.40869005055E+03  0.00000000000E+00 0.  1.
         -1    1    6    6    0  502  0.38236903662E+02  0.86853257610E+02 -0.27456625870E+03  0.29050332111E+03  0.00000000000E+00 0.  1.
<mgrwt>
<rscale>  0 0.20494227E+04</rscale>
<asrwt>0</asrwt>
<pdfrwt beam="1">  1        2 0.25779127E+00 0.20494227E+04</pdfrwt>
<pdfrwt beam="2">  1       -2 0.96406918E-01 0.20494227E+04</pdfrwt>
<totfact> 0.84309870E+00</totfact>
</mgrwt>
</event>
<event>
12    1  0.4403484E-008  0.1250369E+04  0.7818608E-02  0.9069876E-01
          2   -1    0    0  501    0  0.00000000000E+00  0.00000000000E+00  0.67927514198E+03  0.67927514198E+03  0.00000000000E+00 0.  1.
         -2   -1    0    0    0  501 -0.00000000000E+00 -0.00000000000E+00 -0.57540097852E+03  0.57540097852E+03  0.00000000000E+00 0. -1.
         23    2    1    2    0    0  0.37484596471E+02 -0.26864097522E+03 -0.84385615539E+02  0.29781181337E+03  0.89430842182E+02 0.  0.
        254    2    1    2    0    0 -0.37484596471E+02  0.26864097522E+03  0.18825977900E+03  0.95686430713E+03  0.89809492223E+03 0.  0.
         23    2    4    4    0    0  0.19154259005E+03  0.22119962001E+03 -0.28734908816E+03  0.41924748146E+03  0.87069607507E+02 0.  0.
         23    2    4    4    0    0 -0.22902718652E+03  0.47441355215E+02  0.47560886716E+03  0.53761682567E+03  0.90132804098E+02 0.  0.
         11    1    3    3    0    0  0.18212085201E+02 -0.34284605905E+01 -0.12503445519E+02  0.22355548287E+02  0.00000000000E+00 0. -1.
        -11    1    3    3    0    0  0.19272511270E+02 -0.26521251463E+03 -0.71882170020E+02  0.27545626509E+03  0.00000000000E+00 0.  1.
          2    1    5    5  502    0  0.17640418110E+03  0.21109933313E+03 -0.29125121328E+03  0.40063528651E+03  0.00000000000E+00 0. -1.
          3    1    6    6  503    0 -0.11212130891E+03  0.13812028729E+02  0.32465586936E+03  0.34374902699E+03  0.00000000000E+00 0. -1.
         -2    1    5    5    0  502  0.15138408951E+02  0.10100286872E+02  0.39021251209E+01  0.18612194952E+02  0.00000000000E+00 0.  1.
         -3    1    6    6    0  503 -0.11690587761E+03  0.33629326487E+02  0.15095299780E+03  0.19386779868E+03  0.00000000000E+00 0.  1.
<mgrwt>
<rscale>  0 0.12503689E+04</rscale>
<asrwt>0</asrwt>
<pdfrwt beam="1">  1        2 0.10450387E+00 0.12503689E+04</pdfrwt>
<pdfrwt beam="2">  1       -2 0.88523227E-01 0.12503689E+04</pdfrwt>
<totfact> 0.45971174E+01</totfact>
</mgrwt>
</event>
<event>
12    1  0.4403484E-008  0.1570521E+04  0.7818608E-02  0.8838866E-01
         -1   -1    0    0    0  501 -0.00000000000E+00  0.00000000000E+00  0.22245773751E+03  0.22245773751E+03  0.00000000000E+00 0.  1.
          1   -1    0    0  501    0  0.00000000000E+00 -0.00000000000E+00 -0.27719148031E+04  0.27719148031E+04  0.00000000000E+00 0. -1.
         23    2    1    2    0    0 -0.20646201172E+03  0.13963634382E+03  0.14108792709E+02  0.26600575848E+03  0.91842989477E+02 0.  0.
        254    2    1    2    0    0  0.20646201172E+03 -0.13963634382E+03 -0.25635658583E+04  0.27283667822E+04  0.89999473177E+03 0.  0.
         23    2    4    4    0    0  0.27426544430E+03  0.94953252874E+02 -0.24039443649E+04  0.24229560196E+04  0.86773897150E+02 0.  0.
         23    2    4    4    0    0 -0.67803432582E+02 -0.23458959669E+03 -0.15962149342E+03  0.30541076255E+03  0.90372165930E+02 0.  0.
         11    1    3    3    0    0 -0.15552964675E+03  0.94492332059E+02  0.50455149932E+02  0.18884913023E+03  0.00000000000E+00 0.  1.
        -11    1    3    3    0    0 -0.50932364975E+02  0.45144011759E+02 -0.36346357224E+02  0.77156628251E+02  0.00000000000E+00 0. -1.
          4    1    5    5  502    0  0.21144591420E+03  0.94781533770E+02 -0.20886662805E+04  0.21014803699E+04  0.00000000000E+00 0. -1.
          1    1    6    6  503    0 -0.25712432597E+02 -0.55577948011E+02  0.10014704147E+01  0.61245738123E+02  0.00000000000E+00 0. -1.
         -4    1    5    5    0  502  0.62819530099E+02  0.17171910371E+00 -0.31527808442E+03  0.32147564973E+03  0.00000000000E+00 0.  1.
         -1    1    6    6    0  503 -0.42090999985E+02 -0.17901164868E+03 -0.16062296384E+03  0.24416502443E+03  0.00000000000E+00 0.  1.
<mgrwt>
<rscale>  0 0.15705208E+04</rscale>
<asrwt>0</asrwt>
<pdfrwt beam="1">  1        1 0.42644846E+00 0.15705208E+04</pdfrwt>
<pdfrwt beam="2">  1       -1 0.34224265E-01 0.15705208E+04</pdfrwt>
<totfact> 0.68056286E+00</totfact>
</mgrwt>
</event>
<event>
12    1  0.4403484E-008  0.1592701E+04  0.7818608E-02  0.8825045E-01
          2   -1    0    0  501    0  0.00000000000E+00  0.00000000000E+00  0.17715868023E+04  0.17715868023E+04  0.00000000000E+00 0. -1.
         -2   -1    0    0    0  501 -0.00000000000E+00 -0.00000000000E+00 -0.35796931898E+03  0.35796931898E+03  0.00000000000E+00 0.  1.
         23    2    1    2    0    0  0.19954539622E+03 -0.46765719287E+03  0.69664585830E+03  0.86735060674E+03  0.91978301399E+02 0.  0.
        254    2    1    2    0    0 -0.19954539622E+03  0.46765719287E+03  0.71697162504E+03  0.12622055146E+04  0.90586579287E+03 0.  0.
         23    2    4    4    0    0 -0.17790009118E+03 -0.27828247229E+02 -0.15439783647E+03  0.25546997753E+03  0.94886056545E+02 0.  0.
         23    2    4    4    0    0 -0.21645305044E+02  0.49548544010E+03  0.87136946151E+03  0.10067355370E+04  0.90870030878E+02 0.  0.
         11    1    3    3    0    0  0.25413243005E+02 -0.60025986850E+02  0.44900145182E+02  0.79151595402E+02  0.00000000000E+00 0. -1.
        -11    1    3    3    0    0  0.17413215322E+03 -0.40763120602E+03  0.65174571312E+03  0.78819901134E+03  0.00000000000E+00 0.  1.
          1    1    5    5  502    0 -0.28866367856E+02  0.29725384095E+02 -0.48544342321E+02  0.63823340748E+02  0.00000000000E+00 0. -1.
          3    1    6    6  503    0  0.18545381607E+02  0.65345758876E+02  0.78502608809E+02  0.10381068814E+03  0.00000000000E+00 0. -1.
         -1    1    5    5    0  502 -0.14903372332E+03 -0.57553631323E+02 -0.10585349414E+03  0.19164663678E+03  0.00000000000E+00 0.  1.
         -3    1    6    6    0  503 -0.40190686651E+02  0.43013968122E+03  0.79286685270E+03  0.90292484890E+03  0.00000000000E+00 0.  1.
<mgrwt>
<rscale>  0 0.15927005E+04</rscale>
<asrwt>0</asrwt>
<pdfrwt beam="1">  1        2 0.27255181E+00 0.15927005E+04</pdfrwt>
<pdfrwt beam="2">  1       -2 0.55072204E-01 0.15927005E+04</pdfrwt>
<totfact> 0.26616741E+01</totfact>
</mgrwt>
</event>
<event>
12    1  0.4403484E-008  0.2871659E+04  0.7818608E-02  0.8281360E-01
          1   -1    0    0  501    0  0.00000000000E+00  0.00000000000E+00  0.15015892698E+04  0.15015892698E+04  0.00000000000E+00 0. -1.
         -1   -1    0    0    0  501 -0.00000000000E+00 -0.00000000000E+00 -0.13729494043E+04  0.13729494043E+04  0.00000000000E+00 0.  1.
         23    2    1    2    0    0  0.12806657565E+04  0.81464876197E+02 -0.64422098357E+02  0.12881076677E+04  0.91268015924E+02 0.  0.
        254    2    1    2    0    0 -0.12806657565E+04 -0.81464876197E+02  0.19306196389E+03  0.15864310064E+04  0.91255088084E+03 0.  0.
         23    2    4    4    0    0 -0.61289642318E+03 -0.48679639474E+03  0.10009871455E+03  0.79452128959E+03  0.92906250964E+02 0.  0.
         23    2    4    4    0    0 -0.66776933334E+03  0.40533151854E+03  0.92963249337E+02  0.79190971680E+03  0.90935754005E+02 0.  0.
         11    1    3    3    0    0  0.38811355356E+03  0.59445127976E+02  0.40688129426E+01  0.39266067913E+03  0.00000000000E+00 0. -1.
        -11    1    3    3    0    0  0.89255220297E+03  0.22019748221E+02 -0.68490911299E+02  0.89544698853E+03  0.00000000000E+00 0.  1.
          2    1    5    5  502    0 -0.39285916084E+03 -0.28561102718E+03  0.10230742685E+03  0.49636557968E+03  0.00000000000E+00 0. -1.
          1    1    6    6  503    0 -0.28453761123E+03  0.16471666738E+03 -0.54706190770E+01  0.32882086368E+03  0.00000000000E+00 0. -1.
         -2    1    5    5    0  502 -0.22003726235E+03 -0.20118536756E+03 -0.22087122981E+01  0.29815570991E+03  0.00000000000E+00 0.  1.
         -1    1    6    6    0  503 -0.38323172211E+03  0.24061485116E+03  0.98433868414E+02  0.46308885312E+03  0.00000000000E+00 0.  1.
<mgrwt>
<rscale>  0 0.28716588E+04</rscale>
<asrwt>0</asrwt>
<pdfrwt beam="1">  1        1 0.23101373E+00 0.28716588E+04</pdfrwt>
<pdfrwt beam="2">  1       -1 0.21122299E+00 0.28716588E+04</pdfrwt>
<totfact> 0.70814956E-01</totfact>
</mgrwt>
</event>
<event>
12    1  0.4403484E-008  0.1297971E+04  0.7818608E-02  0.9031176E-01
          2   -1    0    0  501    0  0.00000000000E+00  0.00000000000E+00  0.12590761447E+04  0.12590761447E+04  0.00000000000E+00 0. -1.
         -2   -1    0    0    0  501 -0.00000000000E+00 -0.00000000000E+00 -0.33451658771E+03  0.33451658771E+03  0.00000000000E+00 0.  1.
         23    2    1    2    0    0  0.27380462370E+02  0.22739786316E+03  0.54364167483E+03  0.59553853211E+03  0.81611241462E+02 0.  0.
        254    2    1    2    0    0 -0.27380462370E+02 -0.22739786316E+03  0.38091788212E+03  0.99805420025E+03  0.89361864117E+03 0.  0.
         23    2    4    4    0    0 -0.44112465251E+03 -0.93372524611E+02  0.97877183753E+02  0.47121927316E+03  0.95698865651E+02 0.  0.
         23    2    4    4    0    0  0.41374419014E+03 -0.13402533855E+03  0.28304069837E+03  0.52683492710E+03  0.91082145507E+02 0.  0.
         13    1    3    3    0    0  0.27036203212E+02  0.21388542120E+03  0.54014115428E+03  0.58157578718E+03  0.00000000000E+00 0. -1.
        -13    1    3    3    0    0  0.34425915763E+00  0.13512441956E+02  0.35005205490E+01  0.13962744934E+02  0.00000000000E+00 0.  1.
          2    1    5    5  502    0 -0.31359257215E+03 -0.62754055898E+02  0.24051695436E+02  0.32071304447E+03  0.00000000000E+00 0. -1.
          1    1    6    6  503    0  0.37033272070E+03 -0.10920916152E+03  0.21354513013E+03  0.44121931914E+03  0.00000000000E+00 0. -1.
         -2    1    5    5    0  502 -0.12753208036E+03 -0.30618468713E+02  0.73825488317E+02  0.15050622868E+03  0.00000000000E+00 0.  1.
         -1    1    6    6    0  503  0.43411469440E+02 -0.24816177032E+02  0.69495568235E+02  0.85615607957E+02  0.00000000000E+00 0.  1.
<mgrwt>
<rscale>  0 0.12979705E+04</rscale>
<asrwt>0</asrwt>
<pdfrwt beam="1">  1        2 0.19370402E+00 0.12979705E+04</pdfrwt>
<pdfrwt beam="2">  1       -2 0.51464091E-01 0.12979705E+04</pdfrwt>
<totfact> 0.61077546E+01</totfact>
</mgrwt>
</event>
<event>
12    1  0.4403484E-008  0.1292653E+04  0.7818608E-02  0.9035412E-01
          1   -1    0    0  501    0  0.00000000000E+00  0.00000000000E+00  0.50393302374E+03  0.50393302374E+03  0.00000000000E+00 0. -1.
         -1   -1    0    0    0  501 -0.00000000000E+00 -0.00000000000E+00 -0.82895513123E+03  0.82895513123E+03  0.00000000000E+00 0.  1.
         23    2    1    2    0    0  0.62595939354E+02 -0.93418529460E+02 -0.39380302907E+03  0.41965384725E+03  0.91560103403E+02 0.  0.
        254    2    1    2    0    0 -0.62595939354E+02  0.93418529460E+02  0.68780921585E+02  0.91323430773E+03  0.90367074334E+03 0.  0.
         23    2    4    4    0    0 -0.15017405960E+03  0.18632360294E+03  0.43980409268E+03  0.50864989236E+03  0.89601003738E+02 0.  0.
         23    2    4    4    0    0  0.87578120243E+02 -0.92905073481E+02 -0.37102317109E+03  0.40458441537E+03  0.98636077808E+02 0.  0.
         11    1    3    3    0    0  0.71963970348E+02 -0.46744904377E+02 -0.32394206899E+03  0.33511544753E+03  0.00000000000E+00 0.  1.
        -11    1    3    3    0    0 -0.93680309947E+01 -0.46673625083E+02 -0.69860960080E+02  0.84538399715E+02  0.00000000000E+00 0. -1.
          2    1    5    5  502    0 -0.10284273727E+03  0.12390588290E+03  0.37081021273E+03  0.40426415905E+03  0.00000000000E+00 0. -1.
          1    1    6    6  503    0  0.10435145382E+03 -0.68655736551E+02 -0.33784805983E+03  0.36020014937E+03  0.00000000000E+00 0. -1.
         -2    1    5    5    0  502 -0.47331322323E+02  0.62417720043E+02  0.68993879948E+02  0.10438573331E+03  0.00000000000E+00 0.  1.
         -1    1    6    6    0  503 -0.16773333575E+02 -0.24249336930E+02 -0.33175111269E+02  0.44384266002E+02  0.00000000000E+00 0.  1.
<mgrwt>
<rscale>  0 0.12926529E+04</rscale>
<asrwt>0</asrwt>
<pdfrwt beam="1">  1        1 0.77528158E-01 0.12926529E+04</pdfrwt>
<pdfrwt beam="2">  1       -1 0.12753156E+00 0.12926529E+04</pdfrwt>
<totfact> 0.22947929E+01</totfact>
</mgrwt>
</event>
<event>
12    1  0.4403484E-008  0.2086626E+04  0.7818608E-02  0.8567158E-01
          1   -1    0    0  501    0  0.00000000000E+00  0.00000000000E+00  0.14644295499E+04  0.14644295499E+04  0.00000000000E+00 0. -1.
         -1   -1    0    0    0  501 -0.00000000000E+00 -0.00000000000E+00 -0.74329398785E+03  0.74329398785E+03  0.00000000000E+00 0.  1.
         23    2    1    2    0    0  0.88562079801E+02  0.37696583036E+03 -0.50426298413E+03  0.64236274197E+03  0.91663819852E+02 0.  0.
        254    2    1    2    0    0 -0.88562079801E+02 -0.37696583036E+03  0.12253985461E+04  0.15653607957E+04  0.89375966835E+03 0.  0.
         23    2    4    4    0    0 -0.48986086322E+02  0.22325371645E+03  0.62817772067E+02  0.25320610474E+03  0.89024718080E+02 0.  0.
         23    2    4    4    0    0 -0.39575993479E+02 -0.60021954681E+03  0.11625807741E+04  0.13121546910E+04  0.91247538412E+02 0.  0.
         11    1    3    3    0    0  0.10787885795E+03  0.32829649602E+03 -0.43738975985E+03  0.55742823691E+03  0.00000000000E+00 0.  1.
        -11    1    3    3    0    0 -0.19316778145E+02  0.48669334341E+02 -0.66873224278E+02  0.84934505052E+02  0.00000000000E+00 0. -1.
          4    1    5    5  502    0 -0.64289789812E+02  0.21002745437E+03  0.71786022884E+02  0.23107994665E+03  0.00000000000E+00 0. -1.
          3    1    6    6  503    0  0.47419652468E+01 -0.43098171826E+03  0.77157604004E+03  0.88379709961E+03  0.00000000000E+00 0. -1.
         -4    1    5    5    0  502  0.15303703490E+02  0.13226262082E+02 -0.89682508172E+01  0.22126158092E+02  0.00000000000E+00 0.  1.
         -3    1    6    6    0  503 -0.44317958726E+02 -0.16923782855E+03  0.39100473403E+03  0.42835759140E+03  0.00000000000E+00 0.  1.
<mgrwt>
<rscale>  0 0.20866257E+04</rscale>
<asrwt>0</asrwt>
<pdfrwt beam="1">  1        1 0.22529685E+00 0.20866257E+04</pdfrwt>
<pdfrwt beam="2">  1       -1 0.11435292E+00 0.20866257E+04</pdfrwt>
<totfact> 0.44363334E+00</totfact>
</mgrwt>
</event>
<event>
12    1  0.4403484E-008  0.1414370E+04  0.7818608E-02  0.8943482E-01
          2   -1    0    0  501    0  0.00000000000E+00  0.00000000000E+00  0.26719685397E+04  0.26719685397E+04  0.00000000000E+00 0.  1.
         -2   -1    0    0    0  501 -0.00000000000E+00 -0.00000000000E+00 -0.18716944820E+03  0.18716944820E+03  0.00000000000E+00 0. -1.
         23    2    1    2    0    0  0.10508839303E+03 -0.12582498606E+03  0.14984749296E+04  0.15101293855E+04  0.90488391651E+02 0.  0.
        254    2    1    2    0    0 -0.10508839303E+03  0.12582498606E+03  0.98632416195E+03  0.13490086024E+04  0.90560110390E+03 0.  0.
         23    2    4    4    0    0 -0.17344501371E+03 -0.24044327365E+03  0.90507242215E+03  0.95672565701E+03  0.90949177118E+02 0.  0.
         23    2    4    4    0    0  0.68356620682E+02  0.36626825971E+03  0.81251739803E+02  0.39228294537E+03  0.91972813097E+02 0.  0.
         11    1    3    3    0    0  0.90873850833E+02 -0.75205354671E+02  0.12797143273E+04  0.12851391604E+04  0.00000000000E+00 0.  1.
        -11    1    3    3    0    0  0.14214542199E+02 -0.50619631385E+02  0.21876060229E+03  0.22499022513E+03  0.00000000000E+00 0. -1.
          2    1    5    5  502    0  0.20210502388E+01  0.57028045600E+01  0.37833080573E+02  0.38313817475E+02  0.00000000000E+00 0. -1.
          4    1    6    6  503    0  0.82014676865E+02  0.32848503502E+03  0.91706245679E+02  0.35076895666E+03  0.00000000000E+00 0.  1.
         -2    1    5    5    0  502 -0.17546606395E+03 -0.24614607821E+03  0.86723934157E+03  0.91841183953E+03  0.00000000000E+00 0.  1.
         -4    1    6    6    0  503 -0.13658056183E+02  0.37783224684E+02 -0.10454505876E+02  0.41513988719E+02  0.00000000000E+00 0. -1.
<mgrwt>
<rscale>  0 0.14143704E+04</rscale>
<asrwt>0</asrwt>
<pdfrwt beam="1">  1        2 0.41107206E+00 0.14143704E+04</pdfrwt>
<pdfrwt beam="2">  1       -2 0.28795302E-01 0.14143704E+04</pdfrwt>
<totfact> 0.29846962E+01</totfact>
</mgrwt>
</event>
<event>
12    1  0.5123052E-008  0.1476266E+04  0.7818608E-02  0.8900391E-01
         -2   -1    0    0    0  501 -0.00000000000E+00  0.00000000000E+00  0.70451785311E+03  0.70451785311E+03  0.00000000000E+00 0.  1.
          2   -1    0    0  501    0  0.00000000000E+00 -0.00000000000E+00 -0.77335175267E+03  0.77335175267E+03  0.00000000000E+00 0. -1.
         23    2    1    2    0    0 -0.22740708729E+03 -0.34614480773E+03  0.13917476402E+03  0.44643077802E+03  0.91654859960E+02 0.  0.
        254    2    1    2    0    0  0.22740708729E+03  0.34614480773E+03 -0.20800866357E+03  0.10314388278E+04  0.92144898938E+03 0.  0.
         23    2    4    4    0    0 -0.17265270926E+03 -0.12095112900E+03 -0.32527256215E+03  0.39869565638E+03  0.93369444211E+02 0.  0.
         23    2    4    4    0    0  0.40005979655E+03  0.46709593672E+03  0.11726389857E+03  0.63274317138E+03  0.91578622467E+02 0.  0.
         13    1    3    3    0    0 -0.88673112694E+01 -0.44723209059E+02  0.41186582201E+02  0.61442079971E+02  0.00000000000E+00 0. -1.
        -13    1    3    3    0    0 -0.21853977602E+03 -0.30142159867E+03  0.97988181815E+02  0.38498869805E+03  0.00000000000E+00 0.  1.
          1    1    5    5  502    0 -0.15443204414E+03 -0.87499178151E+02 -0.31086471683E+03  0.35796960011E+03  0.00000000000E+00 0. -1.
          3    1    6    6  503    0  0.29161481047E+03  0.38285895080E+03  0.11758288044E+03  0.49542497683E+03  0.00000000000E+00 0. -1.
         -1    1    5    5    0  502 -0.18220665119E+02 -0.33451950845E+02 -0.14407845319E+02  0.40726056272E+02  0.00000000000E+00 0.  1.
         -3    1    6    6    0  503  0.10844498609E+03  0.84236985923E+02 -0.31898186724E+00  0.13731819455E+03  0.00000000000E+00 0.  1.
<mgrwt>
<rscale>  0 0.14762657E+04</rscale>
<asrwt>0</asrwt>
<pdfrwt beam="1">  1        2 0.11897719E+00 0.14762657E+04</pdfrwt>
<pdfrwt beam="2">  1       -2 0.10838736E+00 0.14762657E+04</pdfrwt>
<totfact> 0.23746808E+01</totfact>
</mgrwt>
</event>
<event>
12    1  0.7307110E-008  0.1772126E+04  0.7818608E-02  0.8721265E-01
         -2   -1    0    0    0  501 -0.00000000000E+00  0.00000000000E+00  0.85024958424E+03  0.85024958424E+03  0.00000000000E+00 0.  1.
          2   -1    0    0  501    0  0.00000000000E+00 -0.00000000000E+00 -0.92338505512E+03  0.92338505512E+03  0.00000000000E+00 0. -1.
         23    2    1    2    0    0  0.56559027235E+01  0.82342363362E+02 -0.68212904104E+03  0.69236051789E+03  0.85151653299E+02 0.  0.
        254    2    1    2    0    0 -0.56559027235E+01 -0.82342363362E+02  0.60899357016E+03  0.10812741215E+04  0.88964504338E+03 0.  0.
         23    2    4    4    0    0 -0.35315128144E+03 -0.17542510109E+03  0.46771598520E+02  0.40762915251E+03  0.92109445086E+02 0.  0.
         23    2    4    4    0    0  0.34749537872E+03  0.93082737724E+02  0.56222197164E+03  0.67364496896E+03  0.91030569120E+02 0.  0.
         11    1    3    3    0    0  0.17488186978E+02  0.86904056450E+02 -0.66585102276E+03  0.67172593833E+03  0.00000000000E+00 0. -1.
        -11    1    3    3    0    0 -0.11832284254E+02 -0.45616930886E+01 -0.16278018281E+02  0.20634579561E+02  0.00000000000E+00 0.  1.
          1    1    5    5  502    0 -0.14139340245E+03 -0.38698841828E+02 -0.17134822217E+02  0.14759165541E+03  0.00000000000E+00 0. -1.
          3    1    6    6  503    0  0.17986737009E+03  0.28435967895E+02  0.35793242547E+03  0.40159245050E+03  0.00000000000E+00 0. -1.
         -1    1    5    5    0  502 -0.21175787899E+03 -0.13672625926E+03  0.63906420738E+02  0.26003749710E+03  0.00000000000E+00 0.  1.
         -3    1    6    6    0  503  0.16762800863E+03  0.64646769830E+02  0.20428954617E+03  0.27205251846E+03  0.00000000000E+00 0.  1.
<mgrwt>
<rscale>  0 0.17721261E+04</rscale>
<asrwt>0</asrwt>
<pdfrwt beam="1">  1        2 0.14205924E+00 0.17721261E+04</pdfrwt>
<pdfrwt beam="2">  1       -2 0.13080763E+00 0.17721261E+04</pdfrwt>
<totfact> 0.11437926E+01</totfact>
</mgrwt>
</event>
<event>
12    1  0.4403484E-008  0.2692400E+04  0.7818608E-02  0.8337475E-01
         -2   -1    0    0    0  501 -0.00000000000E+00  0.00000000000E+00  0.69704760931E+03  0.69704760931E+03  0.00000000000E+00 0.  1.
          2   -1    0    0  501    0  0.00000000000E+00 -0.00000000000E+00 -0.25999001597E+04  0.25999001597E+04  0.00000000000E+00 0. -1.
         23    2    1    2    0    0  0.10859797557E+04 -0.38996529348E+03 -0.90876188360E+03  0.14717786511E+04  0.94123731163E+02 0.  0.
        254    2    1    2    0    0 -0.10859797557E+04  0.38996529348E+03 -0.99409066678E+03  0.18251691179E+04  0.10057838214E+04 0.  0.
         23    2    4    4    0    0 -0.67805217108E+02  0.32411543993E+02 -0.68972222034E+03  0.70035055864E+03  0.95530665782E+02 0.  0.
         23    2    4    4    0    0 -0.10181745386E+04  0.35755374949E+03 -0.30436844644E+03  0.11248185593E+04  0.89736087228E+02 0.  0.
         11    1    3    3    0    0  0.96377606480E+03 -0.32244468539E+03 -0.77109330551E+03  0.12757036349E+04  0.00000000000E+00 0. -1.
        -11    1    3    3    0    0  0.12220369089E+03 -0.67520608089E+02 -0.13766857808E+03  0.19607501619E+03  0.00000000000E+00 0.  1.
          1    1    5    5  502    0 -0.67643787246E+02  0.58477274598E+02 -0.42239327000E+03  0.43175380501E+03  0.00000000000E+00 0. -1.
          3    1    6    6  503    0 -0.44513167503E+03  0.19568259869E+03 -0.16257024014E+03  0.51270163890E+03  0.00000000000E+00 0. -1.
         -1    1    5    5    0  502 -0.16142986202E+00 -0.26065730605E+02 -0.26732895034E+03  0.26859675363E+03  0.00000000000E+00 0.  1.
         -3    1    6    6    0  503 -0.57304286355E+03  0.16187115080E+03 -0.14179820630E+03  0.61211692040E+03  0.00000000000E+00 0.  1.
<mgrwt>
<rscale>  0 0.26923998E+04</rscale>
<asrwt>0</asrwt>
<pdfrwt beam="1">  1        2 0.39998464E+00 0.26923998E+04</pdfrwt>
<pdfrwt beam="2">  1       -2 0.10723809E+00 0.26923998E+04</pdfrwt>
<totfact> 0.18662585E+00</totfact>
</mgrwt>
</event>
<event>
12    1  0.4403484E-008  0.1702642E+04  0.7818608E-02  0.8759859E-01
          1   -1    0    0  501    0  0.00000000000E+00  0.00000000000E+00  0.10678127560E+04  0.10678127560E+04  0.00000000000E+00 0.  1.
         -1   -1    0    0    0  501 -0.00000000000E+00 -0.00000000000E+00 -0.67872161145E+03  0.67872161145E+03  0.00000000000E+00 0. -1.
         23    2    1    2    0    0 -0.16260535965E+03  0.39764562033E+03  0.56980111526E+03  0.71925568268E+03  0.89960456626E+02 0.  0.
        254    2    1    2    0    0  0.16260535965E+03 -0.39764562033E+03 -0.18070997068E+03  0.10272786848E+04  0.91546865615E+03 0.  0.
         23    2    4    4    0    0  0.31855717182E+03 -0.34085657989E+03 -0.47739954761E+03  0.67378689043E+03  0.91741843698E+02 0.  0.
         23    2    4    4    0    0 -0.15595181217E+03 -0.56789040440E+02  0.29668957692E+03  0.35349179438E+03  0.96880239494E+02 0.  0.
         13    1    3    3    0    0 -0.37370894481E+02  0.96414125493E+02  0.20675754154E+03  0.23117298357E+03  0.00000000000E+00 0. -1.
        -13    1    3    3    0    0 -0.12523446517E+03  0.30123149484E+03  0.36304357372E+03  0.48808269911E+03  0.00000000000E+00 0.  1.
          2    1    5    5  502    0  0.92228904645E+02 -0.46537252028E+02 -0.87376340025E+02  0.13530155755E+03  0.00000000000E+00 0. -1.
          1    1    6    6  503    0 -0.15426151717E+03 -0.71725565434E+02  0.29164533589E+03  0.33763615678E+03  0.00000000000E+00 0. -1.
         -2    1    5    5    0  502  0.22632826717E+03 -0.29431932786E+03 -0.39002320758E+03  0.53848533288E+03  0.00000000000E+00 0.  1.
         -1    1    6    6    0  503 -0.16902949951E+01  0.14936524993E+02  0.50442410312E+01  0.15855637598E+02  0.00000000000E+00 0.  1.
<mgrwt>
<rscale>  0 0.17026422E+04</rscale>
<asrwt>0</asrwt>
<pdfrwt beam="1">  1        1 0.16427889E+00 0.17026422E+04</pdfrwt>
<pdfrwt beam="2">  1       -1 0.10441871E+00 0.17026422E+04</pdfrwt>
<totfact> 0.11006761E+01</totfact>
</mgrwt>
</event>
<event>
12    1  0.4403484E-008  0.1655104E+04  0.7818608E-02  0.8787393E-01
         -1   -1    0    0    0  501 -0.00000000000E+00  0.00000000000E+00  0.95622036267E+03  0.95622036267E+03  0.00000000000E+00 0.  1.
          1   -1    0    0  501    0  0.00000000000E+00 -0.00000000000E+00 -0.71619734667E+03  0.71619734667E+03  0.00000000000E+00 0. -1.
         23    2    1    2    0    0 -0.16148239278E+02 -0.16344798535E+03 -0.46475703863E+03  0.50130190636E+03  0.91260543576E+02 0.  0.
        254    2    1    2    0    0  0.16148239278E+02  0.16344798535E+03  0.70478005463E+03  0.11711158030E+04  0.92077211570E+03 0.  0.
         23    2    4    4    0    0  0.42452095272E+03  0.30000329775E+02  0.14149096381E+03  0.45746392887E+03  0.90196974945E+02 0.  0.
         23    2    4    4    0    0 -0.40837271345E+03  0.13344765558E+03  0.56328909083E+03  0.71365187412E+03  0.86184962250E+02 0.  0.
         13    1    3    3    0    0  0.27069024345E+02 -0.16707999768E+02 -0.50286694124E+02  0.59503285128E+02  0.00000000000E+00 0.  1.
        -13    1    3    3    0    0 -0.43217263622E+02 -0.14673998558E+03 -0.41447034451E+03  0.44179862123E+03  0.00000000000E+00 0. -1.
          1    1    5    5  502    0  0.32343839891E+03  0.11327580609E+02  0.14494727787E+03  0.35461306425E+03  0.00000000000E+00 0. -1.
          1    1    6    6  503    0 -0.10604750707E+02  0.13202623855E+02  0.49393899234E+01  0.17639942943E+02  0.00000000000E+00 0. -1.
         -1    1    5    5    0  502  0.10108255381E+03  0.18672749166E+02 -0.34563140628E+01  0.10285086462E+03  0.00000000000E+00 0.  1.
         -1    1    6    6    0  503 -0.39776796274E+03  0.12024503172E+03  0.55834970090E+03  0.69601193117E+03  0.00000000000E+00 0.  1.
<mgrwt>
<rscale>  0 0.16551042E+04</rscale>
<asrwt>0</asrwt>
<pdfrwt beam="1">  1        1 0.11018421E+00 0.16551042E+04</pdfrwt>
<pdfrwt beam="2">  1       -1 0.14711083E+00 0.16551042E+04</pdfrwt>
<totfact> 0.92386864E+00</totfact>
</mgrwt>
</event>
<event>
12    1  0.4403484E-008  0.1551100E+04  0.7818608E-02  0.8851165E-01
          2   -1    0    0  501    0  0.00000000000E+00  0.00000000000E+00  0.33289889163E+04  0.33289889163E+04  0.00000000000E+00 0. -1.
         -2   -1    0    0    0  501 -0.00000000000E+00 -0.00000000000E+00 -0.18067883230E+03  0.18067883230E+03  0.00000000000E+00 0.  1.
         23    2    1    2    0    0  0.39694950706E+03 -0.14017855658E+03  0.17176809338E+04  0.17705729562E+04  0.85333840121E+02 0.  0.
        254    2    1    2    0    0 -0.39694950706E+03  0.14017855658E+03  0.14306291502E+04  0.17390947923E+04  0.89472453437E+03 0.  0.
         23    2    4    4    0    0 -0.54559282398E+03 -0.10238464390E+03  0.46730336027E+03  0.73098113323E+03  0.88356333822E+02 0.  0.
         23    2    4    4    0    0  0.14864331692E+03  0.24256320049E+03  0.96332578992E+03  0.10081136591E+04  0.85818589029E+02 0.  0.
         11    1    3    3    0    0  0.13138225964E+03 -0.34555855410E+02  0.40630737251E+03  0.42841695373E+03  0.00000000000E+00 0.  1.
        -11    1    3    3    0    0  0.26556724743E+03 -0.10562270117E+03  0.13113735613E+04  0.13421560025E+04  0.00000000000E+00 0. -1.
          4    1    5    5  502    0 -0.39100454765E+03 -0.32226750078E+02  0.32414884866E+03  0.50891609897E+03  0.00000000000E+00 0. -1.
          3    1    6    6  503    0  0.12568975210E+03  0.12753184719E+03  0.54560526772E+03  0.57423635726E+03  0.00000000000E+00 0. -1.
         -4    1    5    5    0  502 -0.15458827633E+03 -0.70157893823E+02  0.14315451162E+03  0.22206503426E+03  0.00000000000E+00 0.  1.
         -3    1    6    6    0  503  0.22953564816E+02  0.11503135329E+03  0.41772052220E+03  0.43387730183E+03  0.00000000000E+00 0.  1.
<mgrwt>
<rscale>  0 0.15511000E+04</rscale>
<asrwt>0</asrwt>
<pdfrwt beam="1">  1        2 0.51215209E+00 0.15511000E+04</pdfrwt>
<pdfrwt beam="2">  1       -2 0.27796746E-01 0.15511000E+04</pdfrwt>
<totfact> 0.12240533E+01</totfact>
</mgrwt>
</event>
<event>
12    1  0.4403484E-008  0.1708150E+04  0.7818608E-02  0.8756730E-01
          2   -1    0    0  501    0  0.00000000000E+00  0.00000000000E+00  0.16099441539E+04  0.16099441539E+04  0.00000000000E+00 0. -1.
         -2   -1    0    0    0  501 -0.00000000000E+00 -0.00000000000E+00 -0.45308632586E+03  0.45308632586E+03  0.00000000000E+00 0.  1.
         23    2    1    2    0    0 -0.13721618720E+03  0.61316159768E+03  0.27837004947E+03  0.69297935791E+03  0.89079061242E+02 0.  0.
        254    2    1    2    0    0  0.13721618720E+03 -0.61316159768E+03  0.87848777855E+03  0.13700511218E+04  0.84291391760E+03 0.  0.
         23    2    4    4    0    0  0.15883081353E+03 -0.54385560956E+03  0.10298536487E+04  0.11790882195E+04  0.92974943492E+02 0.  0.
         23    2    4    4    0    0 -0.21614626329E+02 -0.69305988114E+02 -0.15136587016E+03  0.19096290238E+03  0.91020280040E+02 0.  0.
         11    1    3    3    0    0 -0.10873141473E+03  0.28940859177E+03  0.14870992049E+03  0.34306631136E+03  0.00000000000E+00 0. -1.
        -11    1    3    3    0    0 -0.28484772468E+02  0.32375300591E+03  0.12966012898E+03  0.34991304655E+03  0.00000000000E+00 0.  1.
          2    1    5    5  502    0  0.47084990799E+02 -0.20691587363E+03  0.47706723016E+03  0.52213438616E+03  0.00000000000E+00 0. -1.
          1    1    6    6  503    0  0.20111054123E+02 -0.62424214464E+02 -0.54517670499E+02  0.85284309495E+02  0.00000000000E+00 0. -1.
         -2    1    5    5    0  502  0.11174582273E+03 -0.33693973593E+03  0.55278641855E+03  0.65695383330E+03  0.00000000000E+00 0.  1.
         -1    1    6    6    0  503 -0.41725680453E+02 -0.68817736493E+01 -0.96848199659E+02  0.10567859289E+03  0.00000000000E+00 0.  1.
<mgrwt>
<rscale>  0 0.17081495E+04</rscale>
<asrwt>0</asrwt>
<pdfrwt beam="1">  1        2 0.24768371E+00 0.17081495E+04</pdfrwt>
<pdfrwt beam="2">  1       -2 0.69705589E-01 0.17081495E+04</pdfrwt>
<totfact> 0.19640757E+01</totfact>
</mgrwt>
</event>
<event>
12    1  0.5253272E-008  0.2260620E+04  0.7818608E-02  0.8493612E-01
          2   -1    0    0  501    0  0.00000000000E+00  0.00000000000E+00  0.15702005615E+04  0.15702005615E+04  0.00000000000E+00 0. -1.
         -2   -1    0    0    0  501 -0.00000000000E+00 -0.00000000000E+00 -0.81365410993E+03  0.81365410993E+03  0.00000000000E+00 0.  1.
         23    2    1    2    0    0 -0.11390818705E+03  0.12429036099E+03  0.12969583475E+04  0.13110948153E+04  0.91899351025E+02 0.  0.
        254    2    1    2    0    0  0.11390818705E+03 -0.12429036099E+03 -0.54041189596E+03  0.10727598561E+04  0.91123296834E+03 0.  0.
         23    2    4    4    0    0 -0.36849128418E+03  0.89261256749E+02 -0.25723869845E+03  0.46741404360E+03  0.92470220626E+02 0.  0.
         23    2    4    4    0    0  0.48239947123E+03 -0.21355161774E+03 -0.28317319751E+03  0.60534581247E+03  0.89123227092E+02 0.  0.
         13    1    3    3    0    0 -0.81282584910E+02  0.11274719122E+03  0.12023200817E+04  0.12103273800E+04  0.00000000000E+00 0. -1.
        -13    1    3    3    0    0 -0.32625602142E+02  0.11543169773E+02  0.94638265743E+02  0.10076743535E+03  0.00000000000E+00 0.  1.
          1    1    5    5  502    0 -0.71425434549E+01  0.21336343600E+02 -0.17146164755E+02  0.28288627591E+02  0.00000000000E+00 0. -1.
          1    1    6    6  503    0  0.91109083163E+02 -0.80885034502E+02 -0.61915809624E+02  0.13666316740E+03  0.00000000000E+00 0. -1.
         -1    1    5    5    0  502 -0.36134874072E+03  0.67924913150E+02 -0.24009253369E+03  0.43912541601E+03  0.00000000000E+00 0.  1.
         -1    1    6    6    0  503  0.39129038807E+03 -0.13266658324E+03 -0.22125738789E+03  0.46868264508E+03  0.00000000000E+00 0.  1.
<mgrwt>
<rscale>  0 0.22606195E+04</rscale>
<asrwt>0</asrwt>
<pdfrwt beam="1">  1        2 0.24156932E+00 0.22606195E+04</pdfrwt>
<pdfrwt beam="2">  1       -2 0.12517756E+00 0.22606195E+04</pdfrwt>
<totfact> 0.50369079E+00</totfact>
</mgrwt>
</event>
<event>
12    1  0.4403484E-008  0.1343795E+04  0.7818608E-02  0.8995539E-01
          1   -1    0    0  501    0  0.00000000000E+00  0.00000000000E+00  0.12550276379E+04  0.12550276379E+04  0.00000000000E+00 0. -1.
         -1   -1    0    0    0  501 -0.00000000000E+00 -0.00000000000E+00 -0.35971011456E+03  0.35971011456E+03  0.00000000000E+00 0.  1.
         23    2    1    2    0    0 -0.96065944432E+02 -0.24217006265E+03 -0.69944720125E+02  0.28521449590E+03  0.92628504655E+02 0.  0.
        254    2    1    2    0    0  0.96065944432E+02  0.24217006265E+03  0.96526224346E+03  0.13295232566E+04  0.87637086108E+03 0.  0.
         23    2    4    4    0    0 -0.24516041621E+03 -0.17582621968E+03  0.14979492000E+03  0.34782950534E+03  0.86766108145E+02 0.  0.
         23    2    4    4    0    0  0.34122636064E+03  0.41799628233E+03  0.81546732346E+03  0.98169375122E+03  0.87059429767E+02 0.  0.
         11    1    3    3    0    0 -0.98892685341E+01 -0.43307070609E+02  0.22256298179E+02  0.49685438566E+02  0.00000000000E+00 0. -1.
        -11    1    3    3    0    0 -0.86176675898E+02 -0.19886299204E+03 -0.92201018304E+02  0.23552905733E+03  0.00000000000E+00 0.  1.
          4    1    5    5  502    0 -0.24015808993E+03 -0.18512742092E+03  0.14651394151E+03  0.33677055275E+03  0.00000000000E+00 0. -1.
          3    1    6    6  503    0  0.32949455683E+03  0.42075819065E+03  0.80004229471E+03  0.96211838736E+03  0.00000000000E+00 0. -1.
         -4    1    5    5    0  502 -0.50023262707E+01  0.93012012387E+01  0.32809784905E+01  0.11058952593E+02  0.00000000000E+00 0.  1.
         -3    1    6    6    0  503  0.11731803806E+02 -0.27619083145E+01  0.15425028745E+02  0.19575363851E+02  0.00000000000E+00 0.  1.
<mgrwt>
<rscale>  0 0.13437948E+04</rscale>
<asrwt>0</asrwt>
<pdfrwt beam="1">  1        1 0.19308117E+00 0.13437948E+04</pdfrwt>
<pdfrwt beam="2">  1       -1 0.55340018E-01 0.13437948E+04</pdfrwt>
<totfact> 0.31500728E+01</totfact>
</mgrwt>
</event>
<event>
12    1  0.4403484E-008  0.1444922E+04  0.7818608E-02  0.8921928E-01
          1   -1    0    0  501    0  0.00000000000E+00  0.00000000000E+00  0.59873415616E+03  0.59873415616E+03  0.00000000000E+00 0. -1.
         -1   -1    0    0    0  501 -0.00000000000E+00 -0.00000000000E+00 -0.87175619076E+03  0.87175619076E+03  0.00000000000E+00 0.  1.
         23    2    1    2    0    0  0.36285534862E+03  0.22774395133E+03 -0.85983969998E+01  0.43742853819E+03  0.87968643282E+02 0.  0.
        254    2    1    2    0    0 -0.36285534862E+03 -0.22774395133E+03 -0.26442363760E+03  0.10330618087E+04  0.90208953498E+03 0.  0.
         23    2    4    4    0    0 -0.20145847191E+03 -0.42515366941E+03  0.18039749812E+03  0.51242029035E+03  0.93220910268E+02 0.  0.
         23    2    4    4    0    0 -0.16139687672E+03  0.19740971808E+03 -0.44482113572E+03  0.52064151838E+03  0.90455509865E+02 0.  0.
         13    1    3    3    0    0  0.16754529619E+03  0.13914297420E+03 -0.37594063656E+02  0.22101019698E+03  0.00000000000E+00 0. -1.
        -13    1    3    3    0    0  0.19531005243E+03  0.88600977129E+02  0.28995666656E+02  0.21641834121E+03  0.00000000000E+00 0.  1.
          1    1    5    5  502    0 -0.83575603479E+02 -0.25684144273E+03  0.13509147568E+03  0.30199687913E+03  0.00000000000E+00 0. -1.
          3    1    6    6  503    0 -0.63964395972E+02  0.18081846333E+02 -0.10936674207E+03  0.12798234797E+03  0.00000000000E+00 0. -1.
         -1    1    5    5    0  502 -0.11788286843E+03 -0.16831222668E+03  0.45306022440E+02  0.21042341122E+03  0.00000000000E+00 0.  1.
         -3    1    6    6    0  503 -0.97432480745E+02  0.17932787175E+03 -0.33545439365E+03  0.39265917041E+03  0.00000000000E+00 0.  1.
<mgrwt>
<rscale>  0 0.14449224E+04</rscale>
<asrwt>0</asrwt>
<pdfrwt beam="1">  1        1 0.92112947E-01 0.14449224E+04</pdfrwt>
<pdfrwt beam="2">  1       -1 0.13411634E+00 0.14449224E+04</pdfrwt>
<totfact> 0.15640120E+01</totfact>
</mgrwt>
</event>
<event>
12    1  0.4403484E-008  0.1317393E+04  0.7818608E-02  0.9015885E-01
          2   -1    0    0  501    0  0.00000000000E+00  0.00000000000E+00  0.12028186378E+04  0.12028186378E+04  0.00000000000E+00 0.  1.
         -2   -1    0    0    0  501 -0.00000000000E+00 -0.00000000000E+00 -0.36072003954E+03  0.36072003954E+03  0.00000000000E+00 0. -1.
         23    2    1    2    0    0  0.17811644409E+02  0.11006340492E+03 -0.15692794776E+03  0.21292997164E+03  0.91003210130E+02 0.  0.
        254    2    1    2    0    0 -0.17811644409E+02 -0.11006340492E+03  0.99902654603E+03  0.13506087057E+04  0.90203028136E+03 0.  0.
         23    2    4    4    0    0 -0.26506594947E+03 -0.41592225717E+03  0.49493686353E+03  0.70473328706E+03  0.91843483323E+02 0.  0.
         23    2    4    4    0    0  0.24725430506E+03  0.30585885225E+03  0.50408968249E+03  0.64587541865E+03  0.91456653918E+02 0.  0.
         11    1    3    3    0    0 -0.15358501921E+02 -0.56607110384E+01 -0.47509395971E+02  0.50250073992E+02  0.00000000000E+00 0.  1.
        -11    1    3    3    0    0  0.33170146330E+02  0.11572411596E+03 -0.10941855179E+03  0.16267989764E+03  0.00000000000E+00 0. -1.
          4    1    5    5  502    0 -0.18495756685E+02 -0.66398845990E+02  0.10697522204E+03  0.12725799737E+03  0.00000000000E+00 0. -1.
          3    1    6    6  503    0  0.30933917473E+02  0.26824900911E+02  0.10677029272E+03  0.11435199153E+03  0.00000000000E+00 0. -1.
         -4    1    5    5    0  502 -0.24657019279E+03 -0.34952341118E+03  0.38796164150E+03  0.57747528969E+03  0.00000000000E+00 0.  1.
         -3    1    6    6    0  503  0.21632038759E+03  0.27903395134E+03  0.39731938977E+03  0.53152342712E+03  0.00000000000E+00 0.  1.
<mgrwt>
<rscale>  0 0.13173926E+04</rscale>
<asrwt>0</asrwt>
<pdfrwt beam="1">  1        2 0.18504902E+00 0.13173926E+04</pdfrwt>
<pdfrwt beam="2">  1       -2 0.55495391E-01 0.13173926E+04</pdfrwt>
<totfact> 0.56357985E+01</totfact>
</mgrwt>
</event>
<event>
12    1  0.4403484E-008  0.1245069E+04  0.7818608E-02  0.9074297E-01
          1   -1    0    0  501    0  0.00000000000E+00  0.00000000000E+00  0.83154536113E+03  0.83154536113E+03  0.00000000000E+00 0. -1.
         -1   -1    0    0    0  501 -0.00000000000E+00 -0.00000000000E+00 -0.46605922507E+03  0.46605922507E+03  0.00000000000E+00 0.  1.
         23    2    1    2    0    0 -0.17200068143E+03  0.61438500475E+02  0.31835488314E+03  0.37930132102E+03  0.95711737776E+02 0.  0.
        254    2    1    2    0    0  0.17200068143E+03 -0.61438500475E+02  0.47131252921E+02  0.91830326518E+03  0.89872165218E+03 0.  0.
         23    2    4    4    0    0  0.36007811738E+02 -0.44052276863E+03  0.17855456011E+03  0.48553398422E+03  0.92220641428E+02 0.  0.
         23    2    4    4    0    0  0.13599286969E+03  0.37908426816E+03 -0.13142330718E+03  0.43276928097E+03  0.88420709702E+02 0.  0.
         13    1    3    3    0    0 -0.16090118231E+03  0.56030502864E+02  0.21082161334E+03  0.27106154351E+03  0.00000000000E+00 0. -1.
        -13    1    3    3    0    0 -0.11099499124E+02  0.54079976107E+01  0.10753326981E+03  0.10823977751E+03  0.00000000000E+00 0.  1.
          4    1    6    6  502    0  0.20262080645E+02  0.18679304605E+03 -0.58311879557E+02  0.19672943161E+03  0.00000000000E+00 0. -1.
          4    1    5    5  503    0  0.48677654086E+02 -0.15632153462E+03  0.93811345052E+02  0.18869685915E+03  0.00000000000E+00 0. -1.
         -4    1    5    5    0  503 -0.12669842349E+02 -0.28420123401E+03  0.84743215053E+02  0.29683712507E+03  0.00000000000E+00 0.  1.
         -4    1    6    6    0  502  0.11573078905E+03  0.19229122211E+03 -0.73111427628E+02  0.23603984935E+03  0.00000000000E+00 0.  1.
<mgrwt>
<rscale>  0 0.12450693E+04</rscale>
<asrwt>0</asrwt>
<pdfrwt beam="1">  1        1 0.12793006E+00 0.12450693E+04</pdfrwt>
<pdfrwt beam="2">  1       -1 0.71701419E-01 0.12450693E+04</pdfrwt>
<totfact> 0.40232920E+01</totfact>
</mgrwt>
</event>
<event>
12    1  0.4403484E-008  0.1528585E+04  0.7818608E-02  0.8865664E-01
         -1   -1    0    0    0  501 -0.00000000000E+00  0.00000000000E+00  0.16051758107E+03  0.16051758107E+03  0.00000000000E+00 0.  1.
          1   -1    0    0  501    0  0.00000000000E+00 -0.00000000000E+00 -0.36391207541E+04  0.36391207541E+04  0.00000000000E+00 0. -1.
         23    2    1    2    0    0 -0.20209027161E+03  0.21084583561E+02 -0.22711908321E+04  0.22820687799E+04  0.90802440089E+02 0.  0.
        254    2    1    2    0    0  0.20209027161E+03 -0.21084583561E+02 -0.12074123409E+04  0.15175695552E+04  0.89659787883E+03 0.  0.
         23    2    4    4    0    0  0.98029013512E+02  0.42672486301E+03 -0.51259290827E+03  0.67990219167E+03  0.88383847098E+02 0.  0.
         23    2    4    4    0    0  0.10406125810E+03 -0.44780944657E+03 -0.69481943268E+03  0.83766736355E+03  0.86893740047E+02 0.  0.
         11    1    3    3    0    0 -0.20290031795E+03  0.35728617389E+02 -0.21790886082E+04  0.21888061210E+04  0.00000000000E+00 0. -1.
        -11    1    3    3    0    0  0.81004633558E+00 -0.14644033829E+02 -0.92102223905E+02  0.93262658926E+02  0.00000000000E+00 0.  1.
          3    1    5    5  502    0  0.59567958614E+02  0.28434963371E+03 -0.27363301014E+03  0.39909657995E+03  0.00000000000E+00 0. -1.
          3    1    6    6  503    0  0.69046662077E+02 -0.38155602101E+03 -0.62337081618E+03  0.73412779077E+03  0.00000000000E+00 0. -1.
         -3    1    5    5    0  502  0.38461054898E+02  0.14237522930E+03 -0.23895989813E+03  0.28080561172E+03  0.00000000000E+00 0.  1.
         -3    1    6    6    0  503  0.35014596020E+02 -0.66253425558E+02 -0.71448616498E+02  0.10353957278E+03  0.00000000000E+00 0.  1.
<mgrwt>
<rscale>  0 0.15285848E+04</rscale>
<asrwt>0</asrwt>
<pdfrwt beam="1">  1        1 0.55986466E+00 0.15285848E+04</pdfrwt>
<pdfrwt beam="2">  1       -1 0.24695016E-01 0.15285848E+04</pdfrwt>
<totfact> 0.27051975E+00</totfact>
</mgrwt>
</event>
<event>
12    1  0.4403484E-008  0.1916629E+04  0.7818608E-02  0.8646623E-01
         -2   -1    0    0    0  501 -0.00000000000E+00  0.00000000000E+00  0.44930656255E+03  0.44930656255E+03  0.00000000000E+00 0. -1.
          2   -1    0    0  501    0  0.00000000000E+00 -0.00000000000E+00 -0.20439637847E+04  0.20439637847E+04  0.00000000000E+00 0.  1.
         23    2    1    2    0    0 -0.56273102426E+03  0.24347265366E+03 -0.11238085156E+04  0.12836952596E+04  0.94777640086E+02 0.  0.
        254    2    1    2    0    0  0.56273102426E+03 -0.24347265366E+03 -0.47084870661E+03  0.12095750877E+04  0.93028396177E+03 0.  0.
         23    2    4    4    0    0  0.27394955357E+03 -0.50136581029E+03 -0.55692279850E+03  0.80294943574E+03  0.90270478188E+02 0.  0.
         23    2    4    4    0    0  0.28878147069E+03  0.25789315663E+03  0.86074091893E+02  0.40662565196E+03  0.89621724415E+02 0.  0.
         11    1    3    3    0    0 -0.64210024038E+02  0.49171351770E+02 -0.10096965058E+03  0.12936622187E+03  0.00000000000E+00 0. -1.
        -11    1    3    3    0    0 -0.49852100022E+03  0.19430130189E+03 -0.10228388650E+04  0.11543290377E+04  0.00000000000E+00 0.  1.
          2    1    5    5  502    0 -0.78958107220E+00  0.13223748059E+01 -0.12682631451E+02  0.12775807369E+02  0.00000000000E+00 0. -1.
          3    1    6    6  503    0  0.15164468239E+03  0.82315055806E+02  0.17023881297E+02  0.17338307485E+03  0.00000000000E+00 0. -1.
         -2    1    5    5    0  502  0.27473913465E+03 -0.50268818510E+03 -0.54424016705E+03  0.79017362837E+03  0.00000000000E+00 0.  1.
         -3    1    6    6    0  503  0.13713678830E+03  0.17557810082E+03  0.69050210596E+02  0.23324257711E+03  0.00000000000E+00 0.  1.
<mgrwt>
<rscale>  0 0.19166286E+04</rscale>
<asrwt>0</asrwt>
<pdfrwt beam="1">  1        2 0.31445597E+00 0.19166286E+04</pdfrwt>
<pdfrwt beam="2">  1       -2 0.69124086E-01 0.19166286E+04</pdfrwt>
<totfact> 0.11285123E+01</totfact>
</mgrwt>
</event>
<event>
12    1  0.4403484E-008  0.1708523E+04  0.7818608E-02  0.8756518E-01
          1   -1    0    0  501    0  0.00000000000E+00  0.00000000000E+00  0.64114793244E+03  0.64114793244E+03  0.00000000000E+00 0. -1.
         -1   -1    0    0    0  501 -0.00000000000E+00 -0.00000000000E+00 -0.11382122033E+04  0.11382122033E+04  0.00000000000E+00 0.  1.
         23    2    1    2    0    0  0.58141813511E+03 -0.65694791306E+02  0.10012385881E+02  0.59234345642E+03  0.91693342417E+02 0.  0.
        254    2    1    2    0    0 -0.58141813511E+03  0.65694791306E+02 -0.50707665678E+03  0.11870166794E+04  0.89973274242E+03 0.  0.
         23    2    4    4    0    0 -0.33428721638E+03 -0.33000355455E+03 -0.52655222309E+03  0.71116904509E+03  0.88622107880E+02 0.  0.
         23    2    4    4    0    0 -0.24713091874E+03  0.39569834586E+03  0.19475566302E+02  0.47584763427E+03  0.91655886036E+02 0.  0.
         13    1    3    3    0    0  0.33322445509E+03 -0.28819044984E+01 -0.23878502657E+02  0.33409134339E+03  0.00000000000E+00 0.  1.
        -13    1    3    3    0    0  0.24819368003E+03 -0.62812886808E+02  0.33890888539E+02  0.25825211302E+03  0.00000000000E+00 0. -1.
          4    1    6    6  502    0 -0.12861723096E+03  0.28343811718E+03 -0.15408174926E+01  0.31125862637E+03  0.00000000000E+00 0.  1.
          4    1    5    5  503    0 -0.21115246064E+03 -0.24371170949E+03 -0.40582743686E+03  0.51834030085E+03  0.00000000000E+00 0. -1.
         -4    1    5    5    0  503 -0.12313475574E+03 -0.86291845066E+02 -0.12072478622E+03  0.19282874424E+03  0.00000000000E+00 0.  1.
         -4    1    6    6    0  502 -0.11851368778E+03  0.11226022868E+03  0.21016383795E+02  0.16458900790E+03  0.00000000000E+00 0. -1.
<mgrwt>
<rscale>  0 0.17085226E+04</rscale>
<asrwt>0</asrwt>
<pdfrwt beam="1">  1        1 0.98638143E-01 0.17085226E+04</pdfrwt>
<pdfrwt beam="2">  1       -1 0.17510957E+00 0.17085226E+04</pdfrwt>
<totfact> 0.66723993E+00</totfact>
</mgrwt>
</event>
<event>
12    1  0.4403484E-008  0.2945361E+04  0.7818608E-02  0.8259508E-01
         -1   -1    0    0    0  501 -0.00000000000E+00  0.00000000000E+00  0.14178370511E+04  0.14178370511E+04  0.00000000000E+00 0.  1.
          1   -1    0    0  501    0  0.00000000000E+00 -0.00000000000E+00 -0.15296448417E+04  0.15296448417E+04  0.00000000000E+00 0. -1.
         23    2    1    2    0    0 -0.62078517717E+03  0.11524459739E+04 -0.30099046516E+03  0.13463020472E+04  0.91804048609E+02 0.  0.
        254    2    1    2    0    0  0.62078517717E+03 -0.11524459739E+04  0.18918267454E+03  0.16011798456E+04  0.90248593057E+03 0.  0.
         23    2    4    4    0    0  0.79069528983E+02  0.45678955057E+02  0.25033008574E+03  0.28174336329E+03  0.91518378391E+02 0.  0.
         23    2    4    4    0    0  0.54171564818E+03 -0.11981249289E+04 -0.61147411201E+02  0.13194364823E+04  0.90633527278E+02 0.  0.
         13    1    3    3    0    0 -0.46272813966E+03  0.80271600823E+03 -0.24562237216E+03  0.95854090722E+03  0.00000000000E+00 0. -1.
        -13    1    3    3    0    0 -0.15805703751E+03  0.34972996562E+03 -0.55368092999E+02  0.38776113999E+03  0.00000000000E+00 0.  1.
          4    1    5    5  502    0  0.66832588722E+02  0.61505931209E+01  0.70997893501E+02  0.97699158607E+02  0.00000000000E+00 0. -1.
          3    1    6    6  503    0  0.10844063323E+03 -0.16773257089E+03 -0.22368612791E+02  0.20098243981E+03  0.00000000000E+00 0. -1.
         -4    1    5    5    0  502  0.12236940261E+02  0.39528361936E+02  0.17933219224E+03  0.18404420469E+03  0.00000000000E+00 0.  1.
         -3    1    6    6    0  503  0.43327501496E+03 -0.10303923580E+04 -0.38778798410E+02  0.11184540425E+04  0.00000000000E+00 0.  1.
<mgrwt>
<rscale>  0 0.29453605E+04</rscale>
<asrwt>0</asrwt>
<pdfrwt beam="1">  1        1 0.23532998E+00 0.29453605E+04</pdfrwt>
<pdfrwt beam="2">  1       -1 0.21812878E+00 0.29453605E+04</pdfrwt>
<totfact> 0.60437730E-01</totfact>
</mgrwt>
</event>
<event>
12    1  0.4403484E-008  0.1071899E+04  0.7818608E-02  0.9233023E-01
          2   -1    0    0  501    0  0.00000000000E+00  0.00000000000E+00  0.21075465026E+04  0.21075465026E+04  0.00000000000E+00 0. -1.
         -2   -1    0    0    0  501 -0.00000000000E+00 -0.00000000000E+00 -0.13629196096E+03  0.13629196096E+03  0.00000000000E+00 0.  1.
         23    2    1    2    0    0  0.93901520544E+02  0.77865376608E+01  0.15459732840E+03  0.20164601435E+03  0.88784319709E+02 0.  0.
        254    2    1    2    0    0 -0.93901520544E+02 -0.77865376608E+01  0.18166572133E+04  0.20421924492E+04  0.92813169512E+03 0.  0.
         23    2    4    4    0    0 -0.74859058004E+02 -0.21724388923E+03  0.40095833693E+02  0.25097186291E+03  0.92630524791E+02 0.  0.
         23    2    4    4    0    0 -0.19042462540E+02  0.20945735156E+03  0.17765613796E+04  0.17912205863E+04  0.89810110765E+02 0.  0.
         13    1    3    3    0    0  0.18648840362E+02 -0.26332746499E+00  0.11447893676E+03  0.11598825609E+03  0.00000000000E+00 0. -1.
        -13    1    3    3    0    0  0.75252680182E+02  0.80498651258E+01  0.40118391637E+02  0.85657758263E+02  0.00000000000E+00 0.  1.
          2    1    5    5  502    0 -0.60794201682E+02 -0.10157866032E+03 -0.19696107333E+02  0.12000873233E+03  0.00000000000E+00 0. -1.
          1    1    6    6  503    0 -0.47018813467E+02  0.17387743510E+03  0.12819079636E+04  0.12945007371E+04  0.00000000000E+00 0. -1.
         -2    1    5    5    0  502 -0.14064856322E+02 -0.11566522890E+03  0.59791941026E+02  0.13096313058E+03  0.00000000000E+00 0.  1.
         -1    1    6    6    0  503  0.27976350927E+02  0.35579916461E+02  0.49465341600E+03  0.49671984924E+03  0.00000000000E+00 0.  1.
<mgrwt>
<rscale>  0 0.10718986E+04</rscale>
<asrwt>0</asrwt>
<pdfrwt beam="1">  1        2 0.32423790E+00 0.10718986E+04</pdfrwt>
<pdfrwt beam="2">  1       -2 0.20967996E-01 0.10718986E+04</pdfrwt>
<totfact> 0.11422130E+02</totfact>
</mgrwt>
</event>
<event>
12    1  0.4403484E-008  0.3545929E+04  0.7818608E-02  0.8102991E-01
         -2   -1    0    0    0  501 -0.00000000000E+00  0.00000000000E+00  0.16980146581E+04  0.16980146581E+04  0.00000000000E+00 0.  1.
          2   -1    0    0  501    0  0.00000000000E+00 -0.00000000000E+00 -0.18512228942E+04  0.18512228942E+04  0.00000000000E+00 0. -1.
         23    2    1    2    0    0 -0.12953425424E+04  0.93074099551E+03  0.36565978721E+03  0.16390729213E+04  0.93069105872E+02 0.  0.
        254    2    1    2    0    0  0.12953425424E+04 -0.93074099551E+03 -0.51886802328E+03  0.19101646311E+04  0.91395502591E+03 0.  0.
         23    2    4    4    0    0  0.32390651287E+03  0.16162785919E+03 -0.96721687106E+02  0.38591614383E+03  0.92396922900E+02 0.  0.
         23    2    4    4    0    0  0.97143602948E+03 -0.10923688547E+04 -0.42214633617E+03  0.15242484872E+04  0.90378357972E+02 0.  0.
         13    1    3    3    0    0 -0.25757652441E+03  0.18073400157E+03  0.11036287450E+03  0.33345225943E+03  0.00000000000E+00 0. -1.
        -13    1    3    3    0    0 -0.10377660179E+04  0.75000699394E+03  0.25529691271E+03  0.13056206618E+04  0.00000000000E+00 0.  1.
          2    1    5    5  502    0  0.27806883555E+03  0.16622648635E+03 -0.10176598227E+03  0.33957302192E+03  0.00000000000E+00 0. -1.
          2    1    6    6  503    0  0.34771912472E+03 -0.33907154565E+03 -0.11426237181E+03  0.49893285358E+03  0.00000000000E+00 0. -1.
         -2    1    5    5    0  502  0.45837677327E+02 -0.45986271666E+01  0.50442951595E+01  0.46343121909E+02  0.00000000000E+00 0.  1.
         -2    1    6    6    0  503  0.62371690476E+03 -0.75329730904E+03 -0.30788396436E+03  0.10253156336E+04  0.00000000000E+00 0.  1.
<mgrwt>
<rscale>  0 0.35459293E+04</rscale>
<asrwt>0</asrwt>
<pdfrwt beam="1">  1        2 0.28480352E+00 0.35459293E+04</pdfrwt>
<pdfrwt beam="2">  1       -2 0.26123302E+00 0.35459293E+04</pdfrwt>
<totfact> 0.36279460E-01</totfact>
</mgrwt>
</event>
<event>
12    1  0.4403484E-008  0.1658920E+04  0.7818608E-02  0.8785147E-01
          1   -1    0    0  501    0  0.00000000000E+00  0.00000000000E+00  0.81166454145E+03  0.81166454145E+03  0.00000000000E+00 0. -1.
         -1   -1    0    0    0  501 -0.00000000000E+00 -0.00000000000E+00 -0.84764589733E+03  0.84764589733E+03  0.00000000000E+00 0.  1.
         23    2    1    2    0    0 -0.85814589956E+02  0.16575712435E+03 -0.56202000883E+03  0.59914428525E+03  0.90927532168E+02 0.  0.
        254    2    1    2    0    0  0.85814589956E+02 -0.16575712435E+03  0.52603865295E+03  0.10601661535E+04  0.90133015071E+03 0.  0.
         23    2    4    4    0    0  0.39044973070E+02  0.35939893431E+03  0.13095940876E+03  0.39508827067E+03  0.90842011049E+02 0.  0.
         23    2    4    4    0    0  0.46769616886E+02 -0.52515605866E+03  0.39507924419E+03  0.66507788286E+03  0.90910384841E+02 0.  0.
         13    1    3    3    0    0 -0.66232020677E+02  0.16876151241E+03 -0.53951959925E+03  0.56916476227E+03  0.00000000000E+00 0.  1.
        -13    1    3    3    0    0 -0.19582569279E+02 -0.30043880603E+01 -0.22500409580E+02  0.29979522986E+02  0.00000000000E+00 0. -1.
          1    1    5    5  502    0  0.29009795939E+02  0.28878776477E+02  0.49991626602E+01  0.41237648072E+02  0.00000000000E+00 0. -1.
          3    1    6    6  503    0  0.28393844026E+02 -0.39564907338E+03  0.34260819848E+03  0.52414194386E+03  0.00000000000E+00 0. -1.
         -1    1    5    5    0  502  0.10035177132E+02  0.33052015784E+03  0.12596024610E+03  0.35385062260E+03  0.00000000000E+00 0.  1.
         -3    1    6    6    0  503  0.18375772859E+02 -0.12950698528E+03  0.52471045701E+02  0.14093593900E+03  0.00000000000E+00 0.  1.
<mgrwt>
<rscale>  0 0.16589203E+04</rscale>
<asrwt>0</asrwt>
<pdfrwt beam="1">  1        1 0.12487147E+00 0.16589203E+04</pdfrwt>
<pdfrwt beam="2">  1       -1 0.13040706E+00 0.16589203E+04</pdfrwt>
<totfact> 0.10379121E+01</totfact>
</mgrwt>
</event>
<event>
12    1  0.4403484E-008  0.1426215E+04  0.7818608E-02  0.8935058E-01
         -2   -1    0    0    0  501 -0.00000000000E+00  0.00000000000E+00  0.39817425934E+03  0.39817425934E+03  0.00000000000E+00 0.  1.
          2   -1    0    0  501    0  0.00000000000E+00 -0.00000000000E+00 -0.12771356290E+04  0.12771356290E+04  0.00000000000E+00 0. -1.
         23    2    1    2    0    0  0.29429312594E+03 -0.28122496311E+03 -0.44375125330E+03  0.60903486151E+03  0.91172166141E+02 0.  0.
        254    2    1    2    0    0 -0.29429312594E+03  0.28122496311E+03 -0.43521011640E+03  0.10662750269E+04  0.88421641222E+03 0.  0.
         23    2    4    4    0    0 -0.58176486877E+03  0.21914294913E+03 -0.42285209188E+03  0.75750651802E+03  0.92402589514E+02 0.  0.
         23    2    4    4    0    0  0.28747174282E+03  0.62082013979E+02 -0.12358024525E+02  0.30876850885E+03  0.93226025891E+02 0.  0.
         13    1    3    3    0    0  0.68529203649E+02 -0.68297594183E+02 -0.16810308802E+03  0.19395736987E+03  0.00000000000E+00 0. -1.
        -13    1    3    3    0    0  0.22576392229E+03 -0.21292736893E+03 -0.27564816527E+03  0.41507749164E+03  0.00000000000E+00 0.  1.
          4    1    5    5  502    0 -0.52287525916E+03  0.19326869403E+03 -0.34127520023E+03  0.65362075168E+03  0.00000000000E+00 0. -1.
          1    1    6    6  503    0  0.23202541041E+03  0.39130002905E+02 -0.46317025860E+02  0.23981704503E+03  0.00000000000E+00 0. -1.
         -4    1    5    5    0  502 -0.58889609604E+02  0.25874255104E+02 -0.81576891649E+02  0.10388576634E+03  0.00000000000E+00 0.  1.
         -1    1    6    6    0  503  0.55446332412E+02  0.22952011074E+02  0.33959001335E+02  0.68951463813E+02  0.00000000000E+00 0.  1.
<mgrwt>
<rscale>  0 0.14262153E+04</rscale>
<asrwt>0</asrwt>
<pdfrwt beam="1">  1        2 0.19648240E+00 0.14262153E+04</pdfrwt>
<pdfrwt beam="2">  1       -2 0.61257579E-01 0.14262153E+04</pdfrwt>
<totfact> 0.41047023E+01</totfact>
</mgrwt>
</event>
<event>
12    1  0.4403484E-008  0.1260190E+04  0.7818608E-02  0.9061744E-01
          1   -1    0    0  501    0  0.00000000000E+00  0.00000000000E+00  0.13751283252E+04  0.13751283252E+04  0.00000000000E+00 0. -1.
         -1   -1    0    0    0  501 -0.00000000000E+00 -0.00000000000E+00 -0.28871481189E+03  0.28871481189E+03  0.00000000000E+00 0.  1.
         23    2    1    2    0    0 -0.25205165762E+03  0.70676746567E+02  0.18502763637E+03  0.33315662558E+03  0.90735165921E+02 0.  0.
        254    2    1    2    0    0  0.25205165762E+03 -0.70676746567E+02  0.90138587694E+03  0.13306865115E+04  0.94324167219E+03 0.  0.
         23    2    4    4    0    0 -0.57370338439E+02 -0.34069020217E+02  0.98770740689E+03  0.99420781537E+03  0.91821591385E+02 0.  0.
         23    2    4    4    0    0  0.30942199606E+03 -0.36607726350E+02 -0.86321529947E+02  0.33647869614E+03  0.93190177337E+02 0.  0.
         13    1    3    3    0    0 -0.19263241973E+03  0.52688799514E+02  0.18326018157E+03  0.27104917058E+03  0.00000000000E+00 0.  1.
        -13    1    3    3    0    0 -0.59419237885E+02  0.17987947054E+02  0.17674548073E+01  0.62107455000E+02  0.00000000000E+00 0. -1.
          2    1    5    5  502    0 -0.67209009694E+02 -0.14018778766E+02  0.38411830043E+03  0.39020564561E+03  0.00000000000E+00 0. -1.
          1    1    6    6  503    0  0.14479564124E+03  0.26948083423E+02 -0.23407254468E+02  0.14913040094E+03  0.00000000000E+00 0. -1.
         -2    1    5    5    0  502  0.98386712550E+01 -0.20050241451E+02  0.60358910646E+03  0.60400216976E+03  0.00000000000E+00 0.  1.
         -1    1    6    6    0  503  0.16462635481E+03 -0.63555809773E+02 -0.62914275479E+02  0.18734829520E+03  0.00000000000E+00 0.  1.
<mgrwt>
<rscale>  0 0.12601903E+04</rscale>
<asrwt>0</asrwt>
<pdfrwt beam="1">  1        1 0.21155820E+00 0.12601903E+04</pdfrwt>
<pdfrwt beam="2">  1       -1 0.44417664E-01 0.12601903E+04</pdfrwt>
<totfact> 0.39544001E+01</totfact>
</mgrwt>
</event>
<event>
12    1  0.4403484E-008  0.1590347E+04  0.7818608E-02  0.8826500E-01
          1   -1    0    0  501    0  0.00000000000E+00  0.00000000000E+00  0.50012370463E+03  0.50012370463E+03  0.00000000000E+00 0. -1.
         -1   -1    0    0    0  501 -0.00000000000E+00 -0.00000000000E+00 -0.12642886938E+04  0.12642886938E+04  0.00000000000E+00 0.  1.
         23    2    1    2    0    0  0.26878336822E+03 -0.45485962346E+03 -0.35518746316E+03  0.64295011233E+03  0.89916277032E+02 0.  0.
        254    2    1    2    0    0 -0.26878336822E+03  0.45485962346E+03 -0.40897752605E+03  0.11214622861E+04  0.90070709242E+03 0.  0.
         23    2    4    4    0    0 -0.57552171697E+03  0.14839162441E+03 -0.23588780188E+03  0.64578544088E+03  0.90279896344E+02 0.  0.
         23    2    4    4    0    0  0.30673834875E+03  0.30646799906E+03 -0.17308972417E+03  0.47567684526E+03  0.91089842782E+02 0.  0.
         13    1    3    3    0    0  0.21633017005E+03 -0.29158764983E+03 -0.26238142266E+03  0.44795771114E+03  0.00000000000E+00 0.  1.
        -13    1    3    3    0    0  0.52453198161E+02 -0.16327197363E+03 -0.92806040508E+02  0.19499240120E+03  0.00000000000E+00 0. -1.
          3    1    5    5  502    0 -0.11078131039E+03  0.44053793657E+02 -0.13062773113E+02  0.11993277913E+03  0.00000000000E+00 0. -1.
          3    1    6    6  503    0  0.55678626118E+02  0.32027485675E+02  0.26710215334E+01  0.64288440649E+02  0.00000000000E+00 0. -1.
         -3    1    5    5    0  502 -0.46474040657E+03  0.10433783075E+03 -0.22282502877E+03  0.52585266175E+03  0.00000000000E+00 0.  1.
         -3    1    6    6    0  503  0.25105972263E+03  0.27444051338E+03 -0.17576074570E+03  0.41138840461E+03  0.00000000000E+00 0.  1.
<mgrwt>
<rscale>  0 0.15903468E+04</rscale>
<asrwt>0</asrwt>
<pdfrwt beam="1">  1        1 0.76942109E-01 0.15903468E+04</pdfrwt>
<pdfrwt beam="2">  1       -1 0.19450595E+00 0.15903468E+04</pdfrwt>
<totfact> 0.69899903E+00</totfact>
</mgrwt>
</event>
<event>
12    1  0.4403484E-008  0.1754768E+04  0.7818608E-02  0.8730730E-01
          2   -1    0    0  501    0  0.00000000000E+00  0.00000000000E+00  0.22904515503E+04  0.22904515503E+04  0.00000000000E+00 0. -1.
         -2   -1    0    0    0  501 -0.00000000000E+00 -0.00000000000E+00 -0.33609194645E+03  0.33609194645E+03  0.00000000000E+00 0.  1.
         23    2    1    2    0    0 -0.11279813563E+03 -0.56271075828E+03  0.11579375798E+04  0.12955403676E+04  0.90766670542E+02 0.  0.
        254    2    1    2    0    0  0.11279813563E+03  0.56271075828E+03  0.79642202397E+03  0.13310031291E+04  0.89884062685E+03 0.  0.
         23    2    4    4    0    0  0.30232660804E+03  0.91336791626E+02  0.74427969945E+03  0.81240483671E+03  0.79407557923E+02 0.  0.
         23    2    4    4    0    0 -0.18952847241E+03  0.47137396665E+03  0.52142324519E+02  0.51859829238E+03  0.90060582711E+02 0.  0.
         13    1    3    3    0    0 -0.81058006721E+02 -0.50620266629E+03  0.97675777804E+03  0.11031170821E+04  0.00000000000E+00 0. -1.
        -13    1    3    3    0    0 -0.31740128911E+02 -0.56508091982E+02  0.18117980180E+03  0.19242328555E+03  0.00000000000E+00 0.  1.
          2    1    5    5  502    0  0.49701771466E+02  0.36674733668E+02  0.92313699783E+02  0.11107259493E+03  0.00000000000E+00 0. -1.
          1    1    6    6  503    0 -0.17070614916E+02  0.89299366694E+02 -0.20394636160E+02  0.93175769220E+02  0.00000000000E+00 0. -1.
         -2    1    5    5    0  502  0.25262483658E+03  0.54662057958E+02  0.65196599966E+03  0.70133224178E+03  0.00000000000E+00 0.  1.
         -1    1    6    6    0  503 -0.17245785750E+03  0.38207459996E+03  0.72536960679E+02  0.42542252316E+03  0.00000000000E+00 0.  1.
<mgrwt>
<rscale>  0 0.17547676E+04</rscale>
<asrwt>0</asrwt>
<pdfrwt beam="1">  1        2 0.35237715E+00 0.17547676E+04</pdfrwt>
<pdfrwt beam="2">  1       -2 0.51706455E-01 0.17547676E+04</pdfrwt>
<totfact> 0.15374536E+01</totfact>
</mgrwt>
</event>
<event>
12    1  0.4403484E-008  0.2004083E+04  0.7818608E-02  0.8604714E-01
         -2   -1    0    0    0  501 -0.00000000000E+00  0.00000000000E+00  0.46916172635E+03  0.46916172635E+03  0.00000000000E+00 0.  1.
          2   -1    0    0  501    0  0.00000000000E+00 -0.00000000000E+00 -0.21401721672E+04  0.21401721672E+04  0.00000000000E+00 0. -1.
         23    2    1    2    0    0  0.16881656611E+03  0.13518729787E+02 -0.16795737621E+04  0.16906050407E+04  0.92171537027E+02 0.  0.
        254    2    1    2    0    0 -0.16881656611E+03 -0.13518729787E+02  0.85633212658E+01  0.91872885285E+03  0.90294384407E+03 0.  0.
         23    2    4    4    0    0  0.96832786767E+02 -0.32097064903E+03  0.25661642668E+03  0.43401296304E+03  0.10058089039E+03 0.  0.
         23    2    4    4    0    0 -0.26564935288E+03  0.30745191924E+03 -0.24805310542E+03  0.48471588981E+03  0.91229871187E+02 0.  0.
         13    1    3    3    0    0  0.54620517954E+02 -0.56175049426E+01 -0.23205863758E+03  0.23846628403E+03  0.00000000000E+00 0.  1.
        -13    1    3    3    0    0  0.11419604816E+03  0.19136234730E+02 -0.14475151245E+04  0.14521387567E+04  0.00000000000E+00 0. -1.
          1    1    5    5  502    0  0.51357683208E+01 -0.52669370553E-01 -0.70132103450E+01  0.86927561596E+01  0.00000000000E+00 0.  1.
          1    1    6    6  503    0 -0.51338245387E+02  0.12224583983E+03 -0.67115915792E+02  0.14860756020E+03  0.00000000000E+00 0. -1.
         -1    1    5    5    0  502  0.91697018446E+02 -0.32091797966E+03  0.26362963703E+03  0.42532020688E+03  0.00000000000E+00 0. -1.
         -1    1    6    6    0  503 -0.21431110749E+03  0.18520607941E+03 -0.18093718963E+03  0.33610832961E+03  0.00000000000E+00 0.  1.
<mgrwt>
<rscale>  0 0.20040827E+04</rscale>
<asrwt>0</asrwt>
<pdfrwt beam="1">  1        2 0.32925726E+00 0.20040827E+04</pdfrwt>
<pdfrwt beam="2">  1       -2 0.72178727E-01 0.20040827E+04</pdfrwt>
<totfact> 0.90059022E+00</totfact>
</mgrwt>
</event>
<event>
12    1  0.4403484E-008  0.1902218E+04  0.7818608E-02  0.8653753E-01
          3   -1    0    0  501    0  0.00000000000E+00  0.00000000000E+00  0.60181778745E+03  0.60181778745E+03  0.00000000000E+00 0. -1.
         -3   -1    0    0    0  501 -0.00000000000E+00 -0.00000000000E+00 -0.15031268416E+04  0.15031268416E+04  0.00000000000E+00 0.  1.
         23    2    1    2    0    0 -0.55540815388E+03  0.33661814840E+03 -0.73419547978E+03  0.98473979632E+03  0.94230932817E+02 0.  0.
        254    2    1    2    0    0  0.55540815388E+03 -0.33661814840E+03 -0.16711357439E+03  0.11202048328E+04  0.89729701067E+03 0.  0.
         23    2    4    4    0    0 -0.23844770216E+03 -0.89842210949E+02 -0.61418271450E+02  0.27699252491E+03  0.89575249122E+02 0.  0.
         23    2    4    4    0    0  0.79385585603E+03 -0.24677593745E+03 -0.10569530294E+03  0.84321230785E+03  0.93434552421E+02 0.  0.
         13    1    3    3    0    0 -0.46223280046E+03  0.31632517022E+03 -0.64377498123E+03  0.85332701914E+03  0.00000000000E+00 0.  1.
        -13    1    3    3    0    0 -0.93175353414E+02  0.20292978173E+02 -0.90420498550E+02  0.13141277718E+03  0.00000000000E+00 0. -1.
          4    1    5    5  502    0 -0.72453613849E+02 -0.62692601996E+01  0.17953257219E+02  0.74907604607E+02  0.00000000000E+00 0. -1.
          3    1    6    6  503    0  0.30917675613E+03 -0.14417822092E+03 -0.43717724211E+02  0.34393148347E+03  0.00000000000E+00 0. -1.
         -4    1    5    5    0  502 -0.16599408831E+03 -0.83572950749E+02 -0.79371528669E+02  0.20208492030E+03  0.00000000000E+00 0.  1.
         -3    1    6    6    0  503  0.48467909991E+03 -0.10259771653E+03 -0.61977578734E+02  0.49928082438E+03  0.00000000000E+00 0.  1.
<mgrwt>
<rscale>  0 0.19022181E+04</rscale>
<asrwt>0</asrwt>
<pdfrwt beam="1">  1        3 0.92587353E-01 0.19022181E+04</pdfrwt>
<pdfrwt beam="2">  1       -3 0.23125028E+00 0.19022181E+04</pdfrwt>
<totfact> 0.24124506E-01</totfact>
</mgrwt>
</event>
<event>
12    1  0.4403484E-008  0.1350722E+04  0.7818608E-02  0.8990282E-01
          2   -1    0    0  501    0  0.00000000000E+00  0.00000000000E+00  0.93491163434E+03  0.93491163434E+03  0.00000000000E+00 0. -1.
         -2   -1    0    0    0  501 -0.00000000000E+00 -0.00000000000E+00 -0.48786699281E+03  0.48786699281E+03  0.00000000000E+00 0.  1.
         23    2    1    2    0    0  0.33176421265E+03  0.10111394785E+03  0.24805617142E+03  0.43501925342E+03  0.86129921739E+02 0.  0.
        254    2    1    2    0    0 -0.33176421265E+03 -0.10111394785E+03  0.19898847011E+03  0.98775937373E+03  0.90320576056E+03 0.  0.
         23    2    4    4    0    0 -0.27806019948E+03 -0.19064508314E+03  0.52665433041E+03  0.63190286652E+03  0.90958379035E+02 0.  0.
         23    2    4    4    0    0 -0.53704013171E+02  0.89531135290E+02 -0.32766586030E+03  0.35585650721E+03  0.91482197702E+02 0.  0.
         11    1    3    3    0    0  0.18549519496E+03  0.62718325184E+02  0.19056709951E+03  0.27323593300E+03  0.00000000000E+00 0. -1.
        -11    1    3    3    0    0  0.14626901769E+03  0.38395622669E+02  0.57489071911E+02  0.16178332042E+03  0.00000000000E+00 0.  1.
          4    1    5    5  502    0 -0.60638887089E+01 -0.10671663134E+02 -0.19049518289E+00  0.12275643720E+02  0.00000000000E+00 0.  1.
          1    1    6    6  503    0 -0.20626837948E+02  0.26892913369E+02 -0.24350937259E+03  0.24585668543E+03  0.00000000000E+00 0. -1.
         -4    1    5    5    0  502 -0.27199631078E+03 -0.17997342001E+03  0.52684482559E+03  0.61962722280E+03  0.00000000000E+00 0. -1.
         -1    1    6    6    0  503 -0.33077175222E+02  0.62638221921E+02 -0.84156487716E+02  0.10999982178E+03  0.00000000000E+00 0.  1.
<mgrwt>
<rscale>  0 0.13507221E+04</rscale>
<asrwt>0</asrwt>
<pdfrwt beam="1">  1        2 0.14383256E+00 0.13507221E+04</pdfrwt>
<pdfrwt beam="2">  1       -2 0.75056461E-01 0.13507221E+04</pdfrwt>
<totfact> 0.43270607E+01</totfact>
</mgrwt>
</event>
<event>
12    1  0.4403484E-008  0.2052963E+04  0.7818608E-02  0.8582251E-01
          2   -1    0    0  501    0  0.00000000000E+00  0.00000000000E+00  0.12505095216E+04  0.12505095216E+04  0.00000000000E+00 0. -1.
         -2   -1    0    0    0  501 -0.00000000000E+00 -0.00000000000E+00 -0.84258833785E+03  0.84258833785E+03  0.00000000000E+00 0.  1.
         23    2    1    2    0    0 -0.25804115650E+03  0.17364088991E+03 -0.61612636292E+03  0.69567889495E+03  0.87298526339E+02 0.  0.
        254    2    1    2    0    0  0.25804115650E+03 -0.17364088991E+03  0.10240475466E+04  0.13974189645E+04  0.89853769392E+03 0.  0.
         23    2    4    4    0    0  0.35973601329E+03 -0.42264908243E+03  0.95233930336E+03  0.11058734083E+04  0.89239006458E+02 0.  0.
         23    2    4    4    0    0 -0.10169485679E+03  0.24900819252E+03  0.71708243272E+02  0.29154555619E+03  0.86659190746E+02 0.  0.
         11    1    3    3    0    0 -0.21169391971E+03  0.16353308850E+03 -0.45597397389E+03  0.52864889250E+03  0.00000000000E+00 0.  1.
        -11    1    3    3    0    0 -0.46347236790E+02  0.10107801413E+02 -0.16015238903E+03  0.16703000246E+03  0.00000000000E+00 0. -1.
          2    1    5    5  502    0  0.32585540655E+02 -0.14456642360E+02  0.35581558264E+02  0.50367243885E+02  0.00000000000E+00 0. -1.
          4    1    6    6  503    0 -0.40169689232E+01  0.56463707451E+02  0.48234433671E+02  0.74369663775E+02  0.00000000000E+00 0. -1.
         -2    1    5    5    0  502  0.32715047264E+03 -0.40819244007E+03  0.91675774510E+03  0.10555061644E+04  0.00000000000E+00 0.  1.
         -4    1    6    6    0  503 -0.97677887867E+02  0.19254448507E+03  0.23473809601E+02  0.21717589242E+03  0.00000000000E+00 0.  1.
<mgrwt>
<rscale>  0 0.20529635E+04</rscale>
<asrwt>0</asrwt>
<pdfrwt beam="1">  1        2 0.19238608E+00 0.20529635E+04</pdfrwt>
<pdfrwt beam="2">  1       -2 0.12962897E+00 0.20529635E+04</pdfrwt>
<totfact> 0.71541113E+00</totfact>
</mgrwt>
</event>
<event>
12    1  0.4403484E-008  0.1494664E+04  0.7818608E-02  0.8888009E-01
         -1   -1    0    0    0  501 -0.00000000000E+00  0.00000000000E+00  0.17561919581E+04  0.17561919581E+04  0.00000000000E+00 0.  1.
          1   -1    0    0  501    0  0.00000000000E+00 -0.00000000000E+00 -0.31802065282E+03  0.31802065282E+03  0.00000000000E+00 0. -1.
         23    2    1    2    0    0 -0.29971958212E+03  0.20399295776E+02  0.96528410956E+03  0.10152076748E+04  0.92872233034E+02 0.  0.
        254    2    1    2    0    0  0.29971958212E+03 -0.20399295776E+02  0.47288719572E+03  0.10590049361E+04  0.89867747032E+03 0.  0.
         23    2    4    4    0    0  0.27012761968E+03  0.34072244771E+03  0.51834203365E+03  0.68288532173E+03  0.92699414756E+02 0.  0.
         23    2    4    4    0    0  0.29591962435E+02 -0.36112174349E+03 -0.45454837931E+02  0.37611961438E+03  0.90084539015E+02 0.  0.
         11    1    3    3    0    0 -0.12741407172E+02 -0.20885763879E+02  0.79727020080E+02  0.83396380739E+02  0.00000000000E+00 0. -1.
        -11    1    3    3    0    0 -0.28697817495E+03  0.41285059655E+02  0.88555708948E+03  0.93181129408E+03  0.00000000000E+00 0.  1.
          4    1    5    5  502    0  0.25062960904E+03  0.31670184490E+03  0.51054981118E+03  0.65098108205E+03  0.00000000000E+00 0. -1.
          1    1    6    6  503    0 -0.20541611882E+02 -0.15046786030E+03 -0.48938867000E+02  0.15955421494E+03  0.00000000000E+00 0. -1.
         -4    1    5    5    0  502  0.19498010645E+02  0.24020602808E+02  0.77922224656E+01  0.31904239676E+02  0.00000000000E+00 0.  1.
         -1    1    6    6    0  503  0.50133574317E+02 -0.21065388319E+03  0.34840290690E+01  0.21656539944E+03  0.00000000000E+00 0.  1.
<mgrwt>
<rscale>  0 0.14946643E+04</rscale>
<asrwt>0</asrwt>
<pdfrwt beam="1">  1        1 0.48926255E-01 0.14946643E+04</pdfrwt>
<pdfrwt beam="2">  1       -1 0.27018337E+00 0.14946643E+04</pdfrwt>
<totfact> 0.40560870E+00</totfact>
</mgrwt>
</event>
<event>
12    1  0.4403484E-008  0.4287119E+04  0.7818608E-02  0.7949004E-01
         -1   -1    0    0    0  501 -0.00000000000E+00  0.00000000000E+00  0.15197235807E+04  0.15197235807E+04  0.00000000000E+00 0.  1.
          1   -1    0    0  501    0  0.00000000000E+00 -0.00000000000E+00 -0.30234753105E+04  0.30234753105E+04  0.00000000000E+00 0. -1.
         23    2    1    2    0    0 -0.62567389872E+03  0.19470822294E+04 -0.59613424738E+03  0.21321915718E+04  0.90927564585E+02 0.  0.
        254    2    1    2    0    0  0.62567389872E+03 -0.19470822294E+04 -0.90761748241E+03  0.24110073194E+04  0.89810342618E+03 0.  0.
         23    2    4    4    0    0  0.55236854896E+03 -0.18874694176E+04 -0.10381408178E+04  0.22255319355E+04  0.87202191686E+02 0.  0.
         23    2    4    4    0    0  0.73305349761E+02 -0.59612811855E+02  0.13052333540E+03  0.18547538388E+03  0.91855404316E+02 0.  0.
         13    1    3    3    0    0 -0.43977777726E+03  0.14828722884E+04 -0.46856604690E+03  0.16161277354E+04  0.00000000000E+00 0.  1.
        -13    1    3    3    0    0 -0.18589612146E+03  0.46420994108E+03 -0.12756820049E+03  0.51606383631E+03  0.00000000000E+00 0. -1.
          1    1    5    5  502    0  0.42757119740E+03 -0.15012262301E+04 -0.86117637243E+03  0.17827288261E+04  0.00000000000E+00 0. -1.
          3    1    6    6  503    0  0.90284662896E+02 -0.51295905580E+02  0.78646983949E+02  0.13026103933E+03  0.00000000000E+00 0. -1.
         -1    1    5    5    0  502  0.12479735156E+03 -0.38624318744E+03 -0.17696444538E+03  0.44280310944E+03  0.00000000000E+00 0.  1.
         -3    1    6    6    0  503 -0.16979313135E+02 -0.83169062748E+01  0.51876351450E+02  0.55214344552E+02  0.00000000000E+00 0.  1.
<mgrwt>
<rscale>  0 0.42871187E+04</rscale>
<asrwt>0</asrwt>
<pdfrwt beam="1">  1        1 0.46515004E+00 0.42871187E+04</pdfrwt>
<pdfrwt beam="2">  1       -1 0.23380363E+00 0.42871187E+04</pdfrwt>
<totfact> 0.39112134E-02</totfact>
</mgrwt>
</event>
<event>
12    1  0.4403484E-008  0.1754231E+04  0.7818608E-02  0.8731025E-01
          2   -1    0    0  501    0  0.00000000000E+00  0.00000000000E+00  0.13743221142E+04  0.13743221142E+04  0.00000000000E+00 0. -1.
         -2   -1    0    0    0  501 -0.00000000000E+00 -0.00000000000E+00 -0.55978981145E+03  0.55978981145E+03  0.00000000000E+00 0.  1.
         23    2    1    2    0    0  0.28955611087E+03 -0.38273562424E+03  0.79878559377E+03  0.93629611448E+03  0.90899338641E+02 0.  0.
        254    2    1    2    0    0 -0.28955611087E+03  0.38273562424E+03  0.15746708994E+02  0.99781581119E+03  0.87467658870E+03 0.  0.
         23    2    4    4    0    0  0.77598972399E+01  0.45022482047E+03  0.31827484786E+03  0.55894465574E+03  0.91420153276E+02 0.  0.
         23    2    4    4    0    0 -0.29731600811E+03 -0.67489196232E+02 -0.30252813887E+03  0.43887115545E+03  0.90183235637E+02 0.  0.
         11    1    3    3    0    0  0.94587269235E+02 -0.19808322681E+03  0.34005284136E+03  0.40474640352E+03  0.00000000000E+00 0.  1.
        -11    1    3    3    0    0  0.19496884164E+03 -0.18465239743E+03  0.45873275241E+03  0.53154971096E+03  0.00000000000E+00 0. -1.
          4    1    5    5  502    0 -0.70846442096E+01  0.12363233525E+01 -0.17197849671E+01  0.73944803294E+01  0.00000000000E+00 0. -1.
          1    1    6    6  503    0 -0.44115213486E+02 -0.44948477272E+02 -0.48423948479E+02  0.79444297821E+02  0.00000000000E+00 0. -1.
         -4    1    5    5    0  502  0.14844541449E+02  0.44898849712E+03  0.31999463283E+03  0.55155017541E+03  0.00000000000E+00 0.  1.
         -1    1    6    6    0  503 -0.25320079463E+03 -0.22540718960E+02 -0.25410419039E+03  0.35942685763E+03  0.00000000000E+00 0.  1.
<mgrwt>
<rscale>  0 0.17542309E+04</rscale>
<asrwt>0</asrwt>
<pdfrwt beam="1">  1        2 0.21143417E+00 0.17542309E+04</pdfrwt>
<pdfrwt beam="2">  1       -2 0.86121510E-01 0.17542309E+04</pdfrwt>
<totfact> 0.16588431E+01</totfact>
</mgrwt>
</event>
<event>
12    1  0.5040641E-008  0.2522577E+04  0.7818608E-02  0.8394986E-01
          2   -1    0    0  501    0  0.00000000000E+00  0.00000000000E+00  0.17233126501E+04  0.17233126501E+04  0.00000000000E+00 0. -1.
         -2   -1    0    0    0  501 -0.00000000000E+00 -0.00000000000E+00 -0.92313399652E+03  0.92313399652E+03  0.00000000000E+00 0.  1.
         23    2    1    2    0    0  0.95813458933E+03 -0.45121073584E+03  0.65788891990E+03  0.12502075929E+04  0.92672406848E+02 0.  0.
        254    2    1    2    0    0 -0.95813458933E+03  0.45121073584E+03  0.14228973369E+03  0.13962390537E+04  0.89867909037E+03 0.  0.
         23    2    4    4    0    0  0.15763676085E+02 -0.11211018007E+03  0.22037873695E+03  0.26493338534E+03  0.93838824638E+02 0.  0.
         23    2    4    4    0    0 -0.97389826541E+03  0.56332091591E+03 -0.78089003263E+02  0.11313056684E+04  0.89142230474E+02 0.  0.
         13    1    3    3    0    0  0.17239685647E+01 -0.91250617689E+01  0.80143887106E+01  0.12266590655E+02  0.00000000000E+00 0.  1.
        -13    1    3    3    0    0  0.95641062076E+03 -0.44208567407E+03  0.64987453118E+03  0.12379410022E+04  0.00000000000E+00 0. -1.
          2    1    5    5  502    0  0.21951905402E+02  0.71206939190E+01  0.15481805124E+02  0.27789867264E+02  0.00000000000E+00 0. -1.
          3    1    6    6  503    0 -0.40517634233E+03  0.19255128077E+03 -0.55507824938E+02  0.45202321040E+03  0.00000000000E+00 0. -1.
         -2    1    5    5    0  502 -0.61882293171E+01 -0.11923087398E+03  0.20489693183E+03  0.23714351807E+03  0.00000000000E+00 0.  1.
         -3    1    6    6    0  503 -0.56872192308E+03  0.37076963514E+03 -0.22581178325E+02  0.67928245800E+03  0.00000000000E+00 0.  1.
<mgrwt>
<rscale>  0 0.25225769E+04</rscale>
<asrwt>0</asrwt>
<pdfrwt beam="1">  1        2 0.26512502E+00 0.25225769E+04</pdfrwt>
<pdfrwt beam="2">  1       -2 0.14202061E+00 0.25225769E+04</pdfrwt>
<totfact> 0.29321773E+00</totfact>
</mgrwt>
</event>
<event>
12    1  0.4403484E-008  0.2802139E+04  0.7818608E-02  0.8302604E-01
          2   -1    0    0  501    0  0.00000000000E+00  0.00000000000E+00  0.36283102209E+04  0.36283102209E+04  0.00000000000E+00 0. -1.
         -2   -1    0    0    0  501 -0.00000000000E+00 -0.00000000000E+00 -0.54102219289E+03  0.54102219289E+03  0.00000000000E+00 0.  1.
         23    2    1    2    0    0  0.96952248249E+02  0.99368994648E+03  0.25627203746E+03  0.10350813022E+04  0.94331844117E+02 0.  0.
        254    2    1    2    0    0 -0.96952248249E+02 -0.99368994648E+03  0.28310159906E+04  0.31342511116E+04  0.90114318704E+03 0.  0.
         23    2    4    4    0    0 -0.28103200292E+03 -0.21482125740E+02  0.33264469845E+03  0.44541623395E+03  0.91118920454E+02 0.  0.
         23    2    4    4    0    0  0.18407975467E+03 -0.97220782074E+03  0.24983712921E+04  0.26888348777E+04  0.94342372278E+02 0.  0.
         11    1    3    3    0    0  0.46330164045E+02  0.54085059409E+03  0.91181507175E+02  0.55043611480E+03  0.00000000000E+00 0. -1.
        -11    1    3    3    0    0  0.50622084205E+02  0.45283935239E+03  0.16509053029E+03  0.48464518740E+03  0.00000000000E+00 0.  1.
          4    1    5    5  502    0 -0.37607024701E+02 -0.20805851995E+02  0.99349566647E+02  0.10824743959E+03  0.00000000000E+00 0. -1.
          1    1    6    6  503    0  0.26699876868E+02 -0.26430034297E+03  0.57889563052E+03  0.63693618656E+03  0.00000000000E+00 0. -1.
         -4    1    5    5    0  502 -0.24342497822E+03 -0.67627374498E+00  0.23329513180E+03  0.33716879436E+03  0.00000000000E+00 0.  1.
         -1    1    6    6    0  503  0.15737987780E+03 -0.70790747777E+03  0.19194756616E+04  0.20518986911E+04  0.00000000000E+00 0.  1.
<mgrwt>
<rscale>  0 0.28021394E+04</rscale>
<asrwt>0</asrwt>
<pdfrwt beam="1">  1        2 0.55820156E+00 0.28021394E+04</pdfrwt>
<pdfrwt beam="2">  1       -2 0.83234186E-01 0.28021394E+04</pdfrwt>
<totfact> 0.72420973E-01</totfact>
</mgrwt>
</event>
<event>
12    1  0.4403484E-008  0.1232835E+04  0.7818608E-02  0.9084591E-01
          1   -1    0    0  501    0  0.00000000000E+00  0.00000000000E+00  0.17163422142E+04  0.17163422142E+04  0.00000000000E+00 0. -1.
         -1   -1    0    0    0  501 -0.00000000000E+00 -0.00000000000E+00 -0.22138405185E+03  0.22138405185E+03  0.00000000000E+00 0.  1.
         23    2    1    2    0    0 -0.67838513267E+02 -0.30572982102E+02 -0.74287234961E+02  0.13761535845E+03  0.88784134199E+02 0.  0.
        254    2    1    2    0    0  0.67838513267E+02  0.30572982102E+02  0.15692453973E+04  0.18001109076E+04  0.87882386835E+03 0.  0.
         23    2    4    4    0    0 -0.23931703449E+03  0.21702243760E+03  0.12972383264E+04  0.13400084446E+04  0.91782213613E+02 0.  0.
         23    2    4    4    0    0  0.30715554776E+03 -0.18644945550E+03  0.27200707093E+03  0.46010246301E+03  0.92728096366E+02 0.  0.
         11    1    3    3    0    0 -0.51842149838E+00 -0.19947702588E+02  0.15232947412E+02  0.25104228453E+02  0.00000000000E+00 0. -1.
        -11    1    3    3    0    0 -0.67320091769E+02 -0.10625279515E+02 -0.89520182373E+02  0.11251112999E+03  0.00000000000E+00 0.  1.
          2    1    5    5  502    0 -0.21678392508E+03  0.22432451238E+03  0.11929318688E+04  0.12330463092E+04  0.00000000000E+00 0. -1.
          1    1    6    6  503    0  0.24379027919E+03 -0.13124067668E+03  0.15902799977E+03  0.31929253069E+03  0.00000000000E+00 0. -1.
         -2    1    5    5    0  502 -0.22533109414E+02 -0.73020747794E+01  0.10430645751E+03  0.10696213533E+03  0.00000000000E+00 0.  1.
         -1    1    6    6    0  503  0.63365268567E+02 -0.55208778819E+02  0.11297907116E+03  0.14080993232E+03  0.00000000000E+00 0.  1.
<mgrwt>
<rscale>  0 0.12328354E+04</rscale>
<asrwt>0</asrwt>
<pdfrwt beam="1">  1        1 0.26405264E+00 0.12328354E+04</pdfrwt>
<pdfrwt beam="2">  1       -1 0.34059086E-01 0.12328354E+04</pdfrwt>
<totfact> 0.37384316E+01</totfact>
</mgrwt>
</event>
<event>
12    1  0.4403484E-008  0.1243814E+04  0.7818608E-02  0.9075347E-01
          1   -1    0    0  501    0  0.00000000000E+00  0.00000000000E+00  0.14206586691E+04  0.14206586691E+04  0.00000000000E+00 0. -1.
         -1   -1    0    0    0  501 -0.00000000000E+00 -0.00000000000E+00 -0.27224597008E+03  0.27224597008E+03  0.00000000000E+00 0.  1.
         23    2    1    2    0    0  0.10668821230E+03 -0.23336832885E+03  0.14121146573E+03  0.30693185448E+03  0.91778721301E+02 0.  0.
        254    2    1    2    0    0 -0.10668821230E+03  0.23336832885E+03  0.10072012333E+04  0.13859727847E+04  0.91685499619E+03 0.  0.
         23    2    4    4    0    0 -0.44725027596E+02 -0.10097199433E+03 -0.13176370065E+03  0.19412114395E+03  0.90142520411E+02 0.  0.
         23    2    4    4    0    0 -0.61963184707E+02  0.33434032318E+03  0.11389649339E+04  0.11918516407E+04  0.87443266519E+02 0.  0.
         13    1    3    3    0    0  0.10745116860E+03 -0.18785569438E+03  0.80170554233E+02  0.23078742017E+03  0.00000000000E+00 0. -1.
        -13    1    3    3    0    0 -0.76295629892E+00 -0.45512634475E+02  0.61040911498E+02  0.76144434305E+02  0.00000000000E+00 0.  1.
          2    1    5    5  502    0 -0.27740807148E+02 -0.10593078063E+03 -0.13726525677E+03  0.17559223611E+03  0.00000000000E+00 0. -1.
          3    1    6    6  503    0 -0.18281149599E+02  0.26206802335E+03  0.93211217910E+03  0.96842499127E+03  0.00000000000E+00 0. -1.
         -2    1    5    5    0  502 -0.16984220448E+02  0.49587863028E+01  0.55015561198E+01  0.18528907835E+02  0.00000000000E+00 0.  1.
         -3    1    6    6    0  503 -0.43682035107E+02  0.72272299825E+02  0.20685275483E+03  0.22342664947E+03  0.00000000000E+00 0.  1.
<mgrwt>
<rscale>  0 0.12438145E+04</rscale>
<asrwt>0</asrwt>
<pdfrwt beam="1">  1        1 0.21856287E+00 0.12438145E+04</pdfrwt>
<pdfrwt beam="2">  1       -1 0.41883996E-01 0.12438145E+04</pdfrwt>
<totfact> 0.41014149E+01</totfact>
</mgrwt>
</event>
<event>
12    1  0.4403484E-008  0.1395760E+04  0.7818608E-02  0.8956893E-01
          2   -1    0    0  501    0  0.00000000000E+00  0.00000000000E+00  0.45760872241E+04  0.45760872241E+04  0.00000000000E+00 0.  1.
         -2   -1    0    0    0  501 -0.00000000000E+00 -0.00000000000E+00 -0.10643079103E+03  0.10643079103E+03  0.00000000000E+00 0. -1.
         23    2    1    2    0    0  0.22466549800E+03 -0.28209450923E+03  0.73773762636E+03  0.82621671828E+03  0.91243422176E+02 0.  0.
        254    2    1    2    0    0 -0.22466549800E+03  0.28209450923E+03  0.37319188067E+04  0.38563012968E+04  0.90210299526E+03 0.  0.
         23    2    4    4    0    0 -0.47390596667E+03  0.43149147790E+03  0.21525827842E+04  0.22478489791E+04  0.91872897160E+02 0.  0.
         23    2    4    4    0    0  0.24924046867E+03 -0.14939696867E+03  0.15793360224E+04  0.16084523177E+04  0.91522243296E+02 0.  0.
         13    1    3    3    0    0  0.64517499897E+02 -0.11865230371E+03  0.19490807438E+03  0.23712872965E+03  0.00000000000E+00 0. -1.
        -13    1    3    3    0    0  0.16014799810E+03 -0.16344220552E+03  0.54282955198E+03  0.58908798862E+03  0.00000000000E+00 0.  1.
          2    1    5    5  502    0 -0.26340981683E+03  0.25230300694E+03  0.13763821776E+04  0.14238923547E+04  0.00000000000E+00 0. -1.
          3    1    6    6  503    0  0.77043103211E+02 -0.98533259457E+02  0.63774861549E+03  0.64989825321E+03  0.00000000000E+00 0. -1.
         -2    1    5    5    0  502 -0.21049614984E+03  0.17918847096E+03  0.77620060663E+03  0.82395662444E+03  0.00000000000E+00 0.  1.
         -3    1    6    6    0  503  0.17219736546E+03 -0.50863709214E+02  0.94158740695E+03  0.95855406448E+03  0.00000000000E+00 0.  1.
<mgrwt>
<rscale>  0 0.13957601E+04</rscale>
<asrwt>0</asrwt>
<pdfrwt beam="1">  1        2 0.70401327E+00 0.13957601E+04</pdfrwt>
<pdfrwt beam="2">  1       -2 0.16373971E-01 0.13957601E+04</pdfrwt>
<totfact> 0.31825370E+00</totfact>
</mgrwt>
</event>
<event>
12    1  0.4403484E-008  0.2566673E+04  0.7818608E-02  0.8379610E-01
         -2   -1    0    0    0  501 -0.00000000000E+00  0.00000000000E+00  0.58240651221E+03  0.58240651221E+03  0.00000000000E+00 0.  1.
          2   -1    0    0  501    0  0.00000000000E+00 -0.00000000000E+00 -0.28278408917E+04  0.28278408917E+04  0.00000000000E+00 0. -1.
         23    2    1    2    0    0 -0.85185366343E+03  0.42118047791E+03 -0.20317157886E+03  0.97614249216E+03  0.92346173007E+02 0.  0.
        254    2    1    2    0    0  0.85185366343E+03 -0.42118047791E+03 -0.20422628006E+04  0.24341049117E+04  0.92248670215E+03 0.  0.
         23    2    4    4    0    0  0.46418857006E+03  0.17886234807E+03 -0.41351794349E+03  0.65329385071E+03  0.91285254328E+02 0.  0.
         23    2    4    4    0    0  0.38766509338E+03 -0.60004282598E+03 -0.16287448571E+04  0.17808110610E+04  0.90236399626E+02 0.  0.
         13    1    3    3    0    0 -0.80510630818E+02  0.45601958709E+02  0.71895618949E+01  0.92807274031E+02  0.00000000000E+00 0. -1.
        -13    1    3    3    0    0 -0.77134303261E+03  0.37557851920E+03 -0.21036114076E+03  0.88333521813E+03  0.00000000000E+00 0.  1.
          1    1    5    5  502    0  0.34077287164E+03  0.10869661007E+03 -0.24810923716E+03  0.43531516934E+03  0.00000000000E+00 0. -1.
          1    1    6    6  503    0  0.89903090782E+02 -0.11122024407E+03 -0.41319814948E+03  0.43724732035E+03  0.00000000000E+00 0. -1.
         -1    1    5    5    0  502  0.12341569841E+03  0.70165738002E+02 -0.16540870633E+03  0.21797868137E+03  0.00000000000E+00 0.  1.
         -1    1    6    6    0  503  0.29776200260E+03 -0.48882258190E+03 -0.12155467076E+04  0.13435637406E+04  0.00000000000E+00 0.  1.
<mgrwt>
<rscale>  0 0.25666733E+04</rscale>
<asrwt>0</asrwt>
<pdfrwt beam="1">  1        2 0.43505245E+00 0.25666733E+04</pdfrwt>
<pdfrwt beam="2">  1       -2 0.89601000E-01 0.25666733E+04</pdfrwt>
<totfact> 0.21060986E+00</totfact>
</mgrwt>
</event>
<event>
12    1  0.4403484E-008  0.1111775E+04  0.7818608E-02  0.9193791E-01
         -1   -1    0    0    0  501 -0.00000000000E+00  0.00000000000E+00  0.20753025836E+03  0.20753025836E+03  0.00000000000E+00 0.  1.
          1   -1    0    0  501    0  0.00000000000E+00 -0.00000000000E+00 -0.14889915782E+04  0.14889915782E+04  0.00000000000E+00 0. -1.
         23    2    1    2    0    0  0.41494521528E+02  0.12338811465E+03 -0.60239739316E+03  0.62300705238E+03  0.91152322354E+02 0.  0.
        254    2    1    2    0    0 -0.41494521528E+02 -0.12338811465E+03 -0.67906392670E+03  0.10735147842E+04  0.82119410203E+03 0.  0.
         23    2    4    4    0    0 -0.39822647976E+03  0.51655001196E+01 -0.19819136104E+03  0.45439062581E+03  0.92628363122E+02 0.  0.
         23    2    4    4    0    0  0.35673195824E+03 -0.12855361477E+03 -0.48087256567E+03  0.61912415840E+03  0.91063588823E+02 0.  0.
         13    1    3    3    0    0 -0.10537892930E+02  0.37137061851E+02 -0.60072079080E+02  0.71406324898E+02  0.00000000000E+00 0.  1.
        -13    1    3    3    0    0  0.52032414457E+02  0.86251052799E+02 -0.54232531408E+03  0.55160072748E+03  0.00000000000E+00 0. -1.
          4    1    5    5  502    0 -0.95893676657E+02 -0.36830064531E+02 -0.63441267177E+02  0.12073460671E+03  0.00000000000E+00 0. -1.
          1    1    6    6  503    0  0.23643087700E+02 -0.50401378044E+00 -0.75208308983E+02  0.78838692061E+02  0.00000000000E+00 0. -1.
         -4    1    5    5    0  502 -0.30233280311E+03  0.41995564651E+02 -0.13475009386E+03  0.33365601910E+03  0.00000000000E+00 0.  1.
         -1    1    6    6    0  503  0.33308887054E+03 -0.12804960099E+03 -0.40566425668E+03  0.54028546634E+03  0.00000000000E+00 0.  1.
<mgrwt>
<rscale>  0 0.11117748E+04</rscale>
<asrwt>0</asrwt>
<pdfrwt beam="1">  1        1 0.22907563E+00 0.11117748E+04</pdfrwt>
<pdfrwt beam="2">  1       -1 0.31927732E-01 0.11117748E+04</pdfrwt>
<totfact> 0.60585164E+01</totfact>
</mgrwt>
</event>
<event>
12    1  0.4403484E-008  0.1810960E+04  0.7818608E-02  0.8700492E-01
          1   -1    0    0  501    0  0.00000000000E+00  0.00000000000E+00  0.26902284190E+04  0.26902284190E+04  0.00000000000E+00 0. -1.
         -1   -1    0    0    0  501 -0.00000000000E+00 -0.00000000000E+00 -0.30476759335E+03  0.30476759335E+03  0.00000000000E+00 0.  1.
         23    2    1    2    0    0 -0.33786033039E+03  0.18156333795E+03 -0.21941765691E+02  0.39484086711E+03  0.91120912630E+02 0.  0.
        254    2    1    2    0    0  0.33786033039E+03 -0.18156333795E+03  0.24074025914E+04  0.26001551453E+04  0.90449140072E+03 0.  0.
         23    2    4    4    0    0 -0.11934951071E+03  0.26166983850E+03  0.11366100119E+04  0.11759467895E+04  0.90846698176E+02 0.  0.
         23    2    4    4    0    0  0.45720984111E+03 -0.44323317644E+03  0.12707925795E+04  0.14242083558E+04  0.89214197381E+02 0.  0.
         11    1    3    3    0    0 -0.13352966046E+03  0.12257154647E+03 -0.24444440047E+01  0.18127308000E+03  0.00000000000E+00 0. -1.
        -11    1    3    3    0    0 -0.20433066994E+03  0.58991791475E+02 -0.19497321686E+02  0.21356778711E+03  0.00000000000E+00 0.  1.
          2    1    5    5  502    0  0.12564076124E+01  0.20878293616E+02  0.20872390093E+03  0.20976927449E+03  0.00000000000E+00 0. -1.
          1    1    6    6  503    0  0.10199938601E+03 -0.51793338560E+02  0.23108410285E+03  0.25784934992E+03  0.00000000000E+00 0. -1.
         -2    1    5    5    0  502 -0.12060591833E+03  0.24079154488E+03  0.92788611092E+03  0.96617751499E+03  0.00000000000E+00 0.  1.
         -1    1    6    6    0  503  0.35521045510E+03 -0.39143983788E+03  0.10397084767E+04  0.11663590059E+04  0.00000000000E+00 0.  1.
<mgrwt>
<rscale>  0 0.18109605E+04</rscale>
<asrwt>0</asrwt>
<pdfrwt beam="1">  1        1 0.41388128E+00 0.18109605E+04</pdfrwt>
<pdfrwt beam="2">  1       -1 0.46887324E-01 0.18109605E+04</pdfrwt>
<totfact> 0.42690055E+00</totfact>
</mgrwt>
</event>
<event>
12    1  0.4403484E-008  0.1407348E+04  0.7818608E-02  0.8948517E-01
          2   -1    0    0  501    0  0.00000000000E+00  0.00000000000E+00  0.10357798492E+04  0.10357798492E+04  0.00000000000E+00 0. -1.
         -2   -1    0    0    0  501 -0.00000000000E+00 -0.00000000000E+00 -0.47805232405E+03  0.47805232405E+03  0.00000000000E+00 0.  1.
         23    2    1    2    0    0  0.11814257711E+03 -0.15731030033E+03  0.55309979112E+03  0.59416409211E+03  0.91691822435E+02 0.  0.
        254    2    1    2    0    0 -0.11814257711E+03  0.15731030033E+03  0.46277340548E+01  0.91966808116E+03  0.89836727704E+03 0.  0.
         23    2    4    4    0    0  0.20015525403E+03 -0.19307609188E+03 -0.24052304420E+03  0.37873711962E+03  0.90829334590E+02 0.  0.
         23    2    4    4    0    0 -0.31829783114E+03  0.35038639221E+03  0.24515077825E+03  0.54093096153E+03  0.91778363003E+02 0.  0.
         13    1    3    3    0    0  0.81274976527E+02 -0.35788291000E+02  0.25958239893E+03  0.27435277548E+03  0.00000000000E+00 0.  1.
        -13    1    3    3    0    0  0.36867600584E+02 -0.12152200933E+03  0.29351739220E+03  0.31981131663E+03  0.00000000000E+00 0. -1.
          2    1    5    5  502    0  0.10112792644E+03 -0.14851622629E+03 -0.18039772892E+03  0.25461199417E+03  0.00000000000E+00 0. -1.
          2    1    6    6  503    0 -0.13436245367E+03  0.15202562478E+03  0.15657372767E+03  0.25628185995E+03  0.00000000000E+00 0. -1.
         -2    1    5    5    0  502  0.99027327593E+02 -0.44559865586E+02 -0.60125315274E+02  0.12412512545E+03  0.00000000000E+00 0.  1.
         -2    1    6    6    0  503 -0.18393537747E+03  0.19836076743E+03  0.88577050585E+02  0.28464910158E+03  0.00000000000E+00 0.  1.
<mgrwt>
<rscale>  0 0.14073478E+04</rscale>
<asrwt>0</asrwt>
<pdfrwt beam="1">  1        2 0.15935075E+00 0.14073478E+04</pdfrwt>
<pdfrwt beam="2">  1       -2 0.73546512E-01 0.14073478E+04</pdfrwt>
<totfact> 0.38774671E+01</totfact>
</mgrwt>
</event>
<event>
12    1  0.4403484E-008  0.1860089E+04  0.7818608E-02  0.8674982E-01
          2   -1    0    0  501    0  0.00000000000E+00  0.00000000000E+00  0.16342181119E+04  0.16342181119E+04  0.00000000000E+00 0. -1.
         -2   -1    0    0    0  501 -0.00000000000E+00 -0.00000000000E+00 -0.52929448498E+03  0.52929448498E+03  0.00000000000E+00 0.  1.
         23    2    1    2    0    0  0.60576570813E+03 -0.10254794185E+03  0.88940869523E+03  0.10849463654E+04  0.92696359609E+02 0.  0.
        254    2    1    2    0    0 -0.60576570813E+03  0.10254794185E+03  0.21551493173E+03  0.10785662315E+04  0.85987804746E+03 0.  0.
         23    2    4    4    0    0 -0.33417911309E+03  0.45994817865E+03  0.22703586978E+03  0.62058951473E+03  0.10177452021E+03 0.  0.
         23    2    4    4    0    0 -0.27158659504E+03 -0.35740023680E+03 -0.11520938044E+02  0.45797671681E+03  0.90087364591E+02 0.  0.
         13    1    3    3    0    0  0.53574572192E+03 -0.59862449946E+02  0.78219327723E+03  0.94996490168E+03  0.00000000000E+00 0. -1.
        -13    1    3    3    0    0  0.70019986204E+02 -0.42685491908E+02  0.10721541800E+03  0.13498146371E+03  0.00000000000E+00 0.  1.
          4    1    5    5  502    0 -0.16622132291E+03  0.19090891880E+03  0.52300185431E+02  0.25847834119E+03  0.00000000000E+00 0. -1.
          1    1    6    6  503    0 -0.59059790156E+02 -0.31979232118E+02  0.13477588560E+02  0.68500916004E+02  0.00000000000E+00 0. -1.
         -4    1    5    5    0  502 -0.16795779018E+03  0.26903925985E+03  0.17473568435E+03  0.36211117355E+03  0.00000000000E+00 0.  1.
         -1    1    6    6    0  503 -0.21252680489E+03 -0.32542100468E+03 -0.24998526605E+02  0.38947580081E+03  0.00000000000E+00 0.  1.
<mgrwt>
<rscale>  0 0.18600889E+04</rscale>
<asrwt>0</asrwt>
<pdfrwt beam="1">  1        2 0.25141817E+00 0.18600889E+04</pdfrwt>
<pdfrwt beam="2">  1       -2 0.81429921E-01 0.18600889E+04</pdfrwt>
<totfact> 0.13315601E+01</totfact>
</mgrwt>
</event>
<event>
12    1  0.4403484E-008  0.1757150E+04  0.7818608E-02  0.8729424E-01
         -2   -1    0    0    0  501 -0.00000000000E+00  0.00000000000E+00  0.48232629052E+03  0.48232629052E+03  0.00000000000E+00 0.  1.
          2   -1    0    0  501    0  0.00000000000E+00 -0.00000000000E+00 -0.16003572248E+04  0.16003572248E+04  0.00000000000E+00 0. -1.
         23    2    1    2    0    0  0.43065958573E+03  0.46512982352E+03 -0.38846146581E+03  0.74900810618E+03  0.91090071905E+02 0.  0.
        254    2    1    2    0    0 -0.43065958573E+03 -0.46512982352E+03 -0.72956946844E+03  0.13336754091E+04  0.91902396925E+03 0.  0.
         23    2    4    4    0    0  0.20082873665E+03 -0.42084957712E+03 -0.35145327804E+03  0.59067431528E+03  0.89051625846E+02 0.  0.
         23    2    4    4    0    0 -0.63148832238E+03 -0.44280246398E+02 -0.37811619040E+03  0.74300109382E+03  0.91326504630E+02 0.  0.
         11    1    3    3    0    0  0.20360470573E+02  0.11707559948E+02 -0.36632045025E+02  0.43514623342E+02  0.00000000000E+00 0. -1.
        -11    1    3    3    0    0  0.41029911516E+03  0.45342226357E+03 -0.35182942079E+03  0.70549348284E+03  0.00000000000E+00 0.  1.
          1    1    5    5  502    0  0.14329551686E+03 -0.22493411216E+03 -0.23588751853E+03  0.35605039161E+03  0.00000000000E+00 0. -1.
          3    1    6    6  503    0 -0.62174345329E+03 -0.51284664190E+02 -0.35717937616E+03  0.71886865647E+03  0.00000000000E+00 0. -1.
         -1    1    5    5    0  502  0.57533219787E+02 -0.19591546496E+03 -0.11556575950E+03  0.23462392367E+03  0.00000000000E+00 0.  1.
         -3    1    6    6    0  503 -0.97448690889E+01  0.70044177914E+01 -0.20936814239E+02  0.24132437353E+02  0.00000000000E+00 0.  1.
<mgrwt>
<rscale>  0 0.17571504E+04</rscale>
<asrwt>0</asrwt>
<pdfrwt beam="1">  1        2 0.24620880E+00 0.17571504E+04</pdfrwt>
<pdfrwt beam="2">  1       -2 0.74204044E-01 0.17571504E+04</pdfrwt>
<totfact> 0.17263267E+01</totfact>
</mgrwt>
</event>
<event>
12    1  0.4403484E-008  0.1991890E+04  0.7818608E-02  0.8610422E-01
          1   -1    0    0  501    0  0.00000000000E+00  0.00000000000E+00  0.10386928518E+04  0.10386928518E+04  0.00000000000E+00 0. -1.
         -1   -1    0    0    0  501 -0.00000000000E+00 -0.00000000000E+00 -0.95495643639E+03  0.95495643639E+03  0.00000000000E+00 0.  1.
         23    2    1    2    0    0 -0.17270437400E+03  0.76170283631E+03 -0.93145447108E+02  0.79190571064E+03  0.91763656086E+02 0.  0.
        254    2    1    2    0    0  0.17270437400E+03 -0.76170283631E+03  0.17688186249E+03  0.12017435775E+04  0.89603706462E+03 0.  0.
         23    2    4    4    0    0  0.22887841477E+03 -0.94323620181E+03  0.17401074435E+03  0.99054253948E+03  0.93887817127E+02 0.  0.
         23    2    4    4    0    0 -0.56174040771E+02  0.18153336550E+03  0.28711181316E+01  0.21120103804E+03  0.92128982963E+02 0.  0.
         13    1    3    3    0    0 -0.16605713306E+03  0.61534876200E+03 -0.10040467811E+03  0.64522102393E+03  0.00000000000E+00 0.  1.
        -13    1    3    3    0    0 -0.66472409403E+01  0.14635407431E+03  0.72592309979E+01  0.14668468671E+03  0.00000000000E+00 0. -1.
          1    1    5    5  502    0  0.18986170269E+03 -0.86018188956E+03  0.13645490778E+03  0.89139233289E+03  0.00000000000E+00 0. -1.
          3    1    6    6  503    0 -0.45252083129E+02  0.15773399173E+03  0.36967836763E+02  0.16820934614E+03  0.00000000000E+00 0. -1.
         -1    1    5    5    0  502  0.39016712086E+02 -0.83054312252E+02  0.37555836578E+02  0.99150206589E+02  0.00000000000E+00 0.  1.
         -3    1    6    6    0  503 -0.10921957642E+02  0.23799373774E+02 -0.34096718631E+02  0.42991691897E+02  0.00000000000E+00 0.  1.
<mgrwt>
<rscale>  0 0.19918900E+04</rscale>
<asrwt>0</asrwt>
<pdfrwt beam="1">  1        1 0.15979890E+00 0.19918900E+04</pdfrwt>
<pdfrwt beam="2">  1       -1 0.14691638E+00 0.19918900E+04</pdfrwt>
<totfact> 0.48359327E+00</totfact>
</mgrwt>
</event>
<event>
12    1  0.4403484E-008  0.1819888E+04  0.7818608E-02  0.8695794E-01
          1   -1    0    0  501    0  0.00000000000E+00  0.00000000000E+00  0.79308902633E+03  0.79308902633E+03  0.00000000000E+00 0. -1.
         -1   -1    0    0    0  501 -0.00000000000E+00 -0.00000000000E+00 -0.10440168767E+04  0.10440168767E+04  0.00000000000E+00 0.  1.
         23    2    1    2    0    0 -0.52558411953E+03  0.96308562223E+02 -0.52626085653E+03  0.75543303700E+03  0.90634311486E+02 0.  0.
        254    2    1    2    0    0  0.52558411953E+03 -0.96308562223E+02  0.27533300620E+03  0.10816728660E+04  0.89927410664E+03 0.  0.
         23    2    4    4    0    0  0.29384194448E+03  0.38391757960E+03  0.45871986410E+02  0.49429363539E+03  0.92120370093E+02 0.  0.
         23    2    4    4    0    0  0.23174217505E+03 -0.48022614182E+03  0.22946101979E+03  0.58737923061E+03  0.89668377708E+02 0.  0.
         11    1    3    3    0    0 -0.23806343027E+02 -0.90890533533E+01 -0.87661718098E+01  0.26948072795E+02  0.00000000000E+00 0. -1.
        -11    1    3    3    0    0 -0.50177777650E+03  0.10539761558E+03 -0.51749468472E+03  0.72848496420E+03  0.00000000000E+00 0.  1.
          2    1    5    5  502    0  0.72819794151E+02  0.78242140980E+02  0.47776805336E+02  0.11707765873E+03  0.00000000000E+00 0. -1.
          1    1    6    6  503    0  0.12623357398E+03 -0.16288857365E+03  0.79544908628E+02  0.22089589202E+03  0.00000000000E+00 0. -1.
         -2    1    5    5    0  502  0.22102215033E+03  0.30567543862E+03 -0.19048189267E+01  0.37721597666E+03  0.00000000000E+00 0.  1.
         -1    1    6    6    0  503  0.10550860107E+03 -0.31733756817E+03  0.14991611116E+03  0.36648333859E+03  0.00000000000E+00 0.  1.
<mgrwt>
<rscale>  0 0.18198883E+04</rscale>
<asrwt>0</asrwt>
<pdfrwt beam="1">  1        1 0.12201370E+00 0.18198883E+04</pdfrwt>
<pdfrwt beam="2">  1       -1 0.16061798E+00 0.18198883E+04</pdfrwt>
<totfact> 0.61059349E+00</totfact>
</mgrwt>
</event>
<event>
12    1  0.4403484E-008  0.2152092E+04  0.7818608E-02  0.8538637E-01
          2   -1    0    0  501    0  0.00000000000E+00  0.00000000000E+00  0.77199259185E+03  0.77199259185E+03  0.00000000000E+00 0. -1.
         -2   -1    0    0    0  501 -0.00000000000E+00 -0.00000000000E+00 -0.14998527877E+04  0.14998527877E+04  0.00000000000E+00 0.  1.
         23    2    1    2    0    0 -0.34004967726E+03  0.50574522808E+03  0.36865465866E+03  0.71778154233E+03  0.88837303137E+02 0.  0.
        254    2    1    2    0    0  0.34004967726E+03 -0.50574522808E+03 -0.10965148545E+04  0.15540638372E+04  0.91725545256E+03 0.  0.
         23    2    4    4    0    0 -0.20474511545E+03  0.94742583866E+02 -0.92816702613E+02  0.26059361974E+03  0.91637191490E+02 0.  0.
         23    2    4    4    0    0  0.54479479271E+03 -0.60048781195E+03 -0.10036981519E+04  0.12934702175E+04  0.90929890213E+02 0.  0.
         11    1    3    3    0    0 -0.10819454734E+02  0.15214297926E+02 -0.42685103553E+01  0.19150865327E+02  0.00000000000E+00 0.  1.
        -11    1    3    3    0    0 -0.32923022252E+03  0.49053093015E+03  0.37292316901E+03  0.69863067700E+03  0.00000000000E+00 0. -1.
          4    1    5    5  502    0 -0.25476268725E+02  0.39263540827E+02 -0.49255333021E+02  0.67946697767E+02  0.00000000000E+00 0.  1.
          1    1    6    6  503    0  0.35390107458E+03 -0.40786108055E+03 -0.73160278651E+03  0.90930702672E+03  0.00000000000E+00 0. -1.
         -4    1    5    5    0  502 -0.17926884673E+03  0.55479043039E+02 -0.43561369591E+02  0.19264692197E+03  0.00000000000E+00 0. -1.
         -1    1    6    6    0  503  0.19089371813E+03 -0.19262673140E+03 -0.27209536538E+03  0.38416319076E+03  0.00000000000E+00 0.  1.
<mgrwt>
<rscale>  0 0.21520922E+04</rscale>
<asrwt>0</asrwt>
<pdfrwt beam="1">  1        2 0.11876809E+00 0.21520922E+04</pdfrwt>
<pdfrwt beam="2">  1       -2 0.23074658E+00 0.21520922E+04</pdfrwt>
<totfact> 0.28017312E+00</totfact>
</mgrwt>
</event>
<event>
12    1  0.4403484E-008  0.1440604E+04  0.7818608E-02  0.8924941E-01
          2   -1    0    0  501    0  0.00000000000E+00  0.00000000000E+00  0.19691282211E+04  0.19691282211E+04  0.00000000000E+00 0.  1.
         -2   -1    0    0    0  501 -0.00000000000E+00 -0.00000000000E+00 -0.26348448057E+03  0.26348448057E+03  0.00000000000E+00 0. -1.
         23    2    1    2    0    0  0.26077714043E+03 -0.47242326034E+02 -0.71815333733E+01  0.27996284299E+03  0.89950345728E+02 0.  0.
        254    2    1    2    0    0 -0.26077714043E+03  0.47242326034E+02  0.17128252739E+04  0.19526498587E+04  0.89935226543E+03 0.  0.
         23    2    4    4    0    0 -0.15505825405E+02 -0.40502582763E+03  0.81111417769E+03  0.91079737745E+03  0.85786373384E+02 0.  0.
         23    2    4    4    0    0 -0.24527131502E+03  0.45226815366E+03  0.90171109621E+03  0.10418524812E+04  0.87573916264E+02 0.  0.
         11    1    3    3    0    0  0.73629503820E+02 -0.33606709016E+02 -0.38662385494E+02  0.89696682078E+02  0.00000000000E+00 0. -1.
        -11    1    3    3    0    0  0.18714763661E+03 -0.13635617017E+02  0.31480852121E+02  0.19026616091E+03  0.00000000000E+00 0.  1.
          1    1    5    5  502    0 -0.31546938856E+02 -0.16074967864E+03  0.25364690090E+03  0.30194770883E+03  0.00000000000E+00 0.  1.
          3    1    6    6  503    0 -0.21923467256E+03  0.44291373693E+03  0.85617427617E+03  0.98857008410E+03  0.00000000000E+00 0. -1.
         -1    1    5    5    0  502  0.16041113451E+02 -0.24427614899E+03  0.55746727679E+03  0.60884966862E+03  0.00000000000E+00 0. -1.
         -3    1    6    6    0  503 -0.26036642464E+02  0.93544167359E+01  0.45536820039E+02  0.53282397117E+02  0.00000000000E+00 0.  1.
<mgrwt>
<rscale>  0 0.14406037E+04</rscale>
<asrwt>0</asrwt>
<pdfrwt beam="1">  1        2 0.30294279E+00 0.14406037E+04</pdfrwt>
<pdfrwt beam="2">  1       -2 0.40536075E-01 0.14406037E+04</pdfrwt>
<totfact> 0.38880574E+01</totfact>
</mgrwt>
</event>
<event>
12    1  0.4403484E-008  0.1602908E+04  0.7818608E-02  0.8818764E-01
          2   -1    0    0  501    0  0.00000000000E+00  0.00000000000E+00  0.14977827266E+04  0.14977827266E+04  0.00000000000E+00 0.  1.
         -2   -1    0    0    0  501 -0.00000000000E+00 -0.00000000000E+00 -0.42885292081E+03  0.42885292081E+03  0.00000000000E+00 0. -1.
         23    2    1    2    0    0 -0.50312337821E+03 -0.11982153978E+03  0.16990745106E+03  0.55226520022E+03  0.92940703386E+02 0.  0.
        254    2    1    2    0    0  0.50312337821E+03  0.11982153978E+03  0.89902235476E+03  0.13743704472E+04  0.90175528649E+03 0.  0.
         23    2    4    4    0    0  0.52324682835E+03 -0.23552141882E+03  0.80890732032E+03  0.99619340345E+03  0.93875780139E+02 0.  0.
         23    2    4    4    0    0 -0.20123450138E+02  0.35534295860E+03  0.90115034440E+02  0.37817704376E+03  0.90683987147E+02 0.  0.
         11    1    3    3    0    0 -0.13007195134E+03 -0.23734936599E+02  0.86829228134E+02  0.15818146098E+03  0.00000000000E+00 0.  1.
        -11    1    3    3    0    0 -0.37305142688E+03 -0.96086603178E+02  0.83078222921E+02  0.39408373924E+03  0.00000000000E+00 0. -1.
          3    1    5    5  502    0  0.21520076565E+03 -0.51697934705E+02  0.27565914619E+03  0.35351380576E+03  0.00000000000E+00 0. -1.
          3    1    6    6  503    0 -0.16819965709E+02  0.53525287051E+02  0.47173171558E+02  0.73301948918E+02  0.00000000000E+00 0. -1.
         -3    1    5    5    0  502  0.30804606270E+03 -0.18382348412E+03  0.53324817414E+03  0.64267959768E+03  0.00000000000E+00 0.  1.
         -3    1    6    6    0  503 -0.33034844294E+01  0.30181767155E+03  0.42941862881E+02  0.30487509484E+03  0.00000000000E+00 0.  1.
<mgrwt>
<rscale>  0 0.16029080E+04</rscale>
<asrwt>0</asrwt>
<pdfrwt beam="1">  1        2 0.23042811E+00 0.16029080E+04</pdfrwt>
<pdfrwt beam="2">  1       -2 0.65977373E-01 0.16029080E+04</pdfrwt>
<totfact> 0.25799312E+01</totfact>
</mgrwt>
</event>
<event>
12    1  0.4403484E-008  0.1710003E+04  0.7818608E-02  0.8755680E-01
          1   -1    0    0  501    0  0.00000000000E+00  0.00000000000E+00  0.23446780329E+04  0.23446780329E+04  0.00000000000E+00 0. -1.
         -1   -1    0    0    0  501 -0.00000000000E+00 -0.00000000000E+00 -0.31178152714E+03  0.31178152714E+03  0.00000000000E+00 0.  1.
         23    2    1    2    0    0  0.26136581409E+03  0.25162949950E+03  0.13346313157E+04  0.13860849916E+04  0.91440479976E+02 0.  0.
        254    2    1    2    0    0 -0.26136581409E+03 -0.25162949950E+03  0.69826519005E+03  0.12703745684E+04  0.99732029691E+03 0.  0.
         23    2    4    4    0    0  0.77397782376E+02 -0.57339462577E+03  0.37329920546E+03  0.69404092857E+03  0.86998276749E+02 0.  0.
         23    2    4    4    0    0 -0.33876359646E+03  0.32176512626E+03  0.32496598459E+03  0.57633363984E+03  0.90906559155E+02 0.  0.
         11    1    3    3    0    0  0.12181677554E+02 -0.50288682920E+01  0.93689401425E+02  0.94611768421E+02  0.00000000000E+00 0.  1.
        -11    1    3    3    0    0  0.24918413653E+03  0.25665836780E+03  0.12409419142E+04  0.12914732232E+04  0.00000000000E+00 0. -1.
          1    1    5    5  502    0  0.87396745255E+01 -0.66838141325E+02  0.80279896302E+02  0.10482643177E+03  0.00000000000E+00 0. -1.
          3    1    6    6  503    0 -0.27035723317E+02  0.13086647172E+02  0.50783601222E+02  0.59001396784E+02  0.00000000000E+00 0. -1.
         -1    1    5    5    0  502  0.68658107851E+02 -0.50655648444E+03  0.29301930916E+03  0.58921449680E+03  0.00000000000E+00 0.  1.
         -3    1    6    6    0  503 -0.31172787315E+03  0.30867847909E+03  0.27418238337E+03  0.51733224305E+03  0.00000000000E+00 0.  1.
<mgrwt>
<rscale>  0 0.17100027E+04</rscale>
<asrwt>0</asrwt>
<pdfrwt beam="1">  1        1 0.36071969E+00 0.17100027E+04</pdfrwt>
<pdfrwt beam="2">  1       -1 0.47966390E-01 0.17100027E+04</pdfrwt>
<totfact> 0.71690551E+00</totfact>
</mgrwt>
</event>
<event>
12    1  0.4403484E-008  0.1517534E+04  0.7818608E-02  0.8872876E-01
          1   -1    0    0  501    0  0.00000000000E+00  0.00000000000E+00  0.22618336476E+04  0.22618336476E+04  0.00000000000E+00 0. -1.
         -1   -1    0    0    0  501 -0.00000000000E+00 -0.00000000000E+00 -0.25454011263E+03  0.25454011263E+03  0.00000000000E+00 0.  1.
         23    2    1    2    0    0  0.43569612919E+03  0.13697353755E+03  0.38880727109E+03  0.60644915660E+03  0.89535571192E+02 0.  0.
        254    2    1    2    0    0 -0.43569612919E+03 -0.13697353755E+03  0.16184862639E+04  0.19099246036E+04  0.90538463550E+03 0.  0.
         23    2    4    4    0    0  0.13348521612E+03 -0.32308669679E+03  0.90313495673E+03  0.97262504380E+03  0.90240839996E+02 0.  0.
         23    2    4    4    0    0 -0.56918134531E+03  0.18611315924E+03  0.71535130716E+03  0.93729955984E+03  0.90539827245E+02 0.  0.
         13    1    3    3    0    0  0.14841015151E+03  0.47711925795E+02  0.79573784620E+02  0.17502567850E+03  0.00000000000E+00 0. -1.
        -13    1    3    3    0    0  0.28728597768E+03  0.89261611755E+02  0.30923348647E+03  0.43142347810E+03  0.00000000000E+00 0.  1.
          4    1    5    5  502    0  0.66501756320E+01 -0.10673939312E+02  0.11106163758E+03  0.11177139687E+03  0.00000000000E+00 0. -1.
          3    1    6    6  503    0 -0.37025068001E+03  0.15660574815E+03  0.43548379552E+03  0.59266943785E+03  0.00000000000E+00 0. -1.
         -4    1    5    5    0  502  0.12683504049E+03 -0.31241275748E+03  0.79207331914E+03  0.86085364693E+03  0.00000000000E+00 0.  1.
         -3    1    6    6    0  503 -0.19893066530E+03  0.29507411087E+02  0.27986751165E+03  0.34463012198E+03  0.00000000000E+00 0.  1.
<mgrwt>
<rscale>  0 0.15175340E+04</rscale>
<asrwt>0</asrwt>
<pdfrwt beam="1">  1        1 0.34797439E+00 0.15175340E+04</pdfrwt>
<pdfrwt beam="2">  1       -1 0.39160019E-01 0.15175340E+04</pdfrwt>
<totfact> 0.12107475E+01</totfact>
</mgrwt>
</event>
<event>
12    1  0.4403484E-008  0.1429377E+04  0.7818608E-02  0.8932825E-01
          4   -1    0    0  501    0  0.00000000000E+00  0.00000000000E+00  0.55910111961E+03  0.55910111961E+03  0.00000000000E+00 0. -1.
         -4   -1    0    0    0  501 -0.00000000000E+00 -0.00000000000E+00 -0.91357231858E+03  0.91357231858E+03  0.00000000000E+00 0.  1.
         23    2    1    2    0    0 -0.39759053308E+03 -0.30757049313E+02  0.47601655260E+02  0.41495541607E+03  0.10439277594E+03 0.  0.
        254    2    1    2    0    0  0.39759053308E+03  0.30757049313E+02 -0.40207285423E+03  0.10577180221E+04  0.89335357285E+03 0.  0.
         23    2    4    4    0    0  0.40364627637E+03 -0.11098836890E+03 -0.63675269582E+03  0.76883045860E+03  0.10196834793E+03 0.  0.
         23    2    4    4    0    0 -0.60557432907E+01  0.14174541822E+03  0.23467984159E+03  0.28888756351E+03  0.90845807222E+02 0.  0.
         13    1    3    3    0    0  0.76359643361E-01 -0.14079054279E+02  0.34638825453E+01  0.14499106265E+02  0.00000000000E+00 0.  1.
        -13    1    3    3    0    0 -0.39766689272E+03 -0.16677995033E+02  0.44137772715E+02  0.40045630981E+03  0.00000000000E+00 0. -1.
          2    1    5    5  502    0  0.37416022719E+03 -0.70940369457E+02 -0.55353884752E+03  0.67188813603E+03  0.00000000000E+00 0. -1.
          3    1    6    6  503    0 -0.16640392239E+02  0.99756643600E+02  0.22170527235E+03  0.24368323369E+03  0.00000000000E+00 0. -1.
         -2    1    5    5    0  502  0.29486049182E+02 -0.40047999447E+02 -0.83213848303E+02  0.96942322571E+02  0.00000000000E+00 0.  1.
         -3    1    6    6    0  503  0.10584648948E+02  0.41988774617E+02  0.12974569243E+02  0.45204329817E+02  0.00000000000E+00 0.  1.
<mgrwt>
<rscale>  0 0.14293765E+04</rscale>
<asrwt>0</asrwt>
<pdfrwt beam="1">  1        4 0.86015558E-01 0.14293765E+04</pdfrwt>
<pdfrwt beam="2">  1       -4 0.14054959E+00 0.14293765E+04</pdfrwt>
<totfact> 0.80705756E-01</totfact>
</mgrwt>
</event>
<event>
12    1  0.4403484E-008  0.1635958E+04  0.7818608E-02  0.8798757E-01
         -2   -1    0    0    0  501 -0.00000000000E+00  0.00000000000E+00  0.36030059940E+03  0.36030059940E+03  0.00000000000E+00 0.  1.
          2   -1    0    0  501    0  0.00000000000E+00 -0.00000000000E+00 -0.18570309857E+04  0.18570309857E+04  0.00000000000E+00 0. -1.
         23    2    1    2    0    0 -0.41341943037E+03 -0.27299223570E+03 -0.90694144682E+03  0.10375679107E+04  0.92541856756E+02 0.  0.
        254    2    1    2    0    0  0.41341943037E+03  0.27299223570E+03 -0.58978893951E+03  0.11797636744E+04  0.89361677923E+03 0.  0.
         23    2    4    4    0    0 -0.95126534607E+02 -0.21622235630E+03  0.42804016315E+01  0.25388528809E+03  0.92942200967E+02 0.  0.
         23    2    4    4    0    0  0.50854596498E+03  0.48921459200E+03 -0.59406934115E+03  0.92587838632E+03  0.79890478982E+02 0.  0.
         11    1    3    3    0    0 -0.41887476306E+02 -0.13410581143E+02 -0.40713345888E+02  0.59933136838E+02  0.00000000000E+00 0.  1.
        -11    1    3    3    0    0 -0.37153195407E+03 -0.25958165456E+03 -0.86622810093E+03  0.97763477389E+03  0.00000000000E+00 0. -1.
          4    1    5    5  502    0 -0.60716614966E+02 -0.44149136936E+02 -0.17428524756E+02  0.77067548944E+02  0.00000000000E+00 0. -1.
          3    1    6    6  503    0  0.14336741158E+03  0.97844771493E+02 -0.12184700928E+03  0.21207193987E+03  0.00000000000E+00 0. -1.
         -4    1    5    5    0  502 -0.34409919642E+02 -0.17207321937E+03  0.21708926387E+02  0.17681773915E+03  0.00000000000E+00 0.  1.
         -3    1    6    6    0  503  0.36517855340E+03  0.39136982051E+03 -0.47222233187E+03  0.71380644644E+03  0.00000000000E+00 0.  1.
<mgrwt>
<rscale>  0 0.16359577E+04</rscale>
<asrwt>0</asrwt>
<pdfrwt beam="1">  1        2 0.28569708E+00 0.16359577E+04</pdfrwt>
<pdfrwt beam="2">  1       -2 0.55430861E-01 0.16359577E+04</pdfrwt>
<totfact> 0.23465542E+01</totfact>
</mgrwt>
</event>
<event>
12    1  0.4403484E-008  0.1387491E+04  0.7818608E-02  0.8962923E-01
          1   -1    0    0  501    0  0.00000000000E+00  0.00000000000E+00  0.64321002039E+03  0.64321002039E+03  0.00000000000E+00 0. -1.
         -1   -1    0    0    0  501 -0.00000000000E+00 -0.00000000000E+00 -0.74825160558E+03  0.74825160558E+03  0.00000000000E+00 0.  1.
         23    2    1    2    0    0 -0.28284868025E+03 -0.14662202568E+03 -0.26526990073E+03  0.42428802492E+03  0.90281856007E+02 0.  0.
        254    2    1    2    0    0  0.28284868025E+03  0.14662202568E+03  0.16022831554E+03  0.96717360105E+03  0.89902740066E+03 0.  0.
         23    2    4    4    0    0  0.33794540727E+03  0.41950805508E+03 -0.12388885264E+03  0.55956363659E+03  0.86999477157E+02 0.  0.
         23    2    4    4    0    0 -0.55096727014E+02 -0.27288602940E+03  0.28411716818E+03  0.40760996446E+03  0.88999345511E+02 0.  0.
         13    1    3    3    0    0 -0.11025047666E+03 -0.38195932263E+02 -0.15028667837E+03  0.19026345561E+03  0.00000000000E+00 0.  1.
        -13    1    3    3    0    0 -0.17259820359E+03 -0.10842609342E+03 -0.11498322235E+03  0.23402456931E+03  0.00000000000E+00 0. -1.
          2    1    5    5  502    0 -0.49330212002E+01  0.17940195199E+01 -0.85587110348E+00  0.53184320570E+01  0.00000000000E+00 0. -1.
          1    1    6    6  503    0 -0.17117846218E+02 -0.11168093122E+02  0.51484789440E+02  0.55393415735E+02  0.00000000000E+00 0. -1.
         -2    1    5    5    0  502  0.34287842847E+03  0.41771403556E+03 -0.12303298153E+03  0.55424520454E+03  0.00000000000E+00 0.  1.
         -1    1    6    6    0  503 -0.37978880796E+02 -0.26171793628E+03  0.23263237874E+03  0.35221654872E+03  0.00000000000E+00 0.  1.
<mgrwt>
<rscale>  0 0.13874912E+04</rscale>
<asrwt>0</asrwt>
<pdfrwt beam="1">  1        1 0.98955389E-01 0.13874912E+04</pdfrwt>
<pdfrwt beam="2">  1       -1 0.11511563E+00 0.13874912E+04</pdfrwt>
<totfact> 0.20682193E+01</totfact>
</mgrwt>
</event>
<event>
12    1  0.4403484E-008  0.1744339E+04  0.7818608E-02  0.8736472E-01
          2   -1    0    0  501    0  0.00000000000E+00  0.00000000000E+00  0.21004608742E+04  0.21004608742E+04  0.00000000000E+00 0. -1.
         -2   -1    0    0    0  501 -0.00000000000E+00 -0.00000000000E+00 -0.36214896701E+03  0.36214896701E+03  0.00000000000E+00 0.  1.
         23    2    1    2    0    0  0.42522131606E+03 -0.35514713160E+03  0.21230006967E+03  0.60081401027E+03  0.94675776430E+02 0.  0.
        254    2    1    2    0    0 -0.42522131606E+03  0.35514713160E+03  0.15260118375E+04  0.18617958309E+04  0.91138846551E+03 0.  0.
         23    2    4    4    0    0  0.27926847493E+03  0.12219012705E+03  0.42026645636E+03  0.52701010840E+03  0.90523211245E+02 0.  0.
         23    2    4    4    0    0 -0.70448979099E+03  0.23295700455E+03  0.11057453811E+04  0.13347857225E+04  0.91680126084E+02 0.  0.
         11    1    3    3    0    0  0.12736029064E+03 -0.10474648893E+03  0.11078860112E+03  0.19866198608E+03  0.00000000000E+00 0. -1.
        -11    1    3    3    0    0  0.29786102543E+03 -0.25040064267E+03  0.10151146854E+03  0.40215202420E+03  0.00000000000E+00 0.  1.
          3    1    5    5  502    0  0.18014951704E+03  0.35393498032E+02  0.21065758942E+03  0.27943365613E+03  0.00000000000E+00 0. -1.
          3    1    6    6  503    0 -0.46462268983E+03  0.11182239542E+03  0.74113929592E+03  0.88185369987E+03  0.00000000000E+00 0. -1.
         -3    1    5    5    0  502  0.99118957886E+02  0.86796629017E+02  0.20960886694E+03  0.24757645227E+03  0.00000000000E+00 0.  1.
         -3    1    6    6    0  503 -0.23986710116E+03  0.12113460914E+03  0.36460608523E+03  0.45293202264E+03  0.00000000000E+00 0.  1.
<mgrwt>
<rscale>  0 0.17443391E+04</rscale>
<asrwt>0</asrwt>
<pdfrwt beam="1">  1        2 0.32314782E+00 0.17443391E+04</pdfrwt>
<pdfrwt beam="2">  1       -2 0.55715227E-01 0.17443391E+04</pdfrwt>
<totfact> 0.16855639E+01</totfact>
</mgrwt>
</event>
<event>
12    1  0.4403484E-008  0.1553218E+04  0.7818608E-02  0.8849815E-01
          2   -1    0    0  501    0  0.00000000000E+00  0.00000000000E+00  0.11245702116E+04  0.11245702116E+04  0.00000000000E+00 0. -1.
         -2   -1    0    0    0  501 -0.00000000000E+00 -0.00000000000E+00 -0.53631301344E+03  0.53631301344E+03  0.00000000000E+00 0.  1.
         23    2    1    2    0    0  0.14099784156E+03  0.20170591583E+03  0.67592337150E+03  0.72515343187E+03  0.91702932377E+02 0.  0.
        254    2    1    2    0    0 -0.14099784156E+03 -0.20170591583E+03 -0.87666173391E+02  0.93572979312E+03  0.89852057293E+03 0.  0.
         23    2    4    4    0    0  0.25929450922E+03 -0.27707849396E+03 -0.27586633933E+03  0.47794495490E+03  0.91230523459E+02 0.  0.
         23    2    4    4    0    0 -0.40029235078E+03  0.75372578132E+02  0.18820016594E+03  0.45778483823E+03  0.90734029039E+02 0.  0.
         11    1    3    3    0    0  0.10193867332E+03  0.85505062428E+02  0.26803608001E+03  0.29924229147E+03  0.00000000000E+00 0.  1.
        -11    1    3    3    0    0  0.39059168242E+02  0.11620085340E+03  0.40788729149E+03  0.42591114040E+03  0.00000000000E+00 0. -1.
          4    1    5    5  502    0  0.89302749525E+01  0.36049636562E+01  0.25833668696E+01  0.99709256377E+01  0.00000000000E+00 0. -1.
          1    1    6    6  503    0 -0.25984008189E+02  0.21172593082E+02 -0.36152759313E+01  0.33712276687E+02  0.00000000000E+00 0. -1.
         -4    1    5    5    0  502  0.25036423427E+03 -0.28068345762E+03 -0.27844970620E+03  0.46797402926E+03  0.00000000000E+00 0.  1.
         -1    1    6    6    0  503 -0.37430834259E+03  0.54199985050E+02  0.19181544187E+03  0.42407256154E+03  0.00000000000E+00 0.  1.
<mgrwt>
<rscale>  0 0.15532181E+04</rscale>
<asrwt>0</asrwt>
<pdfrwt beam="1">  1        2 0.17301080E+00 0.15532181E+04</pdfrwt>
<pdfrwt beam="2">  1       -2 0.82509694E-01 0.15532181E+04</pdfrwt>
<totfact> 0.26107708E+01</totfact>
</mgrwt>
</event>
<event>
12    1  0.4403484E-008  0.1308020E+04  0.7818608E-02  0.9023229E-01
          2   -1    0    0  501    0  0.00000000000E+00  0.00000000000E+00  0.18811957369E+04  0.18811957369E+04  0.00000000000E+00 0.  1.
         -2   -1    0    0    0  501 -0.00000000000E+00 -0.00000000000E+00 -0.22737088179E+03  0.22737088179E+03  0.00000000000E+00 0. -1.
         23    2    1    2    0    0 -0.31702594942E+03 -0.64317601611E+02  0.43997879247E+03  0.55388799355E+03  0.92565463833E+02 0.  0.
        254    2    1    2    0    0  0.31702594942E+03  0.64317601611E+02  0.12138460627E+04  0.15546786252E+04  0.91594822846E+03 0.  0.
         23    2    4    4    0    0 -0.13761476370E+03 -0.22913487703E+03  0.79083117774E+02  0.29392419662E+03  0.93255985243E+02 0.  0.
         23    2    4    4    0    0  0.45464071311E+03  0.29345247864E+03  0.11347629449E+04  0.12607544285E+04  0.94880202252E+02 0.  0.
         13    1    3    3    0    0 -0.10326095376E+03 -0.45455694696E+02  0.94429529509E+02  0.14712573125E+03  0.00000000000E+00 0.  1.
        -13    1    3    3    0    0 -0.21376499566E+03 -0.18861906915E+02  0.34554926296E+03  0.40676226230E+03  0.00000000000E+00 0. -1.
          2    1    5    5  502    0 -0.25585973031E+02 -0.81227940266E+02  0.66322225068E+02  0.10794099237E+03  0.00000000000E+00 0. -1.
          3    1    6    6  503    0  0.43094039411E+03  0.25239910682E+03  0.99749248314E+03  0.11155295542E+04  0.00000000000E+00 0. -1.
         -2    1    5    5    0  502 -0.11202879066E+03 -0.14790693676E+03  0.12760892705E+02  0.18598320425E+03  0.00000000000E+00 0.  1.
         -3    1    6    6    0  503  0.23700319007E+02  0.41053371818E+02  0.13727046174E+03  0.14522487433E+03  0.00000000000E+00 0.  1.
<mgrwt>
<rscale>  0 0.13080201E+04</rscale>
<asrwt>0</asrwt>
<pdfrwt beam="1">  1        2 0.28941472E+00 0.13080201E+04</pdfrwt>
<pdfrwt beam="2">  1       -2 0.34980137E-01 0.13080201E+04</pdfrwt>
<totfact> 0.58458030E+01</totfact>
</mgrwt>
</event>
<event>
12    1  0.4403484E-008  0.2017846E+04  0.7818608E-02  0.8598322E-01
         -1   -1    0    0    0  501 -0.00000000000E+00  0.00000000000E+00  0.22697103930E+04  0.22697103930E+04  0.00000000000E+00 0.  1.
          1   -1    0    0  501    0  0.00000000000E+00 -0.00000000000E+00 -0.44848238555E+03  0.44848238555E+03  0.00000000000E+00 0. -1.
         23    2    1    2    0    0 -0.59560230189E+03 -0.29165923540E+03  0.13527306642E+04  0.15093119149E+04  0.91296193999E+02 0.  0.
        254    2    1    2    0    0  0.59560230189E+03  0.29165923540E+03  0.46849734329E+03  0.12088808637E+04  0.89559810756E+03 0.  0.
         23    2    4    4    0    0  0.76039229358E+03  0.34817135480E+03  0.18196245524E+03  0.86064608230E+03  0.90452260469E+02 0.  0.
         23    2    4    4    0    0 -0.16478999169E+03 -0.56512119405E+02  0.28653488804E+03  0.34823478137E+03  0.93892810619E+02 0.  0.
         11    1    3    3    0    0 -0.17648124525E+03 -0.58673338285E+02  0.30814112128E+03  0.35991546393E+03  0.00000000000E+00 0. -1.
        -11    1    3    3    0    0 -0.41912105664E+03 -0.23298589711E+03  0.10445895429E+04  0.11493964510E+04  0.00000000000E+00 0.  1.
          4    1    5    5  502    0  0.74636360610E+03  0.35308034702E+03  0.17406177712E+03  0.84381388126E+03  0.00000000000E+00 0. -1.
          3    1    6    6  503    0 -0.12976459304E+03 -0.81792092746E+02  0.23915920726E+03  0.28412307625E+03  0.00000000000E+00 0. -1.
         -4    1    5    5    0  502  0.14028687484E+02 -0.49089922158E+01  0.79006781224E+01  0.16832201042E+02  0.00000000000E+00 0.  1.
         -3    1    6    6    0  503 -0.35025398648E+02  0.25279973341E+02  0.47375680783E+02  0.64111705111E+02  0.00000000000E+00 0.  1.
<mgrwt>
<rscale>  0 0.20178455E+04</rscale>
<asrwt>0</asrwt>
<pdfrwt beam="1">  1        1 0.68997292E-01 0.20178455E+04</pdfrwt>
<pdfrwt beam="2">  1       -1 0.34918621E+00 0.20178455E+04</pdfrwt>
<totfact> 0.75065335E-01</totfact>
</mgrwt>
</event>
<event>
12    1  0.4403484E-008  0.1336481E+04  0.7818608E-02  0.9001126E-01
          1   -1    0    0  501    0  0.00000000000E+00  0.00000000000E+00  0.95835207445E+03  0.95835207445E+03  0.00000000000E+00 0.  1.
         -1   -1    0    0    0  501 -0.00000000000E+00 -0.00000000000E+00 -0.46595098716E+03  0.46595098716E+03  0.00000000000E+00 0. -1.
         23    2    1    2    0    0  0.23420869370E+03  0.10580027607E+03  0.39816744316E+03  0.48232519948E+03  0.89737810545E+02 0.  0.
        254    2    1    2    0    0 -0.23420869370E+03 -0.10580027607E+03  0.94233644133E+02  0.94197786213E+03  0.90132951934E+03 0.  0.
         23    2    4    4    0    0 -0.30621035703E+03  0.22563968353E+03 -0.23855781957E+03  0.45823934602E+03  0.91626499563E+02 0.  0.
         23    2    4    4    0    0  0.72001663332E+02 -0.33143995960E+03  0.33279146370E+03  0.48373851611E+03  0.90642745508E+02 0.  0.
         13    1    3    3    0    0  0.20852132138E+03  0.79658410910E+02  0.38162773691E+03  0.44211574670E+03  0.00000000000E+00 0.  1.
        -13    1    3    3    0    0  0.25687372317E+02  0.26141865156E+02  0.16539706255E+02  0.40209452786E+02  0.00000000000E+00 0. -1.
          3    1    6    6  502    0  0.90269015650E+02 -0.29153338321E+03  0.27233681654E+03  0.40903245636E+03  0.00000000000E+00 0.  1.
          3    1    5    5  503    0 -0.22857419266E+03  0.12289081377E+03 -0.18529909635E+03  0.31887939533E+03  0.00000000000E+00 0. -1.
         -3    1    5    5    0  503 -0.77636164374E+02  0.10274886976E+03 -0.53258723218E+02  0.13935995069E+03  0.00000000000E+00 0.  1.
         -3    1    6    6    0  502 -0.18267352318E+02 -0.39906576385E+02  0.60454647161E+02  0.74706059746E+02  0.00000000000E+00 0. -1.
<mgrwt>
<rscale>  0 0.13364806E+04</rscale>
<asrwt>0</asrwt>
<pdfrwt beam="1">  1        1 0.14743878E+00 0.13364806E+04</pdfrwt>
<pdfrwt beam="2">  1       -1 0.71684767E-01 0.13364806E+04</pdfrwt>
<totfact> 0.31423248E+01</totfact>
</mgrwt>
</event>
<event>
12    1  0.4403484E-008  0.2380224E+04  0.7818608E-02  0.8446945E-01
         -1   -1    0    0    0  501 -0.00000000000E+00  0.00000000000E+00  0.61555045282E+03  0.61555045282E+03  0.00000000000E+00 0.  1.
          1   -1    0    0  501    0  0.00000000000E+00 -0.00000000000E+00 -0.23009762086E+04  0.23009762086E+04  0.00000000000E+00 0. -1.
         23    2    1    2    0    0 -0.84453002402E+03  0.50874218050E+01 -0.29965753216E+02  0.84992383508E+03  0.90640695750E+02 0.  0.
        254    2    1    2    0    0  0.84453002402E+03 -0.50874218050E+01 -0.16554600026E+04  0.20666028263E+04  0.90390407587E+03 0.  0.
         23    2    4    4    0    0  0.78621526075E+03  0.32846320557E+03 -0.13581639934E+04  0.16058927297E+04  0.90881860418E+02 0.  0.
         23    2    4    4    0    0  0.58314763273E+02 -0.33355062738E+03 -0.29729600916E+03  0.46071009667E+03  0.95980432745E+02 0.  0.
         13    1    3    3    0    0 -0.10259001280E+03 -0.29195665695E+02 -0.39945115575E+01  0.10673824874E+03  0.00000000000E+00 0. -1.
        -13    1    3    3    0    0 -0.74194001122E+03  0.34283087500E+02 -0.25971241659E+02  0.74318558633E+03  0.00000000000E+00 0.  1.
          2    1    5    5  502    0  0.72331436235E+03  0.31200461454E+03 -0.12066662973E+04  0.14410323034E+04  0.00000000000E+00 0. -1.
          3    1    6    6  503    0  0.16374846715E+02 -0.26603843210E+03 -0.26199042535E+03  0.37374264666E+03  0.00000000000E+00 0. -1.
         -2    1    5    5    0  502  0.62900898406E+02  0.16458591030E+02 -0.15149769607E+03  0.16486042628E+03  0.00000000000E+00 0.  1.
         -3    1    6    6    0  503  0.41939916558E+02 -0.67512195281E+02 -0.35305583805E+02  0.86967450004E+02  0.00000000000E+00 0.  1.
<mgrwt>
<rscale>  0 0.23802243E+04</rscale>
<asrwt>0</asrwt>
<pdfrwt beam="1">  1        1 0.35399634E+00 0.23802243E+04</pdfrwt>
<pdfrwt beam="2">  1       -1 0.94700071E-01 0.23802243E+04</pdfrwt>
<totfact> 0.17984366E+00</totfact>
</mgrwt>
</event>
<event>
12    1  0.4403484E-008  0.1706787E+04  0.7818608E-02  0.8757503E-01
          2   -1    0    0  501    0  0.00000000000E+00  0.00000000000E+00  0.94132536869E+03  0.94132536869E+03  0.00000000000E+00 0. -1.
         -2   -1    0    0    0  501 -0.00000000000E+00 -0.00000000000E+00 -0.77367557296E+03  0.77367557296E+03  0.00000000000E+00 0.  1.
         23    2    1    2    0    0  0.35340285033E+03 -0.46656464753E+03 -0.10932585484E+03  0.60215483739E+03  0.89789535667E+02 0.  0.
        254    2    1    2    0    0 -0.35340285033E+03  0.46656464753E+03  0.27697565057E+03  0.11128461043E+04  0.90506065865E+03 0.  0.
         23    2    4    4    0    0 -0.15201598153E+03  0.68862778964E+03  0.23952228739E+02  0.71077691623E+03  0.85516221116E+02 0.  0.
         23    2    4    4    0    0 -0.20138686880E+03 -0.22206314211E+03  0.25302342183E+03  0.40206918804E+03  0.88148000352E+02 0.  0.
         13    1    3    3    0    0  0.34763500952E+03 -0.45153036413E+03 -0.12063232009E+03  0.58247912085E+03  0.00000000000E+00 0. -1.
        -13    1    3    3    0    0  0.57678408082E+01 -0.15034283399E+02  0.11306465255E+02  0.19675716543E+02  0.00000000000E+00 0.  1.
          1    1    5    5  502    0 -0.61495726144E+02  0.33727189912E+03  0.52489724433E+02  0.34682737700E+03  0.00000000000E+00 0. -1.
          3    1    6    6  503    0 -0.13960411964E+03 -0.10891095854E+03  0.10532590242E+03  0.20602051556E+03  0.00000000000E+00 0. -1.
         -1    1    5    5    0  502 -0.90520255384E+02  0.35135589052E+03 -0.28537495694E+02  0.36394953922E+03  0.00000000000E+00 0.  1.
         -3    1    6    6    0  503 -0.61782749156E+02 -0.11315218358E+03  0.14769751941E+03  0.19604867248E+03  0.00000000000E+00 0.  1.
<mgrwt>
<rscale>  0 0.17067870E+04</rscale>
<asrwt>0</asrwt>
<pdfrwt beam="1">  1        2 0.14481929E+00 0.17067870E+04</pdfrwt>
<pdfrwt beam="2">  1       -2 0.11902701E+00 0.17067870E+04</pdfrwt>
<totfact> 0.14177594E+01</totfact>
</mgrwt>
</event>
<event>
12    1  0.4403484E-008  0.3021348E+04  0.7818608E-02  0.8237661E-01
         -2   -1    0    0    0  501 -0.00000000000E+00  0.00000000000E+00  0.30183660611E+04  0.30183660611E+04  0.00000000000E+00 0.  1.
          2   -1    0    0  501    0  0.00000000000E+00 -0.00000000000E+00 -0.75608324152E+03  0.75608324152E+03  0.00000000000E+00 0. -1.
         23    2    1    2    0    0 -0.12938100264E+04  0.45744349664E+03  0.10821467962E+04  0.17499496517E+04  0.89906384548E+02 0.  0.
        254    2    1    2    0    0  0.12938100264E+04 -0.45744349664E+03  0.11801360233E+04  0.20244996509E+04  0.90701646397E+03 0.  0.
         23    2    4    4    0    0  0.56594586178E+03 -0.48125037293E+03  0.15615437899E+03  0.76468878433E+03  0.92022317357E+02 0.  0.
         23    2    4    4    0    0  0.72786416459E+03  0.23806876293E+02  0.10239816443E+04  0.12598108665E+04  0.90730381328E+02 0.  0.
         11    1    3    3    0    0 -0.75326641763E+03  0.22764410491E+03  0.58713732662E+03  0.98181585582E+03  0.00000000000E+00 0. -1.
        -11    1    3    3    0    0 -0.54054360874E+03  0.22979939172E+03  0.49500946960E+03  0.76813379589E+03  0.00000000000E+00 0.  1.
          4    1    5    5  502    0  0.34496168173E+03 -0.34668893809E+03  0.11861214125E+03  0.50325005883E+03  0.00000000000E+00 0. -1.
          3    1    6    6  503    0  0.50751254537E+03  0.40128701904E+02  0.65283983029E+03  0.82787628329E+03  0.00000000000E+00 0. -1.
         -4    1    5    5    0  502  0.22098418005E+03 -0.13456143484E+03  0.37542237741E+02  0.26143872550E+03  0.00000000000E+00 0.  1.
         -3    1    6    6    0  503  0.22035161922E+03 -0.16321825611E+02  0.37114181404E+03  0.43193458326E+03  0.00000000000E+00 0.  1.
<mgrwt>
<rscale>  0 0.30213480E+04</rscale>
<asrwt>0</asrwt>
<pdfrwt beam="1">  1        2 0.11632050E+00 0.30213480E+04</pdfrwt>
<pdfrwt beam="2">  1       -2 0.46436400E+00 0.30213480E+04</pdfrwt>
<totfact> 0.88345656E-02</totfact>
</mgrwt>
</event>
<event>
12    1  0.4403484E-008  0.2533415E+04  0.7818608E-02  0.8391177E-01
          1   -1    0    0  501    0  0.00000000000E+00  0.00000000000E+00  0.31929678987E+04  0.31929678987E+04  0.00000000000E+00 0. -1.
         -1   -1    0    0    0  501 -0.00000000000E+00 -0.00000000000E+00 -0.50252552618E+03  0.50252552618E+03  0.00000000000E+00 0.  1.
         23    2    1    2    0    0  0.81946921969E+03 -0.52441942525E+03  0.19520401198E+04  0.21831851943E+04  0.96392053371E+02 0.  0.
        254    2    1    2    0    0 -0.81946921969E+03  0.52441942525E+03  0.73840225269E+03  0.15123082305E+04  0.89179188249E+03 0.  0.
         23    2    4    4    0    0 -0.49911355466E+03  0.51295390024E+03  0.21688716154E+02  0.72210341194E+03  0.93417840402E+02 0.  0.
         23    2    4    4    0    0 -0.32035566502E+03  0.11465525001E+02  0.71671353653E+03  0.79020481855E+03  0.89365269783E+02 0.  0.
         13    1    3    3    0    0  0.66630868625E+02 -0.15414250747E+02  0.15560334770E+03  0.16996962551E+03  0.00000000000E+00 0.  1.
        -13    1    3    3    0    0  0.75283835106E+03 -0.50900517450E+03  0.17964367721E+04  0.20132155688E+04  0.00000000000E+00 0. -1.
          2    1    5    5  502    0 -0.30832695865E+03  0.37205114457E+03  0.35624661530E+02  0.48451695957E+03  0.00000000000E+00 0.  1.
          1    1    6    6  503    0 -0.11558193746E+03  0.46135091418E+02  0.24505230349E+03  0.27484224998E+03  0.00000000000E+00 0. -1.
         -2    1    5    5    0  502 -0.19078659602E+03  0.14090275568E+03 -0.13935945376E+02  0.23758645237E+03  0.00000000000E+00 0. -1.
         -1    1    6    6    0  503 -0.20477372756E+03 -0.34669566416E+02  0.47166123304E+03  0.51536256858E+03  0.00000000000E+00 0.  1.
<mgrwt>
<rscale>  0 0.25334150E+04</rscale>
<asrwt>0</asrwt>
<pdfrwt beam="1">  1        1 0.49122582E+00 0.25334150E+04</pdfrwt>
<pdfrwt beam="2">  1       -1 0.77311621E-01 0.25334150E+04</pdfrwt>
<totfact> 0.63939624E-01</totfact>
</mgrwt>
</event>
<event>
12    1  0.4403484E-008  0.1759180E+04  0.7818608E-02  0.8728313E-01
          1   -1    0    0  501    0  0.00000000000E+00  0.00000000000E+00  0.67410086420E+03  0.67410086420E+03  0.00000000000E+00 0. -1.
         -1   -1    0    0    0  501 -0.00000000000E+00 -0.00000000000E+00 -0.11477194653E+04  0.11477194653E+04  0.00000000000E+00 0.  1.
         23    2    1    2    0    0 -0.38549436679E+03 -0.30529059967E+03 -0.61161648942E+03  0.78997938186E+03  0.90467875888E+02 0.  0.
        254    2    1    2    0    0  0.38549436679E+03  0.30529059967E+03  0.13799788834E+03  0.10318409476E+04  0.89657351451E+03 0.  0.
         23    2    4    4    0    0  0.59733401724E+03  0.42081027466E+03 -0.96950163871E+01  0.73506826605E+03  0.79637597913E+02 0.  0.
         23    2    4    4    0    0 -0.21183965046E+03 -0.11551967498E+03  0.14769290473E+03  0.29677268156E+03  0.89666033712E+02 0.  0.
         11    1    3    3    0    0 -0.16567142558E+03 -0.14294679751E+03 -0.20349060770E+03  0.29881304455E+03  0.00000000000E+00 0. -1.
        -11    1    3    3    0    0 -0.21982294121E+03 -0.16234380217E+03 -0.40812588171E+03  0.49116633731E+03  0.00000000000E+00 0.  1.
          2    1    5    5  502    0  0.46788494444E+03  0.32601596629E+03  0.25390990494E+02  0.57083047738E+03  0.00000000000E+00 0. -1.
          3    1    6    6  503    0 -0.16623103931E+03 -0.12719871458E+03  0.10996945242E+03  0.23644354905E+03  0.00000000000E+00 0. -1.
         -2    1    5    5    0  502  0.12944907280E+03  0.94794308370E+02 -0.35086006882E+02  0.16423778867E+03  0.00000000000E+00 0.  1.
         -3    1    6    6    0  503 -0.45608611145E+02  0.11679039591E+02  0.37723452302E+02  0.60329132515E+02  0.00000000000E+00 0.  1.
<mgrwt>
<rscale>  0 0.17591801E+04</rscale>
<asrwt>0</asrwt>
<pdfrwt beam="1">  1        1 0.10370783E+00 0.17591801E+04</pdfrwt>
<pdfrwt beam="2">  1       -1 0.17657222E+00 0.17591801E+04</pdfrwt>
<totfact> 0.60166483E+00</totfact>
</mgrwt>
</event>
<event>
12    1  0.4403484E-008  0.2015839E+04  0.7818608E-02  0.8599251E-01
         -2   -1    0    0    0  501 -0.00000000000E+00  0.00000000000E+00  0.62215202178E+03  0.62215202178E+03  0.00000000000E+00 0. -1.
          2   -1    0    0  501    0  0.00000000000E+00 -0.00000000000E+00 -0.16328829680E+04  0.16328829680E+04  0.00000000000E+00 0.  1.
         23    2    1    2    0    0  0.67576589660E+03  0.37793979160E+03 -0.15235027935E+03  0.79442955660E+03  0.91704305734E+02 0.  0.
        254    2    1    2    0    0 -0.67576589660E+03 -0.37793979160E+03 -0.85838066691E+03  0.14606054332E+04  0.89277815224E+03 0.  0.
         23    2    4    4    0    0 -0.75395060232E+03 -0.26021646522E+03 -0.96903954004E+03  0.12582252152E+04  0.89100743631E+02 0.  0.
         23    2    4    4    0    0  0.78184705720E+02 -0.11772332638E+03  0.11065887313E+03  0.20238021800E+03  0.93491906875E+02 0.  0.
         11    1    3    3    0    0  0.26704718849E+03  0.18117962731E+03 -0.27111772153E+02  0.32384457139E+03  0.00000000000E+00 0.  1.
        -11    1    3    3    0    0  0.40871870812E+03  0.19676016429E+03 -0.12523850719E+03  0.47058498521E+03  0.00000000000E+00 0. -1.
          3    1    6    6  502    0  0.54474790522E+01 -0.37982109052E+01  0.56305677337E+02  0.56695949895E+02  0.00000000000E+00 0. -1.
          3    1    5    5  503    0 -0.21845393787E+02 -0.25841969987E+02 -0.39640182237E+02  0.52118832396E+02  0.00000000000E+00 0. -1.
         -3    1    5    5    0  503 -0.73210520854E+03 -0.23437449523E+03 -0.92939935781E+03  0.12061063828E+04  0.00000000000E+00 0.  1.
         -3    1    6    6    0  502  0.72737226668E+02 -0.11392511548E+03  0.54353195797E+02  0.14568426810E+03  0.00000000000E+00 0.  1.
<mgrwt>
<rscale>  0 0.20158387E+04</rscale>
<asrwt>0</asrwt>
<pdfrwt beam="1">  1        2 0.25121276E+00 0.20158387E+04</pdfrwt>
<pdfrwt beam="2">  1       -2 0.95715696E-01 0.20158387E+04</pdfrwt>
<totfact> 0.90835028E+00</totfact>
</mgrwt>
</event>
<event>
12    1  0.4403484E-008  0.1719251E+04  0.7818608E-02  0.8750460E-01
          2   -1    0    0  501    0  0.00000000000E+00  0.00000000000E+00  0.65690135128E+03  0.65690135128E+03  0.00000000000E+00 0. -1.
         -2   -1    0    0    0  501 -0.00000000000E+00 -0.00000000000E+00 -0.11249115880E+04  0.11249115880E+04  0.00000000000E+00 0.  1.
         23    2    1    2    0    0 -0.54584513836E+02 -0.52187709127E+03  0.14768151433E+03  0.55226734175E+03  0.88624034811E+02 0.  0.
        254    2    1    2    0    0  0.54584513836E+02  0.52187709127E+03 -0.61569175103E+03  0.12295455975E+04  0.92594323611E+03 0.  0.
         23    2    4    4    0    0 -0.25928523149E+03  0.41395167273E+03 -0.71512505828E+03  0.87064321431E+03  0.89615506536E+02 0.  0.
         23    2    4    4    0    0  0.31386974533E+03  0.10792541854E+03  0.99433307246E+02  0.35890238320E+03  0.93604621022E+02 0.  0.
         11    1    3    3    0    0 -0.63558326462E+02 -0.36087210880E+03  0.69101414022E+02  0.37288516355E+03  0.00000000000E+00 0. -1.
        -11    1    3    3    0    0  0.89738126259E+01 -0.16100498247E+03  0.78580100307E+02  0.17938217820E+03  0.00000000000E+00 0.  1.
          1    1    5    5  502    0 -0.42898575565E+02  0.14609413003E+03 -0.21852904988E+03  0.26634325269E+03  0.00000000000E+00 0. -1.
          3    1    6    6  503    0  0.29686365788E+03  0.10010817364E+03  0.11583390782E+03  0.33401672414E+03  0.00000000000E+00 0. -1.
         -1    1    5    5    0  502 -0.21638665593E+03  0.26785754270E+03 -0.49659600840E+03  0.60429996161E+03  0.00000000000E+00 0.  1.
         -3    1    6    6    0  503  0.17006087443E+02  0.78172448977E+01 -0.16400600570E+02  0.24885659062E+02  0.00000000000E+00 0.  1.
<mgrwt>
<rscale>  0 0.17192509E+04</rscale>
<asrwt>0</asrwt>
<pdfrwt beam="1">  1        2 0.10106175E+00 0.17192509E+04</pdfrwt>
<pdfrwt beam="2">  1       -2 0.17306332E+00 0.17192509E+04</pdfrwt>
<totfact> 0.85416649E+00</totfact>
</mgrwt>
</event>
<event>
12    1  0.4403484E-008  0.1756537E+04  0.7818608E-02  0.8729760E-01
          2   -1    0    0  501    0  0.00000000000E+00  0.00000000000E+00  0.14581455710E+04  0.14581455710E+04  0.00000000000E+00 0. -1.
         -2   -1    0    0    0  501 -0.00000000000E+00 -0.00000000000E+00 -0.52899785476E+03  0.52899785476E+03  0.00000000000E+00 0.  1.
         23    2    1    2    0    0 -0.42547059952E+02  0.46063003176E+03  0.85619812096E+03  0.97746408852E+03  0.91490674663E+02 0.  0.
        254    2    1    2    0    0  0.42547059952E+02 -0.46063003176E+03  0.72949595236E+02  0.10096793372E+04  0.89450569704E+03 0.  0.
         23    2    4    4    0    0  0.18728716148E+03 -0.19340217022E+03  0.44046139835E+03  0.52421248116E+03  0.91167985951E+02 0.  0.
         23    2    4    4    0    0 -0.14474010153E+03 -0.26722786154E+03 -0.36751180312E+03  0.48546685603E+03  0.90844459923E+02 0.  0.
         13    1    3    3    0    0 -0.55821654606E+01  0.65641155084E+01  0.12417097965E+01  0.87057467719E+01  0.00000000000E+00 0.  1.
        -13    1    3    3    0    0 -0.36964894491E+02  0.45406591625E+03  0.85495641116E+03  0.96875834175E+03  0.00000000000E+00 0. -1.
          4    1    5    5  502    0  0.10571876451E+03 -0.71884623536E+02  0.13748765573E+03  0.18774107635E+03  0.00000000000E+00 0. -1.
          1    1    6    6  503    0 -0.82987848671E+02 -0.10903215559E+03 -0.10419617208E+03  0.17213900272E+03  0.00000000000E+00 0. -1.
         -4    1    5    5    0  502  0.81568396974E+02 -0.12151754668E+03  0.30297374262E+03  0.33647140481E+03  0.00000000000E+00 0.  1.
         -1    1    6    6    0  503 -0.61752252860E+02 -0.15819570595E+03 -0.26331563104E+03  0.31332785331E+03  0.00000000000E+00 0.  1.
<mgrwt>
<rscale>  0 0.17565374E+04</rscale>
<asrwt>0</asrwt>
<pdfrwt beam="1">  1        2 0.22433009E+00 0.17565374E+04</pdfrwt>
<pdfrwt beam="2">  1       -2 0.81384286E-01 0.17565374E+04</pdfrwt>
<totfact> 0.16889497E+01</totfact>
</mgrwt>
</event>
<event>
12    1  0.4403484E-008  0.1623319E+04  0.7818608E-02  0.8806349E-01
         -2   -1    0    0    0  501 -0.00000000000E+00  0.00000000000E+00  0.71841505092E+03  0.71841505092E+03  0.00000000000E+00 0.  1.
          2   -1    0    0  501    0  0.00000000000E+00 -0.00000000000E+00 -0.91700596484E+03  0.91700596484E+03  0.00000000000E+00 0. -1.
         23    2    1    2    0    0  0.23880478268E+03  0.23905225654E+03  0.37419759271E+03  0.51215975881E+03  0.90055952418E+02 0.  0.
        254    2    1    2    0    0 -0.23880478268E+03 -0.23905225654E+03 -0.57278850663E+03  0.11232612569E+04  0.90523779883E+03 0.  0.
         23    2    4    4    0    0  0.29854034374E+03  0.39084457187E+02 -0.47409876974E+02  0.31667782622E+03  0.85925651303E+02 0.  0.
         23    2    4    4    0    0 -0.53734512642E+03 -0.27813671373E+03 -0.52537862966E+03  0.80658343073E+03  0.91947320832E+02 0.  0.
         13    1    3    3    0    0  0.11411878231E+03  0.53388127130E+02  0.13921030539E+03  0.18775755037E+03  0.00000000000E+00 0. -1.
        -13    1    3    3    0    0  0.12468600037E+03  0.18566412941E+03  0.23498728732E+03  0.32440220844E+03  0.00000000000E+00 0.  1.
          3    1    6    6  502    0 -0.27843314191E+03 -0.14321428738E+03 -0.33220809670E+03  0.45650582267E+03  0.00000000000E+00 0. -1.
          3    1    5    5  503    0  0.26795201297E+03  0.61471233196E+02 -0.37173154692E+02  0.27741455837E+03  0.00000000000E+00 0. -1.
         -3    1    5    5    0  503  0.30588330768E+02 -0.22386776009E+02 -0.10236722281E+02  0.39263267851E+02  0.00000000000E+00 0.  1.
         -3    1    6    6    0  502 -0.25891198451E+03 -0.13492242635E+03 -0.19317053296E+03  0.35007760805E+03  0.00000000000E+00 0.  1.
<mgrwt>
<rscale>  0 0.16233187E+04</rscale>
<asrwt>0</asrwt>
<pdfrwt beam="1">  1        2 0.14107784E+00 0.16233187E+04</pdfrwt>
<pdfrwt beam="2">  1       -2 0.11052539E+00 0.16233187E+04</pdfrwt>
<totfact> 0.17755675E+01</totfact>
</mgrwt>
</event>
<event>
12    1  0.4403484E-008  0.2334439E+04  0.7818608E-02  0.8464465E-01
          2   -1    0    0  501    0  0.00000000000E+00  0.00000000000E+00  0.25006953394E+04  0.25006953394E+04  0.00000000000E+00 0. -1.
         -2   -1    0    0    0  501 -0.00000000000E+00 -0.00000000000E+00 -0.54480901633E+03  0.54480901633E+03  0.00000000000E+00 0.  1.
         23    2    1    2    0    0  0.67202694602E+02  0.98704882084E+03  0.94311238920E+03  0.13699074032E+04  0.91671902710E+02 0.  0.
        254    2    1    2    0    0 -0.67202694602E+02 -0.98704882084E+03  0.10127739339E+04  0.16755969525E+04  0.89617661729E+03 0.  0.
         23    2    4    4    0    0 -0.38212286925E+03 -0.76481056175E+03  0.93832618627E+03  0.12726189596E+04  0.90276806636E+02 0.  0.
         23    2    4    4    0    0  0.31492017464E+03 -0.22223825909E+03  0.74447747605E+02  0.40297799299E+03  0.91017775818E+02 0.  0.
         13    1    3    3    0    0  0.40796776971E+02  0.14915797585E+03  0.16496321196E+03  0.22610913310E+03  0.00000000000E+00 0. -1.
        -13    1    3    3    0    0  0.26405917631E+02  0.83789084498E+03  0.77814917723E+03  0.11437982701E+04  0.00000000000E+00 0.  1.
          4    1    5    5  502    0 -0.26210748482E+03 -0.57513315900E+03  0.73913239207E+03  0.97252001377E+03  0.00000000000E+00 0. -1.
          3    1    6    6  503    0  0.15859347930E+03 -0.13715989134E+03 -0.96963621853E+00  0.20967991717E+03  0.00000000000E+00 0. -1.
         -4    1    5    5    0  502 -0.12001538443E+03 -0.18967740275E+03  0.19919379420E+03  0.30009894578E+03  0.00000000000E+00 0.  1.
         -3    1    6    6    0  503  0.15632669534E+03 -0.85078367744E+02  0.75417383824E+02  0.19329807582E+03  0.00000000000E+00 0.  1.
<mgrwt>
<rscale>  0 0.23344390E+04</rscale>
<asrwt>0</asrwt>
<pdfrwt beam="1">  1        2 0.38472235E+00 0.23344390E+04</pdfrwt>
<pdfrwt beam="2">  1       -2 0.83816773E-01 0.23344390E+04</pdfrwt>
<totfact> 0.39111281E+00</totfact>
</mgrwt>
</event>
<event>
12    1  0.4403484E-008  0.1635608E+04  0.7818608E-02  0.8798967E-01
          1   -1    0    0  501    0  0.00000000000E+00  0.00000000000E+00  0.22537043482E+04  0.22537043482E+04  0.00000000000E+00 0. -1.
         -1   -1    0    0    0  501 -0.00000000000E+00 -0.00000000000E+00 -0.29675731154E+03  0.29675731154E+03  0.00000000000E+00 0.  1.
         23    2    1    2    0    0 -0.13574161536E+03 -0.13299437726E+03  0.14932762636E+04  0.15079340154E+04  0.88756435048E+02 0.  0.
        254    2    1    2    0    0  0.13574161536E+03  0.13299437726E+03  0.46367077307E+03  0.10425276444E+04  0.91419911015E+03 0.  0.
         23    2    4    4    0    0  0.14928394578E+03 -0.17897740559E+03 -0.18824076675E+03  0.31469959771E+03  0.96346470367E+02 0.  0.
         23    2    4    4    0    0 -0.13542330427E+02  0.31197178284E+03  0.65191153982E+03  0.72782804668E+03  0.85060106896E+02 0.  0.
         13    1    3    3    0    0 -0.13177468116E+03 -0.11870215793E+03  0.14676306732E+04  0.14783080064E+04  0.00000000000E+00 0. -1.
        -13    1    3    3    0    0 -0.39669341977E+01 -0.14292219325E+02  0.25645590399E+02  0.29626008963E+02  0.00000000000E+00 0.  1.
          4    1    5    5  502    0  0.12011603061E+03 -0.13597815823E+03 -0.18999807500E+03  0.26271122707E+03  0.00000000000E+00 0. -1.
          3    1    6    6  503    0  0.48329392804E+01  0.24833899627E+03  0.57483383937E+03  0.62620248902E+03  0.00000000000E+00 0. -1.
         -4    1    5    5    0  502  0.29167915170E+02 -0.42999247359E+02  0.17573082565E+01  0.51988370634E+02  0.00000000000E+00 0.  1.
         -3    1    6    6    0  503 -0.18375269707E+02  0.63632786573E+02  0.77077700456E+02  0.10162555767E+03  0.00000000000E+00 0.  1.
<mgrwt>
<rscale>  0 0.16356078E+04</rscale>
<asrwt>0</asrwt>
<pdfrwt beam="1">  1        1 0.34672374E+00 0.16356078E+04</pdfrwt>
<pdfrwt beam="2">  1       -1 0.45654972E-01 0.16356078E+04</pdfrwt>
<totfact> 0.91391280E+00</totfact>
</mgrwt>
</event>
<event>
12    1  0.4403484E-008  0.3107130E+04  0.7818608E-02  0.8213784E-01
         -1   -1    0    0    0  501 -0.00000000000E+00  0.00000000000E+00  0.13595523288E+04  0.13595523288E+04  0.00000000000E+00 0.  1.
          1   -1    0    0  501    0  0.00000000000E+00 -0.00000000000E+00 -0.17752641172E+04  0.17752641172E+04  0.00000000000E+00 0. -1.
         23    2    1    2    0    0  0.11956751955E+04  0.23837929092E+02 -0.96581144476E+03  0.15400015671E+04  0.92766695265E+02 0.  0.
        254    2    1    2    0    0 -0.11956751955E+04 -0.23837929092E+02  0.55009965637E+03  0.15948148789E+04  0.90034296023E+03 0.  0.
         23    2    4    4    0    0 -0.67405349756E+03  0.41882703085E+03  0.21491486103E+03  0.82728371867E+03  0.91900785314E+02 0.  0.
         23    2    4    4    0    0 -0.52162169798E+03 -0.44266495994E+03  0.33518479534E+03  0.76753116026E+03  0.93347589037E+02 0.  0.
         11    1    3    3    0    0  0.10269485737E+04  0.45592880323E+02 -0.80165330608E+03  0.13035912346E+04  0.00000000000E+00 0. -1.
        -11    1    3    3    0    0  0.16872662182E+03 -0.21754951230E+02 -0.16415813868E+03  0.23641033249E+03  0.00000000000E+00 0.  1.
          4    1    5    5  502    0 -0.55903027040E+03  0.38083098611E+03  0.19912453443E+03  0.70512244569E+03  0.00000000000E+00 0. -1.
          3    1    6    6  503    0 -0.33319939555E+03 -0.26518363422E+03  0.25587065642E+03  0.49680377401E+03  0.00000000000E+00 0. -1.
         -4    1    5    5    0  502 -0.11502322716E+03  0.37996044742E+02  0.15790326606E+02  0.12216127298E+03  0.00000000000E+00 0.  1.
         -3    1    6    6    0  503 -0.18842230243E+03 -0.17748132573E+03  0.79314138918E+02  0.27072738625E+03  0.00000000000E+00 0.  1.
<mgrwt>
<rscale>  0 0.31071302E+04</rscale>
<asrwt>0</asrwt>
<pdfrwt beam="1">  1        1 0.27311756E+00 0.31071302E+04</pdfrwt>
<pdfrwt beam="2">  1       -1 0.20916190E+00 0.31071302E+04</pdfrwt>
<totfact> 0.46522676E-01</totfact>
</mgrwt>
</event>
<event>
12    1  0.4403484E-008  0.1697315E+04  0.7818608E-02  0.8762897E-01
         -2   -1    0    0    0  501 -0.00000000000E+00  0.00000000000E+00  0.63845918226E+03  0.63845918226E+03  0.00000000000E+00 0.  1.
          2   -1    0    0  501    0  0.00000000000E+00 -0.00000000000E+00 -0.11280587000E+04  0.11280587000E+04  0.00000000000E+00 0. -1.
         23    2    1    2    0    0 -0.10605578974E+03 -0.21082988710E+03 -0.76110947749E+03  0.80241522717E+03  0.94262867822E+02 0.  0.
        254    2    1    2    0    0  0.10605578974E+03  0.21082988710E+03  0.27150995971E+03  0.96410265513E+03  0.89447146381E+03 0.  0.
         23    2    4    4    0    0  0.71963233670E+02 -0.24009547324E+03  0.40353302536E+03  0.48434286554E+03  0.94469918862E+02 0.  0.
         23    2    4    4    0    0  0.34092556067E+02  0.45092536034E+03 -0.13202306565E+03  0.47975978959E+03  0.90793077222E+02 0.  0.
         11    1    3    3    0    0 -0.10766871081E+03 -0.18563439236E+03 -0.73661687378E+03  0.76723992184E+03  0.00000000000E+00 0. -1.
        -11    1    3    3    0    0  0.16129210753E+01 -0.25195494739E+02 -0.24492603703E+02  0.35175305339E+02  0.00000000000E+00 0.  1.
          4    1    5    5  502    0  0.55497115396E+02 -0.94387073942E+02  0.24521213172E+03  0.26854764770E+03  0.00000000000E+00 0.  1.
          3    1    6    6  503    0 -0.95980450516E+01  0.16980891025E+03 -0.10509879308E+02  0.17040436037E+03  0.00000000000E+00 0. -1.
         -4    1    5    5    0  502  0.16466118274E+02 -0.14570839929E+03  0.15832089364E+03  0.21579521783E+03  0.00000000000E+00 0. -1.
         -3    1    6    6    0  503  0.43690601119E+02  0.28111645009E+03 -0.12151318634E+03  0.30935542922E+03  0.00000000000E+00 0.  1.
<mgrwt>
<rscale>  0 0.16973149E+04</rscale>
<asrwt>0</asrwt>
<pdfrwt beam="1">  1        2 0.17354749E+00 0.16973149E+04</pdfrwt>
<pdfrwt beam="2">  1       -2 0.98224490E-01 0.16973149E+04</pdfrwt>
<totfact> 0.17175239E+01</totfact>
</mgrwt>
</event>
<event>
12    1  0.4403484E-008  0.2047552E+04  0.7818608E-02  0.8584706E-01
          1   -1    0    0  501    0  0.00000000000E+00  0.00000000000E+00  0.83898589172E+03  0.83898589172E+03  0.00000000000E+00 0. -1.
         -1   -1    0    0    0  501 -0.00000000000E+00 -0.00000000000E+00 -0.12492663206E+04  0.12492663206E+04  0.00000000000E+00 0.  1.
         23    2    1    2    0    0  0.51372031019E+03  0.48345797373E+03 -0.63059287669E+03  0.95083288301E+03  0.93784997795E+02 0.  0.
        254    2    1    2    0    0 -0.51372031019E+03 -0.48345797373E+03  0.22031244777E+03  0.11374193294E+04  0.86460683938E+03 0.  0.
         23    2    4    4    0    0 -0.64551313780E+03 -0.86695514369E+02  0.26054323047E+03  0.70745700838E+03  0.91702347212E+02 0.  0.
         23    2    4    4    0    0  0.13179282761E+03 -0.39676245936E+03 -0.40230782700E+02  0.42996232099E+03  0.91974360672E+02 0.  0.
         11    1    3    3    0    0  0.22928699961E+03  0.27742150458E+03 -0.33724619132E+03  0.49322430288E+03  0.00000000000E+00 0. -1.
        -11    1    3    3    0    0  0.28443331058E+03  0.20603646915E+03 -0.29334668537E+03  0.45760858013E+03  0.00000000000E+00 0.  1.
          4    1    5    5  502    0 -0.63943150772E+03 -0.80605141292E+02  0.26604226443E+03  0.69724337812E+03  0.00000000000E+00 0. -1.
          1    1    6    6  503    0  0.12732525146E+03 -0.37646879096E+03 -0.59229433913E+02  0.40180666504E+03  0.00000000000E+00 0. -1.
         -4    1    5    5    0  502 -0.60816300781E+01 -0.60903730765E+01 -0.54990339626E+01  0.10213630263E+02  0.00000000000E+00 0.  1.
         -1    1    6    6    0  503  0.44675761480E+01 -0.20293668399E+02  0.18998651213E+02  0.28155655944E+02  0.00000000000E+00 0.  1.
<mgrwt>
<rscale>  0 0.20475515E+04</rscale>
<asrwt>0</asrwt>
<pdfrwt beam="1">  1        1 0.12907475E+00 0.20475515E+04</pdfrwt>
<pdfrwt beam="2">  1       -1 0.19219482E+00 0.20475515E+04</pdfrwt>
<totfact> 0.32239538E+00</totfact>
</mgrwt>
</event>
<event>
12    1  0.4403484E-008  0.2539419E+04  0.7818608E-02  0.8389075E-01
         -1   -1    0    0    0  501 -0.00000000000E+00  0.00000000000E+00  0.13766430664E+04  0.13766430664E+04  0.00000000000E+00 0.  1.
          1   -1    0    0  501    0  0.00000000000E+00 -0.00000000000E+00 -0.11710825758E+04  0.11710825758E+04  0.00000000000E+00 0. -1.
         23    2    1    2    0    0 -0.73189254365E+03 -0.27575314697E+03 -0.70193222467E+03  0.10549025020E+04  0.91673045329E+02 0.  0.
        254    2    1    2    0    0  0.73189254365E+03  0.27575314697E+03  0.90749271525E+03  0.14928231402E+04  0.89065785026E+03 0.  0.
         23    2    4    4    0    0  0.45261161509E+03  0.26805125840E+03 -0.55297247566E+01  0.53380115739E+03  0.90577847907E+02 0.  0.
         23    2    4    4    0    0  0.27928092856E+03  0.77018885743E+01  0.91302244001E+03  0.95902198283E+03  0.89755397873E+02 0.  0.
         13    1    3    3    0    0 -0.41550689510E+03 -0.19782124907E+03 -0.44208400811E+03  0.63813595471E+03  0.00000000000E+00 0. -1.
        -13    1    3    3    0    0 -0.31638564855E+03 -0.77931897898E+02 -0.25984821656E+03  0.41676654732E+03  0.00000000000E+00 0.  1.
          4    1    5    5  502    0  0.41376268524E+03  0.27064776403E+03  0.38561204157E+00  0.49441877044E+03  0.00000000000E+00 0.  1.
          1    1    6    6  503    0  0.20358650962E+03  0.44991596300E+02  0.62213592233E+03  0.65614389922E+03  0.00000000000E+00 0. -1.
         -4    1    5    5    0  502  0.38848929850E+02 -0.25965056330E+01 -0.59153367982E+01  0.39382386945E+02  0.00000000000E+00 0. -1.
         -1    1    6    6    0  503  0.75694418937E+02 -0.37289707726E+02  0.29088651768E+03  0.30287808361E+03  0.00000000000E+00 0.  1.
<mgrwt>
<rscale>  0 0.25394194E+04</rscale>
<asrwt>0</asrwt>
<pdfrwt beam="1">  1        1 0.18016655E+00 0.25394194E+04</pdfrwt>
<pdfrwt beam="2">  1       -1 0.21179124E+00 0.25394194E+04</pdfrwt>
<totfact> 0.12420330E+00</totfact>
</mgrwt>
</event>
<event>
12    1  0.4403484E-008  0.2190986E+04  0.7818608E-02  0.8522189E-01
         -1   -1    0    0    0  501 -0.00000000000E+00  0.00000000000E+00  0.10949640390E+04  0.10949640390E+04  0.00000000000E+00 0.  1.
          1   -1    0    0  501    0  0.00000000000E+00 -0.00000000000E+00 -0.10960221036E+04  0.10960221036E+04  0.00000000000E+00 0. -1.
         23    2    1    2    0    0 -0.30884563172E+02 -0.38045185815E+03 -0.83312959992E+03  0.92092503397E+03  0.91107163886E+02 0.  0.
        254    2    1    2    0    0  0.30884563172E+02  0.38045185815E+03  0.83207153537E+03  0.12700611086E+04  0.88034919611E+03 0.  0.
         23    2    4    4    0    0  0.40686566824E+03  0.97461220987E+02  0.60062871117E+03  0.73783831246E+03  0.92801751392E+02 0.  0.
         23    2    4    4    0    0 -0.37598110507E+03  0.28299063716E+03  0.23144282420E+03  0.53222279618E+03  0.90828584778E+02 0.  0.
         11    1    3    3    0    0 -0.24430484198E+02 -0.36484324852E+03 -0.82452445738E+03  0.90196897140E+03  0.00000000000E+00 0. -1.
        -11    1    3    3    0    0 -0.64540789740E+01 -0.15608609625E+02 -0.86051425383E+01  0.18956062564E+02  0.00000000000E+00 0.  1.
          1    1    5    5  502    0  0.10654115251E+03  0.59856674445E+02  0.13122810631E+03  0.17931718975E+03  0.00000000000E+00 0. -1.
          3    1    6    6  503    0 -0.26421848580E+03  0.15950721436E+03  0.18283780594E+03  0.35872499627E+03  0.00000000000E+00 0. -1.
         -1    1    5    5    0  502  0.30032451572E+03  0.37604546542E+02  0.46940060487E+03  0.55852112271E+03  0.00000000000E+00 0.  1.
         -3    1    6    6    0  503 -0.11176261927E+03  0.12348342280E+03  0.48605018262E+02  0.17349779991E+03  0.00000000000E+00 0.  1.
<mgrwt>
<rscale>  0 0.21909859E+04</rscale>
<asrwt>0</asrwt>
<pdfrwt beam="1">  1        1 0.16861879E+00 0.21909859E+04</pdfrwt>
<pdfrwt beam="2">  1       -1 0.16845601E+00 0.21909859E+04</pdfrwt>
<totfact> 0.29426635E+00</totfact>
</mgrwt>
</event>
<event>
12    1  0.4403484E-008  0.2568525E+04  0.7818608E-02  0.8378972E-01
         -1   -1    0    0    0  501 -0.00000000000E+00  0.00000000000E+00  0.60715349019E+03  0.60715349019E+03  0.00000000000E+00 0.  1.
          1   -1    0    0  501    0  0.00000000000E+00 -0.00000000000E+00 -0.27164971670E+04  0.27164971670E+04  0.00000000000E+00 0. -1.
         23    2    1    2    0    0  0.53055575222E+02  0.54039100579E+03  0.34576961216E+03  0.65016964244E+03  0.91250238626E+02 0.  0.
        254    2    1    2    0    0 -0.53055575222E+02 -0.54039100579E+03 -0.24551132890E+04  0.26734810147E+04  0.90834032245E+03 0.  0.
         23    2    4    4    0    0  0.13950790093E+03 -0.66664453967E+03 -0.11087927055E+04  0.13046150710E+04  0.93390700834E+02 0.  0.
         23    2    4    4    0    0 -0.19256347616E+03  0.12625353388E+03 -0.13463205834E+04  0.13688659437E+04  0.90521883354E+02 0.  0.
         13    1    3    3    0    0  0.57925247372E+02  0.17128656955E+03  0.98976595785E+02  0.20613294182E+03  0.00000000000E+00 0. -1.
        -13    1    3    3    0    0 -0.48696721496E+01  0.36910443624E+03  0.24679301637E+03  0.44403670061E+03  0.00000000000E+00 0.  1.
          4    1    5    5  502    0  0.80907667789E+02 -0.20421039639E+03 -0.39855461454E+03  0.45507550744E+03  0.00000000000E+00 0.  1.
          3    1    6    6  503    0 -0.60470672960E+02  0.41484032893E+02 -0.69692041019E+03  0.70076792550E+03  0.00000000000E+00 0. -1.
         -4    1    5    5    0  502  0.58600233146E+02 -0.46243414328E+03 -0.71023809100E+03  0.84953956359E+03  0.00000000000E+00 0. -1.
         -3    1    6    6    0  503 -0.13209280320E+03  0.84769500983E+02 -0.64940017324E+03  0.66809801822E+03  0.00000000000E+00 0.  1.
<mgrwt>
<rscale>  0 0.25685254E+04</rscale>
<asrwt>0</asrwt>
<pdfrwt beam="1">  1        1 0.41792265E+00 0.25685254E+04</pdfrwt>
<pdfrwt beam="2">  1       -1 0.93408227E-01 0.25685254E+04</pdfrwt>
<totfact> 0.93801396E-01</totfact>
</mgrwt>
</event>
<event>
12    1  0.4403484E-008  0.2169636E+04  0.7818608E-02  0.8531174E-01
          1   -1    0    0  501    0  0.00000000000E+00  0.00000000000E+00  0.11744508048E+04  0.11744508048E+04  0.00000000000E+00 0. -1.
         -1   -1    0    0    0  501 -0.00000000000E+00 -0.00000000000E+00 -0.10020255080E+04  0.10020255080E+04  0.00000000000E+00 0.  1.
         23    2    1    2    0    0 -0.47484344678E+02 -0.37966705239E+03  0.88955494656E+03  0.97270426766E+03  0.91889910803E+02 0.  0.
        254    2    1    2    0    0  0.47484344678E+02  0.37966705239E+03 -0.71712964975E+03  0.12037720452E+04  0.88791349158E+03 0.  0.
         23    2    4    4    0    0  0.20690507426E+03 -0.22588377216E+03 -0.33901251720E+03  0.46631299101E+03  0.93194047486E+02 0.  0.
         23    2    4    4    0    0 -0.15942072958E+03  0.60555082456E+03 -0.37811713255E+03  0.73745905416E+03  0.93629698783E+02 0.  0.
         13    1    3    3    0    0 -0.33114015067E+02 -0.34692783812E+03  0.85357991735E+03  0.92198380580E+03  0.00000000000E+00 0. -1.
        -13    1    3    3    0    0 -0.14370329610E+02 -0.32739214272E+02  0.35975029212E+02  0.50720461858E+02  0.00000000000E+00 0.  1.
          2    1    5    5  502    0  0.14075545888E+03 -0.17795206866E+03 -0.18814956147E+03  0.29475293964E+03  0.00000000000E+00 0. -1.
          3    1    6    6  503    0 -0.44390854964E+02  0.33193980254E+03 -0.22523984039E+03  0.40359331785E+03  0.00000000000E+00 0. -1.
         -2    1    5    5    0  502  0.66149615377E+02 -0.47931703507E+02 -0.15086295573E+03  0.17156005137E+03  0.00000000000E+00 0.  1.
         -3    1    6    6    0  503 -0.11502987462E+03  0.27361102202E+03 -0.15287729216E+03  0.33386573631E+03  0.00000000000E+00 0.  1.
<mgrwt>
<rscale>  0 0.21696356E+04</rscale>
<asrwt>0</asrwt>
<pdfrwt beam="1">  1        1 0.18068474E+00 0.21696356E+04</pdfrwt>
<pdfrwt beam="2">  1       -1 0.15415777E+00 0.21696356E+04</pdfrwt>
<totfact> 0.33041644E+00</totfact>
</mgrwt>
</event>
<event>
12    1  0.4403484E-008  0.1455021E+04  0.7818608E-02  0.8914927E-01
         -1   -1    0    0    0  501 -0.00000000000E+00  0.00000000000E+00  0.60697133171E+03  0.60697133171E+03  0.00000000000E+00 0.  1.
          1   -1    0    0  501    0  0.00000000000E+00 -0.00000000000E+00 -0.87198763730E+03  0.87198763730E+03  0.00000000000E+00 0. -1.
         23    2    1    2    0    0 -0.63835005619E+01  0.12430300574E+03  0.35029916930E+03  0.38301512242E+03  0.92190507514E+02 0.  0.
        254    2    1    2    0    0  0.63835005619E+01 -0.12430300574E+03 -0.61531547489E+03  0.10959438466E+04  0.89832499406E+03 0.  0.
         23    2    4    4    0    0  0.28635503084E+03 -0.39792940634E+03 -0.27596292911E+03  0.57003861562E+03  0.91877466968E+02 0.  0.
         23    2    4    4    0    0 -0.27997153027E+03  0.27362640061E+03 -0.33935254577E+03  0.52590523098E+03  0.90336574966E+02 0.  0.
         11    1    3    3    0    0 -0.21485889469E+02 -0.65621485912E+01  0.64949414867E+02  0.68725044430E+02  0.00000000000E+00 0. -1.
        -11    1    3    3    0    0  0.15102388907E+02  0.13086515433E+03  0.28534975443E+03  0.31429007799E+03  0.00000000000E+00 0.  1.
          4    1    5    5  502    0  0.22378731453E+03 -0.28077906710E+03 -0.24187678671E+03  0.43292265662E+03  0.00000000000E+00 0.  1.
          1    1    6    6  503    0 -0.70579554624E+00  0.10123954956E+02  0.39131784667E+01  0.10876836719E+02  0.00000000000E+00 0. -1.
         -4    1    5    5    0  502  0.62567716305E+02 -0.11715033924E+03 -0.34086142401E+02  0.13711595900E+03  0.00000000000E+00 0. -1.
         -1    1    6    6    0  503 -0.27926573473E+03  0.26350244565E+03 -0.34326572424E+03  0.51502839426E+03  0.00000000000E+00 0.  1.
<mgrwt>
<rscale>  0 0.14550210E+04</rscale>
<asrwt>0</asrwt>
<pdfrwt beam="1">  1        1 0.13415194E+00 0.14550210E+04</pdfrwt>
<pdfrwt beam="2">  1       -1 0.93380205E-01 0.14550210E+04</pdfrwt>
<totfact> 0.20745326E+01</totfact>
</mgrwt>
</event>
<event>
12    1  0.4403484E-008  0.1949741E+04  0.7818608E-02  0.8630486E-01
          1   -1    0    0  501    0  0.00000000000E+00  0.00000000000E+00  0.15515678502E+04  0.15515678502E+04  0.00000000000E+00 0. -1.
         -1   -1    0    0    0  501 -0.00000000000E+00 -0.00000000000E+00 -0.61252412267E+03  0.61252412267E+03  0.00000000000E+00 0.  1.
         23    2    1    2    0    0  0.15565503373E+03 -0.17642539259E+03 -0.43508912721E+03  0.50158130931E+03  0.83227715057E+02 0.  0.
        254    2    1    2    0    0 -0.15565503373E+03  0.17642539259E+03  0.13741328548E+04  0.16625106636E+04  0.90572964803E+03 0.  0.
         23    2    4    4    0    0  0.96456850736E+01 -0.28734900471E+03  0.14565805734E+03  0.33587909779E+03  0.94530465567E+02 0.  0.
         23    2    4    4    0    0 -0.16530071880E+03  0.46377439730E+03  0.12284747974E+04  0.13266315658E+04  0.91596747925E+02 0.  0.
         11    1    3    3    0    0  0.36032711466E+01 -0.51306470326E+02 -0.11144649615E+03  0.12274224604E+03  0.00000000000E+00 0. -1.
        -11    1    3    3    0    0  0.15205176258E+03 -0.12511892227E+03 -0.32364263106E+03  0.37883906326E+03  0.00000000000E+00 0.  1.
          1    1    5    5  502    0  0.19967388283E+02 -0.12794813265E+03  0.11508385757E+03  0.17324466952E+03  0.00000000000E+00 0. -1.
          1    1    6    6  503    0 -0.86221843048E+02  0.28769162478E+03  0.63262284283E+03  0.70029446554E+03  0.00000000000E+00 0. -1.
         -1    1    5    5    0  502 -0.10321703210E+02 -0.15940087206E+03  0.30574199776E+02  0.16263442828E+03  0.00000000000E+00 0.  1.
         -1    1    6    6    0  503 -0.79078875756E+02  0.17608277251E+03  0.59585195460E+03  0.62633710027E+03  0.00000000000E+00 0.  1.
<mgrwt>
<rscale>  0 0.19497413E+04</rscale>
<asrwt>0</asrwt>
<pdfrwt beam="1">  1        1 0.23870275E+00 0.19497413E+04</pdfrwt>
<pdfrwt beam="2">  1       -1 0.94234481E-01 0.19497413E+04</pdfrwt>
<totfact> 0.61209045E+00</totfact>
</mgrwt>
</event>
<event>
12    1  0.4403484E-008  0.1539926E+04  0.7818608E-02  0.8858329E-01
          2   -1    0    0  501    0  0.00000000000E+00  0.00000000000E+00  0.10391851352E+04  0.10391851352E+04  0.00000000000E+00 0. -1.
         -2   -1    0    0    0  501 -0.00000000000E+00 -0.00000000000E+00 -0.57048801924E+03  0.57048801924E+03  0.00000000000E+00 0.  1.
         23    2    1    2    0    0 -0.32655452377E+03 -0.37282377140E+03  0.41662094315E+02  0.50558006864E+03  0.90774744205E+02 0.  0.
        254    2    1    2    0    0  0.32655452377E+03  0.37282377140E+03  0.42703502164E+03  0.11040930858E+04  0.88939710529E+03 0.  0.
         23    2    4    4    0    0  0.38266291745E+02  0.48698469245E+03  0.56524583934E+03  0.75250487945E+03  0.90234887584E+02 0.  0.
         23    2    4    4    0    0  0.28828823202E+03 -0.11416092105E+03 -0.13821081770E+03  0.35158820636E+03  0.91483419822E+02 0.  0.
         11    1    3    3    0    0 -0.28073181420E+03 -0.31611907991E+03  0.24216101909E+01  0.42278539282E+03  0.00000000000E+00 0.  1.
        -11    1    3    3    0    0 -0.45822709572E+02 -0.56704691492E+02  0.39240484124E+02  0.82794675819E+02  0.00000000000E+00 0. -1.
          1    1    5    5  502    0  0.16664993201E+02  0.22012402790E+03  0.32437217832E+03  0.39236414174E+03  0.00000000000E+00 0. -1.
          3    1    6    6  503    0  0.26747279289E+03 -0.78515506691E+02 -0.13622142199E+03  0.31026223672E+03  0.00000000000E+00 0. -1.
         -1    1    5    5    0  502  0.21601298544E+02  0.26686066454E+03  0.24087366103E+03  0.36014073771E+03  0.00000000000E+00 0.  1.
         -3    1    6    6    0  503  0.20815439133E+02 -0.35645414358E+02 -0.19893957151E+01  0.41325969636E+02  0.00000000000E+00 0.  1.
<mgrwt>
<rscale>  0 0.15399255E+04</rscale>
<asrwt>0</asrwt>
<pdfrwt beam="1">  1        2 0.15987464E+00 0.15399255E+04</pdfrwt>
<pdfrwt beam="2">  1       -2 0.87767388E-01 0.15399255E+04</pdfrwt>
<totfact> 0.25655449E+01</totfact>
</mgrwt>
</event>
<event>
12    1  0.4403484E-008  0.1113192E+04  0.7818608E-02  0.9192429E-01
         -2   -1    0    0    0  501 -0.00000000000E+00  0.00000000000E+00  0.17376012217E+03  0.17376012217E+03  0.00000000000E+00 0.  1.
          2   -1    0    0  501    0  0.00000000000E+00 -0.00000000000E+00 -0.17829125617E+04  0.17829125617E+04  0.00000000000E+00 0. -1.
         23    2    1    2    0    0  0.64969762277E+02 -0.13966247503E+03 -0.47641907980E+03  0.50880205945E+03  0.90430742370E+02 0.  0.
        254    2    1    2    0    0 -0.64969762277E+02  0.13966247503E+03 -0.11327333597E+04  0.14478706244E+04  0.88854814378E+03 0.  0.
         23    2    4    4    0    0 -0.25773069374E+03  0.12144053214E+03 -0.39551229596E+01  0.29899578936E+03  0.90608640410E+02 0.  0.
         23    2    4    4    0    0  0.19276093146E+03  0.18221942889E+02 -0.11287782367E+04  0.11488748350E+04  0.91017926251E+02 0.  0.
         13    1    3    3    0    0  0.23218219043E+02 -0.93851652226E+02 -0.16469547487E+03  0.19097596122E+03  0.00000000000E+00 0.  1.
        -13    1    3    3    0    0  0.41751543234E+02 -0.45810822804E+02 -0.31172360493E+03  0.31782609823E+03  0.00000000000E+00 0. -1.
          4    1    5    5  502    0 -0.22043451938E+03  0.76008611437E+02 -0.29261584320E+02  0.23499984397E+03  0.00000000000E+00 0. -1.
          1    1    6    6  503    0  0.19898591312E+03  0.69087369550E+01 -0.10132404277E+04  0.10326176875E+04  0.00000000000E+00 0. -1.
         -4    1    5    5    0  502 -0.37296174358E+02  0.45431920703E+02  0.25306461360E+02  0.63995945396E+02  0.00000000000E+00 0.  1.
         -1    1    6    6    0  503 -0.62249816586E+01  0.11313205934E+02 -0.11553780902E+03  0.11625714748E+03  0.00000000000E+00 0.  1.
<mgrwt>
<rscale>  0 0.11131920E+04</rscale>
<asrwt>0</asrwt>
<pdfrwt beam="1">  1        2 0.27429427E+00 0.11131920E+04</pdfrwt>
<pdfrwt beam="2">  1       -2 0.26732324E-01 0.11131920E+04</pdfrwt>
<totfact> 0.11112106E+02</totfact>
</mgrwt>
</event>
<event>
12    1  0.4403484E-008  0.2031979E+04  0.7818608E-02  0.8591814E-01
          1   -1    0    0  501    0  0.00000000000E+00  0.00000000000E+00  0.11017668644E+04  0.11017668644E+04  0.00000000000E+00 0. -1.
         -1   -1    0    0    0  501 -0.00000000000E+00 -0.00000000000E+00 -0.93689065055E+03  0.93689065055E+03  0.00000000000E+00 0.  1.
         23    2    1    2    0    0 -0.59308410753E+03  0.29053891687E+03 -0.37913593791E+03  0.76706158594E+03  0.92074949888E+02 0.  0.
        254    2    1    2    0    0  0.59308410753E+03 -0.29053891687E+03  0.54401215171E+03  0.12715959290E+04  0.94066219469E+03 0.  0.
         23    2    4    4    0    0  0.80745763442E+03 -0.23278466700E+03  0.58461770812E+03  0.10276849576E+04  0.90454269642E+02 0.  0.
         23    2    4    4    0    0 -0.21437352689E+03 -0.57754249865E+02 -0.40605556412E+02  0.24391097134E+03  0.92478042364E+02 0.  0.
         11    1    3    3    0    0 -0.34448187173E+03  0.20344798754E+03 -0.26565744497E+03  0.48024235720E+03  0.00000000000E+00 0.  1.
        -11    1    3    3    0    0 -0.24860223579E+03  0.87090929329E+02 -0.11347849294E+03  0.28681922873E+03  0.00000000000E+00 0. -1.
          2    1    5    5  502    0  0.13833757743E+02 -0.44978804281E+01 -0.20674079554E+01  0.14692785893E+02  0.00000000000E+00 0. -1.
          4    1    6    6  503    0 -0.51569050868E+01 -0.12126807932E+02  0.17619194568E+02  0.22002026223E+02  0.00000000000E+00 0. -1.
         -2    1    5    5    0  502  0.79362387667E+03 -0.22828678657E+03  0.58668511608E+03  0.10129921717E+04  0.00000000000E+00 0.  1.
         -4    1    6    6    0  503 -0.20921662180E+03 -0.45627441933E+02 -0.58224750980E+02  0.22190894512E+03  0.00000000000E+00 0.  1.
<mgrwt>
<rscale>  0 0.20319794E+04</rscale>
<asrwt>0</asrwt>
<pdfrwt beam="1">  1        1 0.16950260E+00 0.20319794E+04</pdfrwt>
<pdfrwt beam="2">  1       -1 0.14413702E+00 0.20319794E+04</pdfrwt>
<totfact> 0.45395571E+00</totfact>
</mgrwt>
</event>
<event>
12    1  0.4403484E-008  0.1345139E+04  0.7818608E-02  0.8994516E-01
         -2   -1    0    0    0  501 -0.00000000000E+00  0.00000000000E+00  0.16881477631E+03  0.16881477631E+03  0.00000000000E+00 0. -1.
          2   -1    0    0  501    0  0.00000000000E+00 -0.00000000000E+00 -0.26795605707E+04  0.26795605707E+04  0.00000000000E+00 0.  1.
         23    2    1    2    0    0  0.21868142705E+03  0.26900519863E+03 -0.81300890969E+03  0.88802810779E+03  0.86168843312E+02 0.  0.
        254    2    1    2    0    0 -0.21868142705E+03 -0.26900519863E+03 -0.16977368847E+04  0.19603472393E+04  0.91676900321E+03 0.  0.
         23    2    4    4    0    0 -0.26180475024E+02  0.29459601065E+03 -0.95210954703E+03  0.10017748451E+04  0.97816276091E+02 0.  0.
         23    2    4    4    0    0 -0.19250095203E+03 -0.56360120928E+03 -0.74562733771E+03  0.95857239421E+03  0.90542633924E+02 0.  0.
         11    1    3    3    0    0  0.40507506880E+02  0.31226231658E+02 -0.20523591125E+03  0.21151291905E+03  0.00000000000E+00 0. -1.
        -11    1    3    3    0    0  0.17817392017E+03  0.23777896697E+03 -0.60777299844E+03  0.67651518874E+03  0.00000000000E+00 0.  1.
          3    1    5    5  502    0 -0.26736681663E+02  0.13794831060E+02 -0.11250746920E+03  0.11646062912E+03  0.00000000000E+00 0. -1.
          3    1    6    6  503    0 -0.11118068315E+03 -0.20976360592E+03 -0.33292671391E+03  0.40890354793E+03  0.00000000000E+00 0. -1.
         -3    1    5    5    0  502  0.55620663916E+00  0.28080117959E+03 -0.83960207784E+03  0.88531421593E+03  0.00000000000E+00 0.  1.
         -3    1    6    6    0  503 -0.81320268883E+02 -0.35383760336E+03 -0.41270062380E+03  0.54966884628E+03  0.00000000000E+00 0.  1.
<mgrwt>
<rscale>  0 0.13451385E+04</rscale>
<asrwt>0</asrwt>
<pdfrwt beam="1">  1        2 0.41224007E+00 0.13451385E+04</pdfrwt>
<pdfrwt beam="2">  1       -2 0.25971505E-01 0.13451385E+04</pdfrwt>
<totfact> 0.35933997E+01</totfact>
</mgrwt>
</event>
<event>
12    1  0.4403484E-008  0.1269677E+04  0.7818608E-02  0.9053964E-01
          1   -1    0    0  501    0  0.00000000000E+00  0.00000000000E+00  0.12151194430E+04  0.12151194430E+04  0.00000000000E+00 0. -1.
         -1   -1    0    0    0  501 -0.00000000000E+00 -0.00000000000E+00 -0.33167087397E+03  0.33167087397E+03  0.00000000000E+00 0.  1.
         23    2    1    2    0    0 -0.19561973425E+03  0.22339816032E+03  0.12657359632E+03  0.33492149660E+03  0.89318056023E+02 0.  0.
        254    2    1    2    0    0  0.19561973425E+03 -0.22339816032E+03  0.75687497273E+03  0.12118688204E+04  0.89866150193E+03 0.  0.
         23    2    4    4    0    0  0.34208958020E+03 -0.39012921318E+03  0.81037485603E+03  0.96644657022E+03  0.89919308079E+02 0.  0.
         23    2    4    4    0    0 -0.14646984594E+03  0.16673105286E+03 -0.53499883293E+02  0.24542225018E+03  0.90095413939E+02 0.  0.
         11    1    3    3    0    0 -0.35603593208E+01  0.25388567269E+02 -0.94905609239E+01  0.27337268574E+02  0.00000000000E+00 0. -1.
        -11    1    3    3    0    0 -0.19205937493E+03  0.19800959305E+03  0.13606415725E+03  0.30758422802E+03  0.00000000000E+00 0.  1.
          2    1    5    5  502    0  0.38545171938E+02 -0.26582523092E+02  0.37438442432E+02  0.59949960679E+02  0.00000000000E+00 0. -1.
          3    1    6    6  503    0 -0.11015341001E+02  0.74040646119E+02 -0.92157231932E+01  0.75420717108E+02  0.00000000000E+00 0. -1.
         -2    1    5    5    0  502  0.30354440826E+03 -0.36354669008E+03  0.77293641359E+03  0.90649660954E+03  0.00000000000E+00 0.  1.
         -3    1    6    6    0  503 -0.13545450494E+03  0.92690406737E+02 -0.44284160099E+02  0.17000153307E+03  0.00000000000E+00 0.  1.
<mgrwt>
<rscale>  0 0.12696767E+04</rscale>
<asrwt>0</asrwt>
<pdfrwt beam="1">  1        1 0.18694145E+00 0.12696767E+04</pdfrwt>
<pdfrwt beam="2">  1       -1 0.51026289E-01 0.12696767E+04</pdfrwt>
<totfact> 0.39598341E+01</totfact>
</mgrwt>
</event>
<event>
12    1  0.4403484E-008  0.1708444E+04  0.7818608E-02  0.8756563E-01
         -2   -1    0    0    0  501 -0.00000000000E+00  0.00000000000E+00  0.47859365126E+03  0.47859365126E+03  0.00000000000E+00 0.  1.
          2   -1    0    0  501    0  0.00000000000E+00 -0.00000000000E+00 -0.15246662658E+04  0.15246662658E+04  0.00000000000E+00 0. -1.
         23    2    1    2    0    0 -0.10509122201E+02 -0.57516209306E+03 -0.62059390311E+03  0.85121441999E+03  0.92235141191E+02 0.  0.
        254    2    1    2    0    0  0.10509122201E+02  0.57516209306E+03 -0.42547871147E+03  0.11520454971E+04  0.90291462419E+03 0.  0.
         23    2    4    4    0    0 -0.60246866099E+01  0.41058471707E+03 -0.70149769981E+03  0.81787819759E+03  0.90606934202E+02 0.  0.
         23    2    4    4    0    0  0.16533808811E+02  0.16457737599E+03  0.27601898834E+03  0.33416729953E+03  0.90123374486E+02 0.  0.
         11    1    3    3    0    0  0.19849510098E+02 -0.32040698866E+02 -0.29097047433E+02  0.47615623531E+02  0.00000000000E+00 0. -1.
        -11    1    3    3    0    0 -0.30358632299E+02 -0.54312139420E+03 -0.59149685568E+03  0.80359879646E+03  0.00000000000E+00 0.  1.
          2    1    5    5  502    0 -0.11071821535E+02  0.45275387200E+01 -0.39309881789E+02  0.41089544232E+02  0.00000000000E+00 0. -1.
          1    1    6    6  503    0 -0.35024000370E+02  0.38021595516E+02  0.77670803249E+02  0.93300996805E+02  0.00000000000E+00 0. -1.
         -2    1    5    5    0  502  0.50471349247E+01  0.40605717835E+03 -0.66218781802E+03  0.77678865336E+03  0.00000000000E+00 0.  1.
         -1    1    6    6    0  503  0.51557809181E+02  0.12655578048E+03  0.19834818509E+03  0.24086630272E+03  0.00000000000E+00 0.  1.
<mgrwt>
<rscale>  0 0.17084444E+04</rscale>
<asrwt>0</asrwt>
<pdfrwt beam="1">  1        2 0.23456404E+00 0.17084444E+04</pdfrwt>
<pdfrwt beam="2">  1       -2 0.73629793E-01 0.17084444E+04</pdfrwt>
<totfact> 0.19443739E+01</totfact>
</mgrwt>
</event>
<event>
12    1  0.4403484E-008  0.1524548E+04  0.7818608E-02  0.8868291E-01
         -1   -1    0    0    0  501 -0.00000000000E+00  0.00000000000E+00  0.20445955907E+04  0.20445955907E+04  0.00000000000E+00 0.  1.
          1   -1    0    0  501    0  0.00000000000E+00 -0.00000000000E+00 -0.28419409109E+03  0.28419409109E+03  0.00000000000E+00 0. -1.
         23    2    1    2    0    0  0.34831692710E+02  0.40207739328E+03  0.99599970438E+03  0.10778510853E+04  0.82873844040E+02 0.  0.
        254    2    1    2    0    0 -0.34831692710E+02 -0.40207739328E+03  0.76440179519E+03  0.12509385964E+04  0.90424432014E+03 0.  0.
         23    2    4    4    0    0  0.30287038718E+03 -0.49966104202E+03  0.30356172134E+03  0.66421974603E+03  0.87444405264E+02 0.  0.
         23    2    4    4    0    0 -0.33770207989E+03  0.97583648734E+02  0.46084007385E+03  0.58671885039E+03  0.91105282362E+02 0.  0.
         13    1    3    3    0    0 -0.87884957075E+01  0.13339770136E+01  0.22251232216E+02  0.23961103618E+02  0.00000000000E+00 0. -1.
        -13    1    3    3    0    0  0.43620188418E+02  0.40074341627E+03  0.97374847216E+03  0.10538899817E+04  0.00000000000E+00 0.  1.
          2    1    5    5  502    0  0.10202163667E+03 -0.11011205473E+03  0.51914856558E+02  0.15883397394E+03  0.00000000000E+00 0. -1.
          1    1    6    6  503    0 -0.26576165661E+03  0.49710190653E+02  0.29801788116E+03  0.40238665319E+03  0.00000000000E+00 0. -1.
         -2    1    5    5    0  502  0.20084875051E+03 -0.38954898728E+03  0.25164686478E+03  0.50538577209E+03  0.00000000000E+00 0.  1.
         -1    1    6    6    0  503 -0.71940423283E+02  0.47873458082E+02  0.16282219269E+03  0.18433219720E+03  0.00000000000E+00 0.  1.
<mgrwt>
<rscale>  0 0.15245484E+04</rscale>
<asrwt>0</asrwt>
<pdfrwt beam="1">  1        1 0.43722169E-01 0.15245484E+04</pdfrwt>
<pdfrwt beam="2">  1       -1 0.31455316E+00 0.15245484E+04</pdfrwt>
<totfact> 0.24203176E+00</totfact>
</mgrwt>
</event>
<event>
12    1  0.4403484E-008  0.2583773E+04  0.7818608E-02  0.8373734E-01
         -2   -1    0    0    0  501 -0.00000000000E+00  0.00000000000E+00  0.11262027391E+04  0.11262027391E+04  0.00000000000E+00 0.  1.
          2   -1    0    0  501    0  0.00000000000E+00 -0.00000000000E+00 -0.14819449435E+04  0.14819449435E+04  0.00000000000E+00 0. -1.
         23    2    1    2    0    0  0.80785796567E+03  0.38459904599E+03  0.54325344560E+03  0.10501221218E+04  0.84150138226E+02 0.  0.
        254    2    1    2    0    0 -0.80785796567E+03 -0.38459904599E+03 -0.89899565005E+03  0.15580255608E+04  0.90482017571E+03 0.  0.
         23    2    4    4    0    0 -0.77209062829E+03 -0.12720187992E+03 -0.20915981946E+03  0.81518559795E+03  0.92062329374E+02 0.  0.
         23    2    4    4    0    0 -0.35767337389E+02 -0.25739716607E+03 -0.68983583059E+03  0.74283996283E+03  0.91679516204E+02 0.  0.
         13    1    3    3    0    0  0.19715844106E+03  0.69188117843E+02  0.94979893133E+02  0.22952042748E+03  0.00000000000E+00 0. -1.
        -13    1    3    3    0    0  0.61069952461E+03  0.31541092814E+03  0.44827355247E+03  0.82060169436E+03  0.00000000000E+00 0.  1.
          4    1    5    5  502    0 -0.23502734204E+01 -0.20819857021E+01  0.55045170926E+01  0.63370464758E+01  0.00000000000E+00 0. -1.
          3    1    6    6  503    0  0.71745412085E+01 -0.12415996395E+03 -0.22145163490E+03  0.25398424615E+03  0.00000000000E+00 0. -1.
         -4    1    5    5    0  502 -0.76974035487E+03 -0.12511989422E+03 -0.21466433655E+03  0.80884855147E+03  0.00000000000E+00 0.  1.
         -3    1    6    6    0  503 -0.42941878597E+02 -0.13323720211E+03 -0.46838419569E+03  0.48885571669E+03  0.00000000000E+00 0.  1.
<mgrwt>
<rscale>  0 0.25837728E+04</rscale>
<asrwt>0</asrwt>
<pdfrwt beam="1">  1        2 0.22799153E+00 0.25837728E+04</pdfrwt>
<pdfrwt beam="2">  1       -2 0.17326196E+00 0.25837728E+04</pdfrwt>
<totfact> 0.23266848E+00</totfact>
</mgrwt>
</event>
<event>
12    1  0.4403484E-008  0.2590753E+04  0.7818608E-02  0.8371349E-01
         -1   -1    0    0    0  501 -0.00000000000E+00  0.00000000000E+00  0.60969727306E+03  0.60969727306E+03  0.00000000000E+00 0.  1.
          1   -1    0    0  501    0  0.00000000000E+00 -0.00000000000E+00 -0.27521864643E+04  0.27521864643E+04  0.00000000000E+00 0. -1.
         23    2    1    2    0    0  0.10962900981E+04 -0.12045436566E+03 -0.13073952202E+04  0.17129630906E+04  0.92731086945E+02 0.  0.
        254    2    1    2    0    0 -0.10962900981E+04  0.12045436566E+03 -0.83509397104E+03  0.16489206468E+04  0.89732721217E+03 0.  0.
         23    2    4    4    0    0 -0.11841628294E+03 -0.16743543191E+03 -0.53863566701E+03  0.58338369413E+03  0.90283513897E+02 0.  0.
         23    2    4    4    0    0 -0.97787381512E+03  0.28788979757E+03 -0.29645830403E+03  0.10655369527E+04  0.91453472611E+02 0.  0.
         13    1    3    3    0    0  0.74647477975E+03 -0.81208002320E+02 -0.95538008601E+03  0.12151421502E+04  0.00000000000E+00 0. -1.
        -13    1    3    3    0    0  0.34981531832E+03 -0.39246363336E+02 -0.35201513424E+03  0.49782094040E+03  0.00000000000E+00 0.  1.
          4    1    5    5  502    0 -0.94160238587E+01 -0.89696114160E+02 -0.21619072306E+03  0.23424876337E+03  0.00000000000E+00 0. -1.
          3    1    6    6  503    0 -0.39429551521E+03  0.14387257171E+03 -0.84285802056E+02  0.42810321960E+03  0.00000000000E+00 0. -1.
         -4    1    5    5    0  502 -0.10900025908E+03 -0.77739317750E+02 -0.32244494395E+03  0.34913493077E+03  0.00000000000E+00 0.  1.
         -3    1    6    6    0  503 -0.58357829991E+03  0.14401722586E+03 -0.21217250197E+03  0.63743373308E+03  0.00000000000E+00 0.  1.
<mgrwt>
<rscale>  0 0.25907532E+04</rscale>
<asrwt>0</asrwt>
<pdfrwt beam="1">  1        1 0.42341331E+00 0.25907532E+04</pdfrwt>
<pdfrwt beam="2">  1       -1 0.93799580E-01 0.25907532E+04</pdfrwt>
<totfact> 0.87499389E-01</totfact>
</mgrwt>
</event>
<event>
12    1  0.4403484E-008  0.1798707E+04  0.7818608E-02  0.8706988E-01
         -2   -1    0    0    0  501 -0.00000000000E+00  0.00000000000E+00  0.45453041435E+03  0.45453041435E+03  0.00000000000E+00 0.  1.
          2   -1    0    0  501    0  0.00000000000E+00 -0.00000000000E+00 -0.17794991669E+04  0.17794991669E+04  0.00000000000E+00 0. -1.
         23    2    1    2    0    0 -0.41924904036E+03 -0.56823282603E+02 -0.11541831890E+04  0.12326701785E+04  0.91314248317E+02 0.  0.
        254    2    1    2    0    0  0.41924904036E+03  0.56823282603E+02 -0.17078556349E+03  0.10013594027E+04  0.89137775457E+03 0.  0.
         23    2    4    4    0    0 -0.26430778098E+00  0.40055507703E+03 -0.18749306349E+03  0.45164045475E+03  0.91547866803E+02 0.  0.
         23    2    4    4    0    0  0.41951334814E+03 -0.34373179443E+03  0.16707500004E+02  0.54971894792E+03  0.88140713514E+02 0.  0.
         11    1    3    3    0    0 -0.18058755637E+03 -0.59736107555E+02 -0.59544358236E+03  0.62508665626E+03  0.00000000000E+00 0. -1.
        -11    1    3    3    0    0 -0.23866148399E+03  0.29128249515E+01 -0.55873960667E+03  0.60758352228E+03  0.00000000000E+00 0.  1.
          2    1    5    5  502    0  0.44464237191E+02  0.16191383430E+03 -0.70118539273E+02  0.18196089601E+03  0.00000000000E+00 0. -1.
          3    1    6    6  503    0  0.14483705103E+02 -0.36193138043E+02  0.13178508306E+02  0.41150869202E+02  0.00000000000E+00 0. -1.
         -2    1    5    5    0  502 -0.44728544972E+02  0.23864124274E+03 -0.11737452422E+03  0.26967955875E+03  0.00000000000E+00 0.  1.
         -3    1    6    6    0  503  0.40502964304E+03 -0.30753865639E+03  0.35289916987E+01  0.50856807872E+03  0.00000000000E+00 0.  1.
<mgrwt>
<rscale>  0 0.17987068E+04</rscale>
<asrwt>0</asrwt>
<pdfrwt beam="1">  1        2 0.27376910E+00 0.17987068E+04</pdfrwt>
<pdfrwt beam="2">  1       -2 0.69927757E-01 0.17987068E+04</pdfrwt>
<totfact> 0.15580354E+01</totfact>
</mgrwt>
</event>
<event>
12    1  0.4403484E-008  0.2036786E+04  0.7818608E-02  0.8589612E-01
          2   -1    0    0  501    0  0.00000000000E+00  0.00000000000E+00  0.89560443360E+03  0.89560443360E+03  0.00000000000E+00 0. -1.
         -2   -1    0    0    0  501 -0.00000000000E+00 -0.00000000000E+00 -0.11580163925E+04  0.11580163925E+04  0.00000000000E+00 0.  1.
         23    2    1    2    0    0  0.49933916481E+03 -0.47358655113E+03  0.34108098485E+03  0.77418003522E+03  0.96926084096E+02 0.  0.
        254    2    1    2    0    0 -0.49933916481E+03  0.47358655113E+03 -0.60349294370E+03  0.12794407908E+04  0.89394696780E+03 0.  0.
         23    2    4    4    0    0 -0.42656535829E+03  0.70453255913E+03 -0.30072409995E+03  0.88102295685E+03  0.86268965755E+02 0.  0.
         23    2    4    4    0    0 -0.72773806523E+02 -0.23094600799E+03 -0.30276884375E+03  0.39841783398E+03  0.91846133105E+02 0.  0.
         11    1    3    3    0    0  0.20699732422E+03 -0.24826303516E+03  0.19308045848E+03  0.37651359910E+03  0.00000000000E+00 0. -1.
        -11    1    3    3    0    0  0.29234184058E+03 -0.22532351598E+03  0.14800052637E+03  0.39766643612E+03  0.00000000000E+00 0.  1.
          2    1    5    5  502    0 -0.71212942322E+02  0.15188350940E+03 -0.30063214418E+02  0.17042206560E+03  0.00000000000E+00 0. -1.
          3    1    6    6  503    0 -0.79860771723E+02 -0.17572910482E+03 -0.18137812318E+03  0.26487069432E+03  0.00000000000E+00 0.  1.
         -2    1    5    5    0  502 -0.35535241596E+03  0.55264904973E+03 -0.27066088553E+03  0.71060089126E+03  0.00000000000E+00 0.  1.
         -3    1    6    6    0  503  0.70869652003E+01 -0.55216903172E+02 -0.12139072057E+03  0.13354713966E+03  0.00000000000E+00 0. -1.
<mgrwt>
<rscale>  0 0.20367863E+04</rscale>
<asrwt>0</asrwt>
<pdfrwt beam="1">  1        2 0.13778530E+00 0.20367863E+04</pdfrwt>
<pdfrwt beam="2">  1       -2 0.17815637E+00 0.20367863E+04</pdfrwt>
<totfact> 0.51052384E+00</totfact>
</mgrwt>
</event>
<event>
12    1  0.4403484E-008  0.1979865E+04  0.7818608E-02  0.8616093E-01
          1   -1    0    0  501    0  0.00000000000E+00  0.00000000000E+00  0.27213382308E+03  0.27213382308E+03  0.00000000000E+00 0. -1.
         -1   -1    0    0    0  501 -0.00000000000E+00 -0.00000000000E+00 -0.36010464113E+04  0.36010464113E+04  0.00000000000E+00 0.  1.
         23    2    1    2    0    0 -0.17125889188E+03 -0.30189108428E+03  0.46588317567E+02  0.36149088101E+03  0.89651273836E+02 0.  0.
        254    2    1    2    0    0  0.17125889188E+03  0.30189108428E+03 -0.33755009058E+04  0.35116893534E+04  0.90415038288E+03 0.  0.
         23    2    4    4    0    0  0.74575041493E+02  0.16294296330E+03 -0.32952330383E+04  0.33013567178E+04  0.91014040181E+02 0.  0.
         23    2    4    4    0    0  0.96683850390E+02  0.13894812097E+03 -0.80267867479E+02  0.21033263555E+03  0.95616629193E+02 0.  0.
         13    1    3    3    0    0  0.86681393858E+01 -0.81718641813E+01 -0.55088841044E+01  0.13124930807E+02  0.00000000000E+00 0.  1.
        -13    1    3    3    0    0 -0.17992703127E+03 -0.29371922010E+03  0.52097201671E+02  0.34836595020E+03  0.00000000000E+00 0. -1.
          3    1    5    5  502    0  0.78491958671E+02  0.17096326235E+03 -0.29405210414E+04  0.29465324400E+04  0.00000000000E+00 0. -1.
          3    1    6    6  503    0  0.84910298637E+02  0.78330823526E+02 -0.87622437499E+01  0.11585445026E+03  0.00000000000E+00 0. -1.
         -3    1    5    5    0  502 -0.39169171787E+01 -0.80202990487E+01 -0.35471199688E+03  0.35482427787E+03  0.00000000000E+00 0.  1.
         -3    1    6    6    0  503  0.11773551753E+02  0.60617297448E+02 -0.71505623729E+02  0.94478185290E+02  0.00000000000E+00 0.  1.
<mgrwt>
<rscale>  0 0.19798652E+04</rscale>
<asrwt>0</asrwt>
<pdfrwt beam="1">  1        1 0.41866743E-01 0.19798652E+04</pdfrwt>
<pdfrwt beam="2">  1       -1 0.55400712E+00 0.19798652E+04</pdfrwt>
<totfact> 0.65217570E-02</totfact>
</mgrwt>
</event>
<event>
12    1  0.4403484E-008  0.1631679E+04  0.7818608E-02  0.8801319E-01
          2   -1    0    0  501    0  0.00000000000E+00  0.00000000000E+00  0.42040111830E+04  0.42040111830E+04  0.00000000000E+00 0. -1.
         -2   -1    0    0    0  501 -0.00000000000E+00 -0.00000000000E+00 -0.15832357220E+03  0.15832357220E+03  0.00000000000E+00 0.  1.
         23    2    1    2    0    0  0.12022117270E+02 -0.25661972244E+03  0.28091255768E+04  0.28223690373E+04  0.92640505765E+02 0.  0.
        254    2    1    2    0    0 -0.12022117270E+02  0.25661972244E+03  0.12365620340E+04  0.15399657179E+04  0.88114160897E+03 0.  0.
         23    2    4    4    0    0  0.24338788671E+03 -0.15888340326E+03  0.87338437220E+03  0.92497099732E+03  0.91046609276E+02 0.  0.
         23    2    4    4    0    0 -0.25541000398E+03  0.41550312570E+03  0.36317766182E+03  0.61499472057E+03  0.91887837531E+02 0.  0.
         13    1    3    3    0    0  0.58087400526E+01 -0.12318349095E+03  0.87654944785E+03  0.88518181659E+03  0.00000000000E+00 0.  1.
        -13    1    3    3    0    0  0.62133772171E+01 -0.13343623149E+03  0.19325761290E+04  0.19371872207E+04  0.00000000000E+00 0. -1.
          3    1    5    5  502    0  0.19816505132E+03 -0.15051861022E+03  0.63166097077E+03  0.67891149761E+03  0.00000000000E+00 0. -1.
          3    1    6    6  503    0 -0.21746686301E+03  0.29229506467E+03  0.23712229787E+03  0.43468980376E+03  0.00000000000E+00 0. -1.
         -3    1    5    5    0  502  0.45222835392E+02 -0.83647930386E+01  0.24172340143E+03  0.24605949972E+03  0.00000000000E+00 0.  1.
         -3    1    6    6    0  503 -0.37943140970E+02  0.12320806103E+03  0.12605536394E+03  0.18030491681E+03  0.00000000000E+00 0.  1.
<mgrwt>
<rscale>  0 0.16316790E+04</rscale>
<asrwt>0</asrwt>
<pdfrwt beam="1">  1        2 0.64677087E+00 0.16316790E+04</pdfrwt>
<pdfrwt beam="2">  1       -2 0.24357476E-01 0.16316790E+04</pdfrwt>
<totfact> 0.33960946E+00</totfact>
</mgrwt>
</event>
<event>
12    1  0.4403484E-008  0.1551863E+04  0.7818608E-02  0.8850679E-01
          1   -1    0    0  501    0  0.00000000000E+00  0.00000000000E+00  0.10998566146E+04  0.10998566146E+04  0.00000000000E+00 0. -1.
         -1   -1    0    0    0  501 -0.00000000000E+00 -0.00000000000E+00 -0.54740723941E+03  0.54740723941E+03  0.00000000000E+00 0.  1.
         23    2    1    2    0    0  0.10784770367E+03 -0.24924552159E+03 -0.27317228275E+03  0.39589028418E+03  0.91386890890E+02 0.  0.
        254    2    1    2    0    0 -0.10784770367E+03  0.24924552159E+03  0.82562165799E+03  0.12513735699E+04  0.90029452515E+03 0.  0.
         23    2    4    4    0    0 -0.31250579806E+02 -0.27335413073E+03  0.29146577190E+02  0.29121618311E+03  0.90874984555E+02 0.  0.
         23    2    4    4    0    0 -0.76597123860E+02  0.52259965232E+03  0.79647508080E+03  0.96015738676E+03  0.92477765078E+02 0.  0.
         13    1    3    3    0    0  0.12644063927E+02 -0.81659768713E+01 -0.55226289423E+02  0.57240707318E+02  0.00000000000E+00 0. -1.
        -13    1    3    3    0    0  0.95203639740E+02 -0.24107954472E+03 -0.21794599333E+03  0.33864957686E+03  0.00000000000E+00 0.  1.
          2    1    5    5  502    0  0.30294817805E+02 -0.59943682405E+02 -0.30104519930E+00  0.67164809792E+02  0.00000000000E+00 0. -1.
          1    1    6    6  503    0 -0.77108556371E+02  0.23249511550E+03  0.39628396040E+03  0.46587625553E+03  0.00000000000E+00 0. -1.
         -2    1    5    5    0  502 -0.61545397612E+02 -0.21341044832E+03  0.29447622389E+02  0.22405137332E+03  0.00000000000E+00 0.  1.
         -1    1    6    6    0  503  0.51143251013E+00  0.29010453682E+03  0.40019112040E+03  0.49428113124E+03  0.00000000000E+00 0.  1.
<mgrwt>
<rscale>  0 0.15518627E+04</rscale>
<asrwt>0</asrwt>
<pdfrwt beam="1">  1        1 0.16920871E+00 0.15518627E+04</pdfrwt>
<pdfrwt beam="2">  1       -1 0.84216498E-01 0.15518627E+04</pdfrwt>
<totfact> 0.17067609E+01</totfact>
</mgrwt>
</event>
<event>
12    1  0.4403484E-008  0.1976104E+04  0.7818608E-02  0.8617875E-01
          3   -1    0    0  501    0  0.00000000000E+00  0.00000000000E+00  0.69243139150E+03  0.69243139150E+03  0.00000000000E+00 0. -1.
         -3   -1    0    0    0  501 -0.00000000000E+00 -0.00000000000E+00 -0.14098829969E+04  0.14098829969E+04  0.00000000000E+00 0.  1.
         23    2    1    2    0    0  0.62134860373E+03  0.45984427692E+03 -0.16380572196E+03  0.79539114703E+03  0.91016019694E+02 0.  0.
        254    2    1    2    0    0 -0.62134860373E+03 -0.45984427692E+03 -0.55364588342E+03  0.13069232414E+04  0.89665698469E+03 0.  0.
         23    2    4    4    0    0 -0.38301868074E+03 -0.35529907570E+03  0.14968221688E+03  0.55115103268E+03  0.91771192534E+02 0.  0.
         23    2    4    4    0    0 -0.23832992300E+03 -0.10454520122E+03 -0.70332810030E+03  0.75577220868E+03  0.93756938128E+02 0.  0.
         11    1    3    3    0    0  0.32226598029E+03  0.23316016147E+03 -0.37974922134E+02  0.39957617253E+03  0.00000000000E+00 0. -1.
        -11    1    3    3    0    0  0.29908262345E+03  0.22668411546E+03 -0.12583079983E+03  0.39581497449E+03  0.00000000000E+00 0.  1.
          2    1    5    5  502    0  0.15088645074E+00 -0.79520821559E+01  0.14601691317E+02  0.16627319888E+02  0.00000000000E+00 0. -1.
          1    1    6    6  503    0 -0.35694684868E+02  0.10977971822E+02 -0.52649526012E+02  0.64549198155E+02  0.00000000000E+00 0. -1.
         -2    1    5    5    0  502 -0.38316956719E+03 -0.34734699355E+03  0.13508052557E+03  0.53452371279E+03  0.00000000000E+00 0.  1.
         -1    1    6    6    0  503 -0.20263523813E+03 -0.11552317304E+03 -0.65067857429E+03  0.69122301053E+03  0.00000000000E+00 0.  1.
<mgrwt>
<rscale>  0 0.19761045E+04</rscale>
<asrwt>0</asrwt>
<pdfrwt beam="1">  1        3 0.10652791E+00 0.19761045E+04</pdfrwt>
<pdfrwt beam="2">  1       -3 0.21690508E+00 0.19761045E+04</pdfrwt>
<totfact> 0.21078007E-01</totfact>
</mgrwt>
</event>
<event>
12    1  0.4403484E-008  0.1701596E+04  0.7818608E-02  0.8760455E-01
          1   -1    0    0  501    0  0.00000000000E+00  0.00000000000E+00  0.10051079776E+04  0.10051079776E+04  0.00000000000E+00 0. -1.
         -1   -1    0    0    0  501 -0.00000000000E+00 -0.00000000000E+00 -0.72017851602E+03  0.72017851602E+03  0.00000000000E+00 0.  1.
         23    2    1    2    0    0  0.26719343137E+03  0.31443873072E+03  0.55871735756E+03  0.70036714187E+03  0.89916642684E+02 0.  0.
        254    2    1    2    0    0 -0.26719343137E+03 -0.31443873072E+03 -0.27378789600E+03  0.10249193517E+04  0.89734933020E+03 0.  0.
         23    2    4    4    0    0  0.17138782598E+02 -0.51527945499E+03 -0.38278814077E+03  0.64861984404E+03  0.91511129148E+02 0.  0.
         23    2    4    4    0    0 -0.28433221397E+03  0.20084072428E+03  0.10900024478E+03  0.37629950769E+03  0.92403796993E+02 0.  0.
         13    1    3    3    0    0 -0.60626246503E+01  0.33577506005E+01  0.18278383723E+02  0.19548125697E+02  0.00000000000E+00 0.  1.
        -13    1    3    3    0    0  0.27325605602E+03  0.31108098012E+03  0.54043897383E+03  0.68081901617E+03  0.00000000000E+00 0. -1.
          1    1    5    5  502    0  0.33068014307E+02 -0.50141555572E+03 -0.36715098962E+03  0.62234307441E+03  0.00000000000E+00 0. -1.
          3    1    6    6  503    0 -0.20305977793E+03  0.18654065763E+03  0.67253744860E+02  0.28381993686E+03  0.00000000000E+00 0.  1.
         -1    1    5    5    0  502 -0.15929231709E+02 -0.13863899272E+02 -0.15637151154E+02  0.26276769628E+02  0.00000000000E+00 0.  1.
         -3    1    6    6    0  503 -0.81272436034E+02  0.14300066647E+02  0.41746499915E+02  0.92479570826E+02  0.00000000000E+00 0. -1.
<mgrwt>
<rscale>  0 0.17015959E+04</rscale>
<asrwt>0</asrwt>
<pdfrwt beam="1">  1        1 0.15463200E+00 0.17015959E+04</pdfrwt>
<pdfrwt beam="2">  1       -1 0.11079670E+00 0.17015959E+04</pdfrwt>
<totfact> 0.10704374E+01</totfact>
</mgrwt>
</event>
<event>
12    1  0.4403484E-008  0.1343756E+04  0.7818608E-02  0.8995568E-01
         -2   -1    0    0    0  501 -0.00000000000E+00  0.00000000000E+00  0.36992101880E+03  0.36992101880E+03  0.00000000000E+00 0.  1.
          2   -1    0    0  501    0  0.00000000000E+00 -0.00000000000E+00 -0.12203149314E+04  0.12203149314E+04  0.00000000000E+00 0. -1.
         23    2    1    2    0    0  0.14357423770E+03 -0.46480602074E+02  0.14631009346E+03  0.23087869622E+03  0.95521310830E+02 0.  0.
        254    2    1    2    0    0 -0.14357423770E+03  0.46480602074E+02 -0.99670400606E+03  0.13593572540E+04  0.91195354058E+03 0.  0.
         23    2    4    4    0    0  0.35126338975E+03 -0.48637962543E+02 -0.63130948044E+03  0.73045659126E+03  0.96247344133E+02 0.  0.
         23    2    4    4    0    0 -0.49483762744E+03  0.95118564617E+02 -0.36539452562E+03  0.62890066272E+03  0.89950349397E+02 0.  0.
         11    1    3    3    0    0  0.89372606435E+02 -0.34314059780E+02  0.14688118174E+03  0.17532540897E+03  0.00000000000E+00 0.  1.
        -11    1    3    3    0    0  0.54201631260E+02 -0.12166542293E+02 -0.57108828857E+00  0.55553287251E+02  0.00000000000E+00 0. -1.
          2    1    5    5  502    0  0.32868313853E+03 -0.70338353775E+02 -0.57688461220E+03  0.66766454553E+03  0.00000000000E+00 0. -1.
          1    1    6    6  503    0 -0.49681204972E+03  0.98192553598E+02 -0.35659794592E+03  0.61937556084E+03  0.00000000000E+00 0. -1.
         -2    1    5    5    0  502  0.22580251221E+02  0.21700391232E+02 -0.54424868241E+02  0.62792045737E+02  0.00000000000E+00 0.  1.
         -1    1    6    6    0  503  0.19744222781E+01 -0.30739889811E+01 -0.87965796944E+01  0.95251018844E+01  0.00000000000E+00 0.  1.
<mgrwt>
<rscale>  0 0.13437561E+04</rscale>
<asrwt>0</asrwt>
<pdfrwt beam="1">  1        2 0.18774076E+00 0.13437561E+04</pdfrwt>
<pdfrwt beam="2">  1       -2 0.56910925E-01 0.13437561E+04</pdfrwt>
<totfact> 0.52102618E+01</totfact>
</mgrwt>
</event>
<event>
12    1  0.4403484E-008  0.2290805E+04  0.7818608E-02  0.8481556E-01
          2   -1    0    0  501    0  0.00000000000E+00  0.00000000000E+00  0.18204398656E+04  0.18204398656E+04  0.00000000000E+00 0. -1.
         -2   -1    0    0    0  501 -0.00000000000E+00 -0.00000000000E+00 -0.72067544845E+03  0.72067544845E+03  0.00000000000E+00 0.  1.
         23    2    1    2    0    0 -0.55716538151E+03 -0.33553875349E+03  0.12601857728E+04  0.14209692577E+04  0.89810534522E+02 0.  0.
        254    2    1    2    0    0  0.55716538151E+03  0.33553875349E+03 -0.16042135563E+03  0.11201460563E+04  0.89775980009E+03 0.  0.
         23    2    4    4    0    0  0.37967002097E+03  0.56790779819E+03  0.12462951394E+03  0.70039381539E+03  0.91380461978E+02 0.  0.
         23    2    4    4    0    0  0.17749536055E+03 -0.23236904470E+03 -0.28505086957E+03  0.41975224091E+03  0.97149212821E+02 0.  0.
         13    1    3    3    0    0 -0.43531470946E+03 -0.28758271495E+03  0.10649699363E+04  0.11859020531E+04  0.00000000000E+00 0. -1.
        -13    1    3    3    0    0 -0.12185067205E+03 -0.47956038542E+02  0.19521583645E+03  0.23506720468E+03  0.00000000000E+00 0.  1.
          1    1    5    5  502    0  0.27645252513E+03  0.37863346263E+03  0.46636682561E+02  0.47113085001E+03  0.00000000000E+00 0. -1.
          3    1    6    6  503    0  0.16588245812E+03 -0.24008513747E+03 -0.25887679400E+03  0.39009621584E+03  0.00000000000E+00 0. -1.
         -1    1    5    5    0  502  0.10321749583E+03  0.18927433556E+03  0.77992831376E+02  0.22926296538E+03  0.00000000000E+00 0.  1.
         -3    1    6    6    0  503  0.11612902424E+02  0.77160927668E+01 -0.26174075576E+02  0.29656025063E+02  0.00000000000E+00 0.  1.
<mgrwt>
<rscale>  0 0.22908045E+04</rscale>
<asrwt>0</asrwt>
<pdfrwt beam="1">  1        2 0.28006767E+00 0.22908045E+04</pdfrwt>
<pdfrwt beam="2">  1       -2 0.11087315E+00 0.22908045E+04</pdfrwt>
<totfact> 0.49160457E+00</totfact>
</mgrwt>
</event>
<event>
12    1  0.4403484E-008  0.2478682E+04  0.7818608E-02  0.8410620E-01
          2   -1    0    0  501    0  0.00000000000E+00  0.00000000000E+00  0.39394453444E+04  0.39394453444E+04  0.00000000000E+00 0. -1.
         -2   -1    0    0    0  501 -0.00000000000E+00 -0.00000000000E+00 -0.38989412042E+03  0.38989412042E+03  0.00000000000E+00 0.  1.
         23    2    1    2    0    0 -0.74062139697E+02 -0.19583531632E+02 -0.31552898910E+03  0.33762346405E+03  0.92532941532E+02 0.  0.
        254    2    1    2    0    0  0.74062139697E+02  0.19583531632E+02  0.38650802131E+04  0.39917160008E+04  0.99452645110E+03 0.  0.
         23    2    4    4    0    0 -0.31382740239E+03 -0.12418638518E+03  0.55993369553E+03  0.65954913826E+03  0.87002446122E+02 0.  0.
         23    2    4    4    0    0  0.38788954209E+03  0.14376991681E+03  0.33051465176E+04  0.33321668625E+04  0.90633389200E+02 0.  0.
         11    1    3    3    0    0 -0.71047069038E+02 -0.15085804886E+02 -0.32147715659E+03  0.32957977750E+03  0.00000000000E+00 0.  1.
        -11    1    3    3    0    0 -0.30150706590E+01 -0.44977267464E+01  0.59481674861E+01  0.80436865557E+01  0.00000000000E+00 0. -1.
          2    1    5    5  502    0 -0.24427523744E+03 -0.70066192827E+02  0.46572342310E+03  0.53054497437E+03  0.00000000000E+00 0. -1.
          1    1    6    6  503    0  0.36723624656E+03  0.12059163229E+03  0.31712038146E+04  0.31946734475E+04  0.00000000000E+00 0. -1.
         -2    1    5    5    0  502 -0.69552164951E+02 -0.54120192348E+02  0.94210272430E+02  0.12900416389E+03  0.00000000000E+00 0.  1.
         -1    1    6    6    0  503  0.20653295532E+02  0.23178284520E+02  0.13394270300E+03  0.13749341503E+03  0.00000000000E+00 0.  1.
<mgrwt>
<rscale>  0 0.24786824E+04</rscale>
<asrwt>0</asrwt>
<pdfrwt beam="1">  1        2 0.60606849E+00 0.24786824E+04</pdfrwt>
<pdfrwt beam="2">  1       -2 0.59983714E-01 0.24786824E+04</pdfrwt>
<totfact> 0.88887124E-01</totfact>
</mgrwt>
</event>
<event>
12    1  0.4403484E-008  0.1549016E+04  0.7818608E-02  0.8852496E-01
         -1   -1    0    0    0  501 -0.00000000000E+00  0.00000000000E+00  0.62113941419E+03  0.62113941419E+03  0.00000000000E+00 0.  1.
          1   -1    0    0  501    0  0.00000000000E+00 -0.00000000000E+00 -0.96574564580E+03  0.96574564580E+03  0.00000000000E+00 0. -1.
         23    2    1    2    0    0  0.21364126212E+03  0.16797489497E+03  0.32950115579E+03  0.43659526644E+03  0.90477957479E+02 0.  0.
        254    2    1    2    0    0 -0.21364126212E+03 -0.16797489497E+03 -0.67410738740E+03  0.11502897936E+04  0.89156473976E+03 0.  0.
         23    2    4    4    0    0 -0.17125103520E+03  0.29842360957E+03 -0.43435101485E+02  0.35965313632E+03  0.95290097155E+02 0.  0.
         23    2    4    4    0    0 -0.42390226918E+02 -0.46639850454E+03 -0.63067228592E+03  0.79063665724E+03  0.89634229894E+02 0.  0.
         13    1    3    3    0    0  0.40186390708E+02  0.19885457926E+02  0.13385686787E+02  0.46792670856E+02  0.00000000000E+00 0. -1.
        -13    1    3    3    0    0  0.17345487141E+03  0.14808943704E+03  0.31611546900E+03  0.38980259558E+03  0.00000000000E+00 0.  1.
          3    1    5    5  502    0 -0.11152704374E+03  0.17725253184E+03  0.20072100043E+02  0.21037972984E+03  0.00000000000E+00 0. -1.
          3    1    6    6  503    0 -0.93002254999E+01 -0.17152223454E+03 -0.30510105137E+03  0.35013286433E+03  0.00000000000E+00 0. -1.
         -3    1    5    5    0  502 -0.59723991459E+02  0.12117107773E+03 -0.63507201528E+02  0.14927340648E+03  0.00000000000E+00 0.  1.
         -3    1    6    6    0  503 -0.33090001418E+02 -0.29487627000E+03 -0.32557123455E+03  0.44050379291E+03  0.00000000000E+00 0.  1.
<mgrwt>
<rscale>  0 0.15490161E+04</rscale>
<asrwt>0</asrwt>
<pdfrwt beam="1">  1        1 0.14857625E+00 0.15490161E+04</pdfrwt>
<pdfrwt beam="2">  1       -1 0.95559910E-01 0.15490161E+04</pdfrwt>
<totfact> 0.16398730E+01</totfact>
</mgrwt>
</event>
<event>
12    1  0.4403484E-008  0.1513207E+04  0.7818608E-02  0.8875717E-01
         -2   -1    0    0    0  501 -0.00000000000E+00  0.00000000000E+00  0.55820735162E+03  0.55820735162E+03  0.00000000000E+00 0.  1.
          2   -1    0    0  501    0  0.00000000000E+00 -0.00000000000E+00 -0.10255134296E+04  0.10255134296E+04  0.00000000000E+00 0. -1.
         23    2    1    2    0    0 -0.16175240362E+03 -0.36188003606E+03  0.14042800525E+03  0.43061850881E+03  0.92689130380E+02 0.  0.
        254    2    1    2    0    0  0.16175240362E+03  0.36188003606E+03 -0.60773408320E+03  0.11531022724E+04  0.89620485054E+03 0.  0.
         23    2    4    4    0    0  0.40389471488E+03  0.35579384700E+02  0.12630509270E+01  0.41564882642E+03  0.91463207253E+02 0.  0.
         23    2    4    4    0    0 -0.24214231126E+03  0.32630065136E+03 -0.60899713412E+03  0.73745344597E+03  0.88628785496E+02 0.  0.
         11    1    3    3    0    0 -0.11580771235E+02 -0.50284856554E+01  0.22662057542E+02  0.25941641861E+02  0.00000000000E+00 0. -1.
        -11    1    3    3    0    0 -0.15017163239E+03 -0.35685155041E+03  0.11776594770E+03  0.40467686694E+03  0.00000000000E+00 0.  1.
          4    1    5    5  502    0  0.38972748267E+03  0.37592685795E+02  0.20030487690E+02  0.39204839141E+03  0.00000000000E+00 0. -1.
          1    1    6    6  503    0 -0.22790706988E+03  0.31487636102E+03 -0.60444907305E+03  0.71864277436E+03  0.00000000000E+00 0. -1.
         -4    1    5    5    0  502  0.14167232216E+02 -0.20133010946E+01 -0.18767436763E+02  0.23600435009E+02  0.00000000000E+00 0.  1.
         -1    1    6    6    0  503 -0.14235241375E+02  0.11424290340E+02 -0.45480610772E+01  0.18810671608E+02  0.00000000000E+00 0.  1.
<mgrwt>
<rscale>  0 0.15132074E+04</rscale>
<asrwt>0</asrwt>
<pdfrwt beam="1">  1        2 0.15777130E+00 0.15132074E+04</pdfrwt>
<pdfrwt beam="2">  1       -2 0.85878055E-01 0.15132074E+04</pdfrwt>
<totfact> 0.27566271E+01</totfact>
</mgrwt>
</event>
<event>
12    1  0.5094456E-008  0.2206263E+04  0.7818608E-02  0.8515826E-01
         -2   -1    0    0    0  501 -0.00000000000E+00  0.00000000000E+00  0.62594715456E+03  0.62594715456E+03  0.00000000000E+00 0.  1.
          2   -1    0    0  501    0  0.00000000000E+00 -0.00000000000E+00 -0.19440925058E+04  0.19440925058E+04  0.00000000000E+00 0. -1.
         23    2    1    2    0    0 -0.91579627056E+03  0.24864910002E+02 -0.45622083637E+03  0.10275824149E+04  0.92125430463E+02 0.  0.
        254    2    1    2    0    0  0.91579627056E+03 -0.24864910002E+02 -0.86192451485E+03  0.15424572454E+04  0.89272583237E+03 0.  0.
         23    2    4    4    0    0  0.80776949307E+03  0.80313261858E+02 -0.10201000697E+04  0.13068875793E+04  0.91701793108E+02 0.  0.
         23    2    4    4    0    0  0.10802677749E+03 -0.10517817186E+03  0.15817555484E+03  0.23556966611E+03  0.87984822266E+02 0.  0.
         11    1    3    3    0    0 -0.23083886128E+02 -0.14293248479E+02 -0.12005367872E+02  0.29686556024E+02  0.00000000000E+00 0. -1.
        -11    1    3    3    0    0 -0.89271238444E+03  0.39158158481E+02 -0.44421546850E+03  0.99789585887E+03  0.00000000000E+00 0.  1.
          1    1    5    5  502    0  0.64266580650E+03  0.85114407603E+02 -0.85887977109E+03  0.10760753981E+04  0.00000000000E+00 0. -1.
          3    1    6    6  503    0  0.67497884681E+02 -0.10645296723E+03  0.14672855024E+03  0.19343594837E+03  0.00000000000E+00 0. -1.
         -1    1    5    5    0  502  0.16510368657E+03 -0.48011457455E+01 -0.16122029860E+03  0.23081218122E+03  0.00000000000E+00 0.  1.
         -3    1    6    6    0  503  0.40528892809E+02  0.12747953689E+01  0.11447004603E+02  0.42133717732E+02  0.00000000000E+00 0.  1.
<mgrwt>
<rscale>  0 0.22062631E+04</rscale>
<asrwt>0</asrwt>
<pdfrwt beam="1">  1        2 0.29909115E+00 0.22062631E+04</pdfrwt>
<pdfrwt beam="2">  1       -2 0.96299564E-01 0.22062631E+04</pdfrwt>
<totfact> 0.59191341E+00</totfact>
</mgrwt>
</event>
<event>
12    1  0.4403484E-008  0.1320862E+04  0.7818608E-02  0.9013183E-01
          2   -1    0    0  501    0  0.00000000000E+00  0.00000000000E+00  0.36249751029E+04  0.36249751029E+04  0.00000000000E+00 0.  1.
         -2   -1    0    0    0  501 -0.00000000000E+00 -0.00000000000E+00 -0.12032329866E+03  0.12032329866E+03  0.00000000000E+00 0. -1.
         23    2    1    2    0    0 -0.27538997406E+03  0.19358596841E+03  0.82710922464E+03  0.89754497814E+03  0.90344636388E+02 0.  0.
        254    2    1    2    0    0  0.27538997406E+03 -0.19358596841E+03  0.26775425796E+04  0.28477534234E+04  0.90947794368E+03 0.  0.
         23    2    4    4    0    0  0.48824047000E+03 -0.39688255182E+03  0.20854783901E+04  0.21802332804E+04  0.91118193314E+02 0.  0.
         23    2    4    4    0    0 -0.21285049594E+03  0.20329658341E+03  0.59206418955E+03  0.66752014301E+03  0.91696795626E+02 0.  0.
         11    1    3    3    0    0 -0.71019261549E+02  0.83808059032E+02  0.18942877746E+03  0.21897668369E+03  0.00000000000E+00 0. -1.
        -11    1    3    3    0    0 -0.20437071251E+03  0.10977790938E+03  0.63768044718E+03  0.67856829445E+03  0.00000000000E+00 0.  1.
          4    1    5    5  502    0  0.35139463021E+02 -0.65608277844E+02  0.25324255153E+03  0.26395268116E+03  0.00000000000E+00 0. -1.
          1    1    6    6  503    0 -0.52578560893E+02  0.42823301783E+01  0.99151614557E+02  0.11231155812E+03  0.00000000000E+00 0. -1.
         -4    1    5    5    0  502  0.45310100698E+03 -0.33127427397E+03  0.18322358385E+04  0.19162805993E+04  0.00000000000E+00 0.  1.
         -1    1    6    6    0  503 -0.16027193505E+03  0.19901425323E+03  0.49291257499E+03  0.55520858489E+03  0.00000000000E+00 0.  1.
<mgrwt>
<rscale>  0 0.13208618E+04</rscale>
<asrwt>0</asrwt>
<pdfrwt beam="1">  1        2 0.55768839E+00 0.13208618E+04</pdfrwt>
<pdfrwt beam="2">  1       -2 0.18511279E-01 0.13208618E+04</pdfrwt>
<totfact> 0.16231597E+01</totfact>
</mgrwt>
</event>
<event>
12    1  0.4403484E-008  0.2546115E+04  0.7818608E-02  0.8386739E-01
         -1   -1    0    0    0  501 -0.00000000000E+00  0.00000000000E+00  0.12710651164E+04  0.12710651164E+04  0.00000000000E+00 0.  1.
          1   -1    0    0  501    0  0.00000000000E+00 -0.00000000000E+00 -0.12750526990E+04  0.12750526990E+04  0.00000000000E+00 0. -1.
         23    2    1    2    0    0 -0.27354254947E+03  0.76276023242E+02  0.10787560931E+04  0.11191643264E+04  0.90390945293E+02 0.  0.
        254    2    1    2    0    0  0.27354254947E+03 -0.76276023242E+02 -0.10827436757E+04  0.14269534889E+04  0.88499651646E+03 0.  0.
         23    2    4    4    0    0  0.34093746440E+03 -0.29949784808E+03 -0.10819105822E+04  0.11765289804E+04  0.88048953838E+02 0.  0.
         23    2    4    4    0    0 -0.67394914937E+02  0.22322182484E+03 -0.83309349438E+00  0.25042450847E+03  0.91332813123E+02 0.  0.
         11    1    3    3    0    0  0.44321266058E+01  0.11741831387E+02  0.39969073281E+02  0.41893211497E+02  0.00000000000E+00 0. -1.
        -11    1    3    3    0    0 -0.27797467607E+03  0.64534191855E+02  0.10387870198E+04  0.10772711149E+04  0.00000000000E+00 0.  1.
          4    1    5    5  502    0  0.54603057413E+01 -0.26420378151E+02 -0.38553385651E+02  0.47055444590E+02  0.00000000000E+00 0. -1.
          1    1    6    6  503    0  0.20470313579E+02  0.47300818832E+02 -0.13795597897E+02  0.53354659792E+02  0.00000000000E+00 0. -1.
         -4    1    5    5    0  502  0.33547715866E+03 -0.27307746993E+03 -0.10433571966E+04  0.11294735359E+04  0.00000000000E+00 0.  1.
         -1    1    6    6    0  503 -0.87865228517E+02  0.17592100601E+03  0.12962504403E+02  0.19706984868E+03  0.00000000000E+00 0.  1.
<mgrwt>
<rscale>  0 0.25461147E+04</rscale>
<asrwt>0</asrwt>
<pdfrwt beam="1">  1        1 0.19616196E+00 0.25461147E+04</pdfrwt>
<pdfrwt beam="2">  1       -1 0.19554848E+00 0.25461147E+04</pdfrwt>
<totfact> 0.13478681E+00</totfact>
</mgrwt>
</event>
<event>
12    1  0.4403484E-008  0.1408591E+04  0.7818608E-02  0.8947623E-01
         -2   -1    0    0    0  501 -0.00000000000E+00  0.00000000000E+00  0.36862889522E+03  0.36862889522E+03  0.00000000000E+00 0. -1.
          2   -1    0    0  501    0  0.00000000000E+00 -0.00000000000E+00 -0.13456139405E+04  0.13456139405E+04  0.00000000000E+00 0.  1.
         23    2    1    2    0    0 -0.40221374063E+03 -0.34357154145E+02 -0.18048954887E+03  0.45156696748E+03  0.91542021377E+02 0.  0.
        254    2    1    2    0    0  0.40221374063E+03  0.34357154145E+02 -0.79649549641E+03  0.12626758682E+04  0.89274238457E+03 0.  0.
         23    2    4    4    0    0 -0.79330065888E+02  0.31764157179E+03 -0.75548016015E+02  0.34610796787E+03  0.83028881807E+02 0.  0.
         23    2    4    4    0    0  0.48154380652E+03 -0.28328441765E+03 -0.72094748039E+03  0.91656790036E+03  0.90536995739E+02 0.  0.
         13    1    3    3    0    0 -0.29492435715E+03 -0.63681334479E+02 -0.11787908462E+03  0.32393080649E+03  0.00000000000E+00 0. -1.
        -13    1    3    3    0    0 -0.10728938348E+03  0.29324180334E+02 -0.62610464247E+02  0.12763616099E+03  0.00000000000E+00 0.  1.
          3    1    6    6  502    0  0.46578910841E+03 -0.26600951409E+03 -0.71221238683E+03  0.89160924123E+03  0.00000000000E+00 0. -1.
          3    1    5    5  503    0 -0.84099438953E+02  0.32008953955E+03 -0.78288888963E+02  0.34008701694E+03  0.00000000000E+00 0. -1.
         -3    1    5    5    0  503  0.47693730649E+01 -0.24479677515E+01  0.27408729481E+01  0.60209509268E+01  0.00000000000E+00 0.  1.
         -3    1    6    6    0  502  0.15754698112E+02 -0.17274903565E+02 -0.87350935638E+01  0.24958659125E+02  0.00000000000E+00 0.  1.
<mgrwt>
<rscale>  0 0.14085910E+04</rscale>
<asrwt>0</asrwt>
<pdfrwt beam="1">  1        2 0.20701752E+00 0.14085910E+04</pdfrwt>
<pdfrwt beam="2">  1       -2 0.56712139E-01 0.14085910E+04</pdfrwt>
<totfact> 0.44110728E+01</totfact>
</mgrwt>
</event>
<event>
12    1  0.4403484E-008  0.1202786E+04  0.7818608E-02  0.9110422E-01
          1   -1    0    0  501    0  0.00000000000E+00  0.00000000000E+00  0.89900931082E+03  0.89900931082E+03  0.00000000000E+00 0. -1.
         -1   -1    0    0    0  501 -0.00000000000E+00 -0.00000000000E+00 -0.40230208153E+03  0.40230208153E+03  0.00000000000E+00 0.  1.
         23    2    1    2    0    0 -0.34280801881E+02 -0.54376396054E+02 -0.14875573200E+03  0.18617262345E+03  0.91651579885E+02 0.  0.
        254    2    1    2    0    0  0.34280801881E+02  0.54376396054E+02  0.64546296129E+03  0.11151387689E+04  0.90707225384E+03 0.  0.
         23    2    4    4    0    0  0.62413678386E+02  0.20800943722E+03 -0.16295567818E+03  0.28653803439E+03  0.91575645657E+02 0.  0.
         23    2    4    4    0    0 -0.28132876505E+02 -0.15363304117E+03  0.80841863947E+03  0.82860073451E+03  0.92972633154E+02 0.  0.
         13    1    3    3    0    0 -0.15560179756E+02  0.64491417519E+01  0.67517076326E+01  0.18146519758E+02  0.00000000000E+00 0. -1.
        -13    1    3    3    0    0 -0.18720622125E+02 -0.60825537806E+02 -0.15550743963E+03  0.16802610369E+03  0.00000000000E+00 0.  1.
          1    1    5    5  502    0  0.37859875558E+02  0.25240443041E+02 -0.91668224629E+01  0.46416384782E+02  0.00000000000E+00 0. -1.
          3    1    6    6  503    0 -0.37473332201E+02 -0.11564585822E+02  0.16016590091E+03  0.16489725919E+03  0.00000000000E+00 0. -1.
         -1    1    5    5    0  502  0.24553802827E+02  0.18276899418E+03 -0.15378885572E+03  0.24012164961E+03  0.00000000000E+00 0.  1.
         -3    1    6    6    0  503  0.93404556963E+01 -0.14206845534E+03  0.64825273856E+03  0.66370347533E+03  0.00000000000E+00 0.  1.
<mgrwt>
<rscale>  0 0.12027856E+04</rscale>
<asrwt>0</asrwt>
<pdfrwt beam="1">  1        1 0.13830912E+00 0.12027856E+04</pdfrwt>
<pdfrwt beam="2">  1       -1 0.61892628E-01 0.12027856E+04</pdfrwt>
<totfact> 0.47769219E+01</totfact>
</mgrwt>
</event>
<event>
12    1  0.4403484E-008  0.1369964E+04  0.7818608E-02  0.8975851E-01
         -1   -1    0    0    0  501 -0.00000000000E+00  0.00000000000E+00  0.46009541859E+03  0.46009541859E+03  0.00000000000E+00 0.  1.
          1   -1    0    0  501    0  0.00000000000E+00 -0.00000000000E+00 -0.10197898478E+04  0.10197898478E+04  0.00000000000E+00 0. -1.
         23    2    1    2    0    0 -0.75087931117E+02 -0.33263009802E+03 -0.35780110479E+03  0.50138876706E+03  0.84190769304E+02 0.  0.
        254    2    1    2    0    0  0.75087931117E+02  0.33263009802E+03 -0.20189332444E+03  0.97849649935E+03  0.89465831762E+03 0.  0.
         23    2    4    4    0    0  0.39222252952E+03  0.21109254648E+03 -0.37276155212E+03  0.58803339537E+03  0.91834217381E+02 0.  0.
         23    2    4    4    0    0 -0.31713459840E+03  0.12153755154E+03  0.17086822768E+03  0.39046310399E+03  0.88993002005E+02 0.  0.
         11    1    3    3    0    0 -0.68516750284E+02 -0.29215969414E+03 -0.34745258927E+03  0.45910253075E+03  0.00000000000E+00 0. -1.
        -11    1    3    3    0    0 -0.65711808338E+01 -0.40470403884E+02 -0.10348515521E+02  0.42286236314E+02  0.00000000000E+00 0.  1.
          3    1    6    6  502    0 -0.84720402519E-01  0.28747543163E+01  0.19368464863E+02  0.19580827895E+02  0.00000000000E+00 0. -1.
          3    1    5    5  503    0  0.79291035034E+02  0.59403789228E+01 -0.50406417953E+02  0.94144374816E+02  0.00000000000E+00 0. -1.
         -3    1    5    5    0  503  0.31293149449E+03  0.20515216756E+03 -0.32235513417E+03  0.49388902055E+03  0.00000000000E+00 0.  1.
         -3    1    6    6    0  502 -0.31704987800E+03  0.11866279722E+03  0.15149976282E+03  0.37088227609E+03  0.00000000000E+00 0.  1.
<mgrwt>
<rscale>  0 0.13699644E+04</rscale>
<asrwt>0</asrwt>
<pdfrwt beam="1">  1        1 0.15689075E+00 0.13699644E+04</pdfrwt>
<pdfrwt beam="2">  1       -1 0.70783911E-01 0.13699644E+04</pdfrwt>
<totfact> 0.28782740E+01</totfact>
</mgrwt>
</event>
<event>
12    1  0.4403484E-008  0.1441787E+04  0.7818608E-02  0.8924114E-01
          2   -1    0    0  501    0  0.00000000000E+00  0.00000000000E+00  0.26661196215E+04  0.26661196215E+04  0.00000000000E+00 0. -1.
         -2   -1    0    0    0  501 -0.00000000000E+00 -0.00000000000E+00 -0.19492281345E+03  0.19492281345E+03  0.00000000000E+00 0.  1.
         23    2    1    2    0    0  0.17297022493E+03 -0.39090028827E+03  0.94052234379E+03  0.10374860835E+04  0.95254186896E+02 0.  0.
        254    2    1    2    0    0 -0.17297022493E+03  0.39090028827E+03  0.15306744643E+04  0.18235563515E+04  0.89424365667E+03 0.  0.
         23    2    4    4    0    0 -0.49910494229E+03  0.26135236335E+03  0.61191258062E+03  0.83658880123E+03  0.89627087250E+02 0.  0.
         23    2    4    4    0    0  0.32613471736E+03  0.12954792492E+03  0.91876188367E+03  0.98696755030E+03  0.82674226613E+02 0.  0.
         13    1    3    3    0    0  0.94645487307E+02 -0.20851288989E+03  0.38978660607E+03  0.45207188786E+03  0.00000000000E+00 0. -1.
        -13    1    3    3    0    0  0.78324737624E+02 -0.18238739838E+03  0.55073573772E+03  0.58541419560E+03  0.00000000000E+00 0.  1.
          2    1    5    5  502    0 -0.47143962730E+03  0.22713853908E+03  0.58547817263E+03  0.78525914751E+03  0.00000000000E+00 0. -1.
          1    1    6    6  503    0  0.32636526152E+03  0.12522013594E+03  0.86401667848E+03  0.93205106462E+03  0.00000000000E+00 0. -1.
         -2    1    5    5    0  502 -0.27665314992E+02  0.34213824271E+02  0.26434407990E+02  0.51329653716E+02  0.00000000000E+00 0.  1.
         -1    1    6    6    0  503 -0.23054416121E+00  0.43277889727E+01  0.54745205187E+02  0.54916485676E+02  0.00000000000E+00 0.  1.
<mgrwt>
<rscale>  0 0.14417871E+04</rscale>
<asrwt>0</asrwt>
<pdfrwt beam="1">  1        2 0.41017222E+00 0.14417871E+04</pdfrwt>
<pdfrwt beam="2">  1       -2 0.29988127E-01 0.14417871E+04</pdfrwt>
<totfact> 0.27829861E+01</totfact>
</mgrwt>
</event>
<event>
12    1  0.4403484E-008  0.1922020E+04  0.7818608E-02  0.8643972E-01
          1   -1    0    0  501    0  0.00000000000E+00  0.00000000000E+00  0.63737710850E+03  0.63737710850E+03  0.00000000000E+00 0. -1.
         -1   -1    0    0    0  501 -0.00000000000E+00 -0.00000000000E+00 -0.14489705076E+04  0.14489705076E+04  0.00000000000E+00 0.  1.
         23    2    1    2    0    0  0.11424074850E+03 -0.25399690997E+03 -0.10690298351E+04  0.11084596131E+04  0.91063420746E+02 0.  0.
        254    2    1    2    0    0 -0.11424074850E+03  0.25399690997E+03  0.25743643602E+03  0.97788800300E+03  0.90134679726E+03 0.  0.
         23    2    4    4    0    0 -0.28919338746E+03  0.51604727075E+03  0.25378831877E+03  0.65000124301E+03  0.90307830031E+02 0.  0.
         23    2    4    4    0    0  0.17495263896E+03 -0.26205036078E+03  0.36481172480E+01  0.32788676000E+03  0.90650985419E+02 0.  0.
         11    1    3    3    0    0 -0.12529637421E+02 -0.49436614540E+01 -0.55035001826E+02  0.56659359584E+02  0.00000000000E+00 0. -1.
        -11    1    3    3    0    0  0.12677038592E+03 -0.24905324852E+03 -0.10139948333E+04  0.10518002535E+04  0.00000000000E+00 0.  1.
          2    1    5    5  502    0 -0.11560953466E+02  0.15672833642E+02  0.29565659563E+02  0.35403694508E+02  0.00000000000E+00 0. -1.
          3    1    6    6  503    0  0.16841792866E+02  0.29202087879E+01 -0.84983042777E+01  0.19089127322E+02  0.00000000000E+00 0. -1.
         -2    1    5    5    0  502 -0.27763243400E+03  0.50037443711E+03  0.22422265920E+03  0.61459754850E+03  0.00000000000E+00 0.  1.
         -3    1    6    6    0  503  0.15811084610E+03 -0.26497056957E+03  0.12146421526E+02  0.30879763267E+03  0.00000000000E+00 0.  1.
<mgrwt>
<rscale>  0 0.19220204E+04</rscale>
<asrwt>0</asrwt>
<pdfrwt beam="1">  1        1 0.98058018E-01 0.19220204E+04</pdfrwt>
<pdfrwt beam="2">  1       -1 0.22291854E+00 0.19220204E+04</pdfrwt>
<totfact> 0.30800948E+00</totfact>
</mgrwt>
</event>
<event>
12    1  0.4403484E-008  0.1996238E+04  0.7818608E-02  0.8608382E-01
         -1   -1    0    0    0  501 -0.00000000000E+00  0.00000000000E+00  0.10052122435E+04  0.10052122435E+04  0.00000000000E+00 0.  1.
          1   -1    0    0  501    0  0.00000000000E+00 -0.00000000000E+00 -0.99107538049E+03  0.99107538049E+03  0.00000000000E+00 0. -1.
         23    2    1    2    0    0  0.13018726313E+03  0.48509195274E+03 -0.60888905471E+03  0.79662237081E+03  0.10769584318E+03 0.  0.
        254    2    1    2    0    0 -0.13018726313E+03 -0.48509195274E+03  0.62302591768E+03  0.11996652531E+04  0.89374073389E+03 0.  0.
         23    2    4    4    0    0 -0.24293528993E+02  0.12451078650E+03 -0.14234563909E+03  0.21140175166E+03  0.91297908699E+02 0.  0.
         23    2    4    4    0    0 -0.10589373414E+03 -0.60960273924E+03  0.76537155678E+03  0.98826350148E+03  0.89678011947E+02 0.  0.
         13    1    3    3    0    0  0.10017611709E+03  0.31742598536E+03 -0.47475992628E+03  0.57982022922E+03  0.00000000000E+00 0. -1.
        -13    1    3    3    0    0  0.30011146044E+02  0.16766596738E+03 -0.13412912843E+03  0.21680214159E+03  0.00000000000E+00 0.  1.
          2    1    5    5  502    0 -0.67121781822E+01  0.13459152427E+03 -0.11372874272E+03  0.17633535852E+03  0.00000000000E+00 0. -1.
          1    1    6    6  503    0 -0.93428797399E+02 -0.27907169179E+03  0.35010921052E+03  0.45736900708E+03  0.00000000000E+00 0. -1.
         -2    1    5    5    0  502 -0.17581350811E+02 -0.10080737776E+02 -0.28616896373E+02  0.35066393149E+02  0.00000000000E+00 0.  1.
         -1    1    6    6    0  503 -0.12464936737E+02 -0.33053104745E+03  0.41526234625E+03  0.53089449441E+03  0.00000000000E+00 0.  1.
<mgrwt>
<rscale>  0 0.19962376E+04</rscale>
<asrwt>0</asrwt>
<pdfrwt beam="1">  1        1 0.15247313E+00 0.19962376E+04</pdfrwt>
<pdfrwt beam="2">  1       -1 0.15464804E+00 0.19962376E+04</pdfrwt>
<totfact> 0.45823565E+00</totfact>
</mgrwt>
</event>
<event>
12    1  0.4403484E-008  0.2137020E+04  0.7818608E-02  0.8545109E-01
          2   -1    0    0  501    0  0.00000000000E+00  0.00000000000E+00  0.28000744236E+04  0.28000744236E+04  0.00000000000E+00 0. -1.
         -2   -1    0    0    0  501 -0.00000000000E+00 -0.00000000000E+00 -0.40774414782E+03  0.40774414782E+03  0.00000000000E+00 0.  1.
         23    2    1    2    0    0 -0.50704513707E+03  0.57887772046E+02  0.20602829407E+04  0.21245419360E+04  0.92015634952E+02 0.  0.
        254    2    1    2    0    0  0.50704513707E+03 -0.57887772046E+02  0.33204733505E+03  0.10832766354E+04  0.89598385633E+03 0.  0.
         23    2    4    4    0    0  0.61870266828E+03  0.21811089074E+03  0.38686321330E+03  0.76714511171E+03  0.92103877372E+02 0.  0.
         23    2    4    4    0    0 -0.11165753121E+03 -0.27599866279E+03 -0.54815878252E+02  0.31613152364E+03  0.91058737050E+02 0.  0.
         11    1    3    3    0    0 -0.29109540768E+02  0.19195457994E+02  0.22346441362E+03  0.22616846625E+03  0.00000000000E+00 0.  1.
        -11    1    3    3    0    0 -0.47793559630E+03  0.38692314051E+02  0.18368185271E+04  0.18983734698E+04  0.00000000000E+00 0. -1.
          4    1    5    5  502    0  0.10939187600E+03  0.61594179449E+02  0.10884235766E+03  0.16615379712E+03  0.00000000000E+00 0. -1.
          3    1    6    6  503    0 -0.79305762852E+01 -0.28244589022E+01  0.13627698436E+02  0.16018294946E+02  0.00000000000E+00 0. -1.
         -4    1    5    5    0  502  0.50931079228E+03  0.15651671129E+03  0.27802085564E+03  0.60099131459E+03  0.00000000000E+00 0.  1.
         -3    1    6    6    0  503 -0.10372695492E+03 -0.27317420389E+03 -0.68443576688E+02  0.30011322869E+03  0.00000000000E+00 0.  1.
<mgrwt>
<rscale>  0 0.21370203E+04</rscale>
<asrwt>0</asrwt>
<pdfrwt beam="1">  1        2 0.43078067E+00 0.21370203E+04</pdfrwt>
<pdfrwt beam="2">  1       -2 0.62729871E-01 0.21370203E+04</pdfrwt>
<totfact> 0.50096851E+00</totfact>
</mgrwt>
</event>
<event>
12    1  0.4403484E-008  0.2121034E+04  0.7818608E-02  0.8552034E-01
         -2   -1    0    0    0  501 -0.00000000000E+00  0.00000000000E+00  0.76949388624E+03  0.76949388624E+03  0.00000000000E+00 0.  1.
          2   -1    0    0  501    0  0.00000000000E+00 -0.00000000000E+00 -0.14616057188E+04  0.14616057188E+04  0.00000000000E+00 0. -1.
         23    2    1    2    0    0 -0.31369967790E+03 -0.65798534842E+02  0.57925654003E+03  0.66821448271E+03  0.90749769327E+02 0.  0.
        254    2    1    2    0    0  0.31369967790E+03  0.65798534842E+02 -0.12713683726E+04  0.15628851223E+04  0.85058534652E+03 0.  0.
         23    2    4    4    0    0  0.41470959812E+03  0.24613813054E+02 -0.18015761015E+03  0.46252192845E+03  0.94233111112E+02 0.  0.
         23    2    4    4    0    0 -0.10100992022E+03  0.41184721788E+02 -0.10912107624E+04  0.11003631939E+04  0.90327432892E+02 0.  0.
         13    1    3    3    0    0  0.33735164767E+01 -0.27816890006E+01 -0.51844481854E+00  0.44030889322E+01  0.00000000000E+00 0. -1.
        -13    1    3    3    0    0 -0.31707319438E+03 -0.63016845842E+02  0.57977498484E+03  0.66381139377E+03  0.00000000000E+00 0.  1.
          1    1    5    5  502    0  0.10639261313E+03 -0.32035248972E+02 -0.30921460809E+02  0.11533335182E+03  0.00000000000E+00 0. -1.
          3    1    6    6  503    0 -0.11678060202E+02 -0.20869292205E+02 -0.39339608939E+03  0.39412230031E+03  0.00000000000E+00 0. -1.
         -1    1    5    5    0  502  0.30831698500E+03  0.56649062026E+02 -0.14923614935E+03  0.34718857662E+03  0.00000000000E+00 0.  1.
         -3    1    6    6    0  503 -0.89331860022E+02  0.62054013993E+02 -0.69781467304E+03  0.70624089359E+03  0.00000000000E+00 0.  1.
<mgrwt>
<rscale>  0 0.21210343E+04</rscale>
<asrwt>0</asrwt>
<pdfrwt beam="1">  1        2 0.22486241E+00 0.21210343E+04</pdfrwt>
<pdfrwt beam="2">  1       -2 0.11838368E+00 0.21210343E+04</pdfrwt>
<totfact> 0.67439969E+00</totfact>
</mgrwt>
</event>
<event>
12    1  0.4403484E-008  0.1747097E+04  0.7818608E-02  0.8734950E-01
          1   -1    0    0  501    0  0.00000000000E+00  0.00000000000E+00  0.16952966981E+04  0.16952966981E+04  0.00000000000E+00 0. -1.
         -1   -1    0    0    0  501 -0.00000000000E+00 -0.00000000000E+00 -0.45011979305E+03  0.45011979305E+03  0.00000000000E+00 0.  1.
         23    2    1    2    0    0  0.57318321146E+03 -0.26257825741E+03  0.56865115807E+03  0.85388811448E+03  0.90963934119E+02 0.  0.
        254    2    1    2    0    0 -0.57318321146E+03  0.26257825741E+03  0.67652574699E+03  0.12915283767E+04  0.90159421375E+03 0.  0.
         23    2    4    4    0    0 -0.47660463660E+03 -0.24135954783E+03  0.17460055537E+03  0.56852281683E+03  0.85594558072E+02 0.  0.
         23    2    4    4    0    0 -0.96578574867E+02  0.50393780524E+03  0.50192519162E+03  0.72300555985E+03  0.86760641517E+02 0.  0.
         13    1    3    3    0    0  0.50871194014E+03 -0.20542692417E+03  0.51449069312E+03  0.75212281745E+03  0.00000000000E+00 0. -1.
        -13    1    3    3    0    0  0.64471271325E+02 -0.57151333242E+02  0.54160464950E+02  0.10176529704E+03  0.00000000000E+00 0.  1.
          4    1    5    5  502    0 -0.46069432042E+03 -0.24855835677E+03  0.16685350831E+03  0.54941842600E+03  0.00000000000E+00 0. -1.
          1    1    6    6  503    0 -0.89007942452E+02  0.41254758689E+03  0.45274333056E+03  0.61894624050E+03  0.00000000000E+00 0. -1.
         -4    1    5    5    0  502 -0.15910316175E+02  0.71988089467E+01  0.77470470562E+01  0.19104390834E+02  0.00000000000E+00 0.  1.
         -1    1    6    6    0  503 -0.75706324143E+01  0.91390218347E+02  0.49181861060E+02  0.10405931934E+03  0.00000000000E+00 0.  1.
<mgrwt>
<rscale>  0 0.17470966E+04</rscale>
<asrwt>0</asrwt>
<pdfrwt beam="1">  1        1 0.26081487E+00 0.17470966E+04</pdfrwt>
<pdfrwt beam="2">  1       -1 0.69249200E-01 0.17470966E+04</pdfrwt>
<totfact> 0.95996628E+00</totfact>
</mgrwt>
</event>
<event>
12    1  0.4403484E-008  0.1815731E+04  0.7818608E-02  0.8697978E-01
         -2   -1    0    0    0  501 -0.00000000000E+00  0.00000000000E+00  0.39455544493E+03  0.39455544493E+03  0.00000000000E+00 0.  1.
          2   -1    0    0  501    0  0.00000000000E+00 -0.00000000000E+00 -0.20889845229E+04  0.20889845229E+04  0.00000000000E+00 0. -1.
         23    2    1    2    0    0  0.14573011725E+03 -0.52980168070E+03 -0.86752398935E+02  0.56371982654E+03  0.91252266665E+02 0.  0.
        254    2    1    2    0    0 -0.14573011725E+03  0.52980168070E+03 -0.16076766790E+04  0.19198201413E+04  0.89395636507E+03 0.  0.
         23    2    4    4    0    0 -0.12917495294E+01  0.71225515972E+03 -0.80336597748E+03  0.10776596232E+04  0.92974665680E+02 0.  0.
         23    2    4    4    0    0 -0.14443836772E+03 -0.18245347903E+03 -0.80431070155E+03  0.84216051812E+03  0.90371010731E+02 0.  0.
         13    1    3    3    0    0  0.32771007381E+02 -0.67365168634E+02  0.16286013788E+02  0.76663153568E+02  0.00000000000E+00 0.  1.
        -13    1    3    3    0    0  0.11295910987E+03 -0.46243651206E+03 -0.10303841272E+03  0.48705667297E+03  0.00000000000E+00 0. -1.
          2    1    5    5  502    0  0.39862779810E+02  0.38222173297E+03 -0.46425352331E+03  0.60267223951E+03  0.00000000000E+00 0. -1.
          1    1    6    6  503    0 -0.15281736965E+03 -0.14572949039E+03 -0.70504802516E+03  0.73599113488E+03  0.00000000000E+00 0.  1.
         -2    1    5    5    0  502 -0.41154529339E+02  0.33003342675E+03 -0.33911245417E+03  0.47498738366E+03  0.00000000000E+00 0.  1.
         -1    1    6    6    0  503  0.83790019300E+01 -0.36723988641E+02 -0.99262676383E+02  0.10616938324E+03  0.00000000000E+00 0. -1.
<mgrwt>
<rscale>  0 0.18157315E+04</rscale>
<asrwt>0</asrwt>
<pdfrwt beam="1">  1        2 0.32138224E+00 0.18157315E+04</pdfrwt>
<pdfrwt beam="2">  1       -2 0.60700836E-01 0.18157315E+04</pdfrwt>
<totfact> 0.14201139E+01</totfact>
</mgrwt>
</event>
<event>
12    1  0.4403484E-008  0.2760301E+04  0.7818608E-02  0.8315701E-01
          1   -1    0    0  501    0  0.00000000000E+00  0.00000000000E+00  0.25770016294E+04  0.25770016294E+04  0.00000000000E+00 0. -1.
         -1   -1    0    0    0  501 -0.00000000000E+00 -0.00000000000E+00 -0.73915930650E+03  0.73915930650E+03  0.00000000000E+00 0.  1.
         23    2    1    2    0    0  0.94761757585E+03 -0.73312851878E+03  0.11593298115E+04  0.16695972663E+04  0.89738090202E+02 0.  0.
        254    2    1    2    0    0 -0.94761757585E+03  0.73312851878E+03  0.67851251141E+03  0.16465636696E+04  0.90295968608E+03 0.  0.
         23    2    4    4    0    0 -0.40548715349E+03  0.20292510008E+03 -0.18101298918E+03  0.49674436348E+03  0.91601487504E+02 0.  0.
         23    2    4    4    0    0 -0.54213042237E+03  0.53020341869E+03  0.85952550060E+03  0.11498193061E+04  0.90990606213E+02 0.  0.
         11    1    3    3    0    0  0.90181373469E+03 -0.70827384011E+03  0.11294454149E+04  0.16095237774E+04  0.00000000000E+00 0. -1.
        -11    1    3    3    0    0  0.45803841160E+02 -0.24854678665E+02  0.29884396558E+02  0.60073488946E+02  0.00000000000E+00 0.  1.
          3    1    5    5  502    0 -0.78497055862E+02  0.60165688590E+02 -0.53406460833E+01  0.99046556544E+02  0.00000000000E+00 0. -1.
          3    1    6    6  503    0 -0.53495060192E+03  0.52511810842E+03  0.82723099905E+03  0.11163477505E+04  0.00000000000E+00 0.  1.
         -3    1    5    5    0  502 -0.32699009762E+03  0.14275941149E+03 -0.17567234310E+03  0.39769780694E+03  0.00000000000E+00 0.  1.
         -3    1    6    6    0  503 -0.71798204431E+01  0.50853102745E+01  0.32294501546E+02  0.33471555570E+02  0.00000000000E+00 0. -1.
<mgrwt>
<rscale>  0 0.27603005E+04</rscale>
<asrwt>0</asrwt>
<pdfrwt beam="1">  1        1 0.39646179E+00 0.27603005E+04</pdfrwt>
<pdfrwt beam="2">  1       -1 0.11371682E+00 0.27603005E+04</pdfrwt>
<totfact> 0.73306589E-01</totfact>
</mgrwt>
</event>
<event>
12    1  0.4403484E-008  0.2074080E+04  0.7818608E-02  0.8572748E-01
          1   -1    0    0  501    0  0.00000000000E+00  0.00000000000E+00  0.51769797078E+03  0.51769797078E+03  0.00000000000E+00 0. -1.
         -1   -1    0    0    0  501 -0.00000000000E+00 -0.00000000000E+00 -0.20773733485E+04  0.20773733485E+04  0.00000000000E+00 0.  1.
         23    2    1    2    0    0 -0.59187740125E+02 -0.75620480419E+03 -0.10708282877E+04  0.13152910498E+04  0.89266060288E+02 0.  0.
        254    2    1    2    0    0  0.59187740125E+02  0.75620480419E+03 -0.48884709004E+03  0.12797802695E+04  0.90747846600E+03 0.  0.
         23    2    4    4    0    0  0.39646257953E+03  0.32248205213E+03 -0.50267487646E+03  0.72264230846E+03  0.91392689227E+02 0.  0.
         23    2    4    4    0    0 -0.33727483941E+03  0.43372275206E+03  0.13827786420E+02  0.55713796102E+03  0.91333219484E+02 0.  0.
         13    1    3    3    0    0 -0.59101451269E+02 -0.50719645581E+03 -0.65377449873E+03  0.82955549635E+03  0.00000000000E+00 0.  1.
        -13    1    3    3    0    0 -0.86288855304E-01 -0.24900834838E+03 -0.41705378896E+03  0.48573555346E+03  0.00000000000E+00 0. -1.
          4    1    5    5  502    0  0.32943202515E+03  0.24905559872E+03 -0.44748143166E+03  0.60892838834E+03  0.00000000000E+00 0. -1.
          3    1    6    6  503    0 -0.28343424702E+03  0.38918881933E+03 -0.14658770406E+02  0.48168224903E+03  0.00000000000E+00 0. -1.
         -4    1    5    5    0  502  0.67030554385E+02  0.73426453407E+02 -0.55193444803E+02  0.11371392013E+03  0.00000000000E+00 0.  1.
         -3    1    6    6    0  503 -0.53840592383E+02  0.44533932725E+02  0.28486556826E+02  0.75455711990E+02  0.00000000000E+00 0.  1.
<mgrwt>
<rscale>  0 0.20740800E+04</rscale>
<asrwt>0</asrwt>
<pdfrwt beam="1">  1        1 0.79645841E-01 0.20740800E+04</pdfrwt>
<pdfrwt beam="2">  1       -1 0.31959590E+00 0.20740800E+04</pdfrwt>
<totfact> 0.95938958E-01</totfact>
</mgrwt>
</event>
<event>
12    1  0.4403484E-008  0.1380152E+04  0.7818608E-02  0.8968312E-01
         -2   -1    0    0    0  501 -0.00000000000E+00  0.00000000000E+00  0.68907196315E+03  0.68907196315E+03  0.00000000000E+00 0.  1.
          2   -1    0    0  501    0  0.00000000000E+00 -0.00000000000E+00 -0.69108104298E+03  0.69108104298E+03  0.00000000000E+00 0. -1.
         23    2    1    2    0    0 -0.21172740393E+03 -0.17013325878E+03  0.28110654209E+03  0.40099872743E+03  0.89472186091E+02 0.  0.
        254    2    1    2    0    0  0.21172740393E+03  0.17013325878E+03 -0.28311562192E+03  0.97915427869E+03  0.89711472331E+03 0.  0.
         23    2    4    4    0    0  0.12942642206E+03  0.34920105432E+03 -0.52750544629E+03  0.65205070443E+03  0.90639672408E+02 0.  0.
         23    2    4    4    0    0  0.82300981872E+02 -0.17906779554E+03  0.24438982437E+03  0.32710357426E+03  0.91823934914E+02 0.  0.
         11    1    3    3    0    0 -0.35743378721E+02 -0.70422879465E+02  0.48198186176E+02  0.92520463819E+02  0.00000000000E+00 0. -1.
        -11    1    3    3    0    0 -0.17598402521E+03 -0.99710379313E+02  0.23290835591E+03  0.30847826362E+03  0.00000000000E+00 0.  1.
          4    1    5    5  502    0  0.10908236129E+03  0.25057216656E+03 -0.31591302301E+03  0.41771570513E+03  0.00000000000E+00 0. -1.
          3    1    6    6  503    0  0.67877156497E+02 -0.15169783165E+03  0.13710443241E+03  0.21544643391E+03  0.00000000000E+00 0. -1.
         -4    1    5    5    0  502  0.20344060767E+02  0.98628887754E+02 -0.21159242328E+03  0.23433499930E+03  0.00000000000E+00 0.  1.
         -3    1    6    6    0  503  0.14423825375E+02 -0.27369963893E+02  0.10728539197E+03  0.11165714035E+03  0.00000000000E+00 0.  1.
<mgrwt>
<rscale>  0 0.13801515E+04</rscale>
<asrwt>0</asrwt>
<pdfrwt beam="1">  1        2 0.10632016E+00 0.13801515E+04</pdfrwt>
<pdfrwt beam="2">  1       -2 0.10601107E+00 0.13801515E+04</pdfrwt>
<totfact> 0.29160926E+01</totfact>
</mgrwt>
</event>
<event>
12    1  0.4403484E-008  0.2271715E+04  0.7818608E-02  0.8489158E-01
         -1   -1    0    0    0  501 -0.00000000000E+00  0.00000000000E+00  0.15198214676E+04  0.15198214676E+04  0.00000000000E+00 0.  1.
          1   -1    0    0  501    0  0.00000000000E+00 -0.00000000000E+00 -0.84889719041E+03  0.84889719041E+03  0.00000000000E+00 0. -1.
         23    2    1    2    0    0 -0.89147683023E+03  0.17865712085E+03 -0.93587044288E+01  0.91761099179E+03  0.12358414639E+03 0.  0.
        254    2    1    2    0    0  0.89147683023E+03 -0.17865712085E+03  0.68028298163E+03  0.14511076662E+04  0.90348171994E+03 0.  0.
         23    2    4    4    0    0  0.31996325548E+03  0.25179588984E+03  0.59194024848E+03  0.72386976191E+03  0.88411082079E+02 0.  0.
         23    2    4    4    0    0  0.57151357475E+03 -0.43045301068E+03  0.88342733145E+02  0.72723790433E+03  0.95671157963E+02 0.  0.
         13    1    3    3    0    0 -0.68007329659E+03  0.10799261843E+03  0.38349832938E+02  0.68966136912E+03  0.00000000000E+00 0. -1.
        -13    1    3    3    0    0 -0.21140353364E+03  0.70664502418E+02 -0.47708537366E+02  0.22794962267E+03  0.00000000000E+00 0.  1.
          2    1    5    5  502    0  0.22578867456E+02  0.19261103225E+02  0.12273662247E+02  0.32116010618E+02  0.00000000000E+00 0. -1.
          3    1    6    6  503    0  0.29253402781E+03 -0.25940783853E+03  0.84320455836E+02  0.39997315334E+03  0.00000000000E+00 0. -1.
         -2    1    5    5    0  502  0.29738438802E+03  0.23253478661E+03  0.57966658624E+03  0.69175375129E+03  0.00000000000E+00 0.  1.
         -3    1    6    6    0  503  0.27897954695E+03 -0.17104517215E+03  0.40222773088E+01  0.32726475100E+03  0.00000000000E+00 0.  1.
<mgrwt>
<rscale>  0 0.22717149E+04</rscale>
<asrwt>0</asrwt>
<pdfrwt beam="1">  1        1 0.13059957E+00 0.22717149E+04</pdfrwt>
<pdfrwt beam="2">  1       -1 0.23381869E+00 0.22717149E+04</pdfrwt>
<totfact> 0.16193560E+00</totfact>
</mgrwt>
</event>
<event>
12    1  0.4403484E-008  0.1978272E+04  0.7818608E-02  0.8616847E-01
          2   -1    0    0  501    0  0.00000000000E+00  0.00000000000E+00  0.16968110218E+04  0.16968110218E+04  0.00000000000E+00 0. -1.
         -2   -1    0    0    0  501 -0.00000000000E+00 -0.00000000000E+00 -0.57660508635E+03  0.57660508635E+03  0.00000000000E+00 0.  1.
         23    2    1    2    0    0 -0.57650264847E+03 -0.46290366429E+03  0.96874245020E+03  0.12220326411E+04  0.90921587525E+02 0.  0.
        254    2    1    2    0    0  0.57650264847E+03  0.46290366429E+03  0.15146348525E+03  0.10513834670E+04  0.73200471394E+03 0.  0.
         23    2    4    4    0    0  0.76785622953E+02  0.27559014810E+03  0.36220112680E+03  0.47046538373E+03  0.91115637611E+02 0.  0.
         23    2    4    4    0    0  0.49971702552E+03  0.18731351619E+03 -0.21073764155E+03  0.58091808327E+03  0.90840557938E+02 0.  0.
         11    1    3    3    0    0 -0.50117864705E+03 -0.36457695990E+03  0.83318094587E+03  0.10384059344E+04  0.00000000000E+00 0. -1.
        -11    1    3    3    0    0 -0.75324001420E+02 -0.98326704392E+02  0.13556150433E+03  0.18362670678E+03  0.00000000000E+00 0.  1.
          4    1    5    5  502    0  0.14753744425E+02 -0.28097749503E+01  0.18329396744E+02  0.23696721183E+02  0.00000000000E+00 0. -1.
          3    1    6    6  503    0  0.61335367604E+02  0.56864164035E+02 -0.25358673285E+02  0.87399214992E+02  0.00000000000E+00 0. -1.
         -4    1    5    5    0  502  0.62031878528E+02  0.27839992305E+03  0.34387173005E+03  0.44676866255E+03  0.00000000000E+00 0.  1.
         -3    1    6    6    0  503  0.43838165791E+03  0.13044935216E+03 -0.18537896827E+03  0.49351886828E+03  0.00000000000E+00 0.  1.
<mgrwt>
<rscale>  0 0.19782718E+04</rscale>
<asrwt>0</asrwt>
<pdfrwt beam="1">  1        2 0.26104785E+00 0.19782718E+04</pdfrwt>
<pdfrwt beam="2">  1       -2 0.88708476E-01 0.19782718E+04</pdfrwt>
<totfact> 0.10013335E+01</totfact>
</mgrwt>
</event>
<event>
12    1  0.4403484E-008  0.3470302E+04  0.7818608E-02  0.8120864E-01
         -2   -1    0    0    0  501 -0.00000000000E+00  0.00000000000E+00  0.77359947842E+03  0.77359947842E+03  0.00000000000E+00 0.  1.
          2   -1    0    0  501    0  0.00000000000E+00 -0.00000000000E+00 -0.38918697244E+04  0.38918697244E+04  0.00000000000E+00 0. -1.
         23    2    1    2    0    0 -0.69176309821E+03 -0.13307084837E+04 -0.22694264879E+04  0.27217434798E+04  0.90938071147E+02 0.  0.
        254    2    1    2    0    0  0.69176309821E+03  0.13307084837E+04 -0.84884375800E+03  0.19437257230E+04  0.89900651176E+03 0.  0.
         23    2    4    4    0    0  0.23080887644E+03  0.10487986339E+04 -0.20176094204E+03  0.10964352035E+04  0.90616586641E+02 0.  0.
         23    2    4    4    0    0  0.46095422178E+03  0.28190984983E+03 -0.64708281596E+03  0.84729051956E+03  0.85047609223E+02 0.  0.
         11    1    3    3    0    0 -0.37311416429E+03 -0.75678917132E+03 -0.13508879242E+04  0.15927467511E+04  0.00000000000E+00 0. -1.
        -11    1    3    3    0    0 -0.31864893393E+03 -0.57391931239E+03 -0.91853856374E+03  0.11289967286E+04  0.00000000000E+00 0.  1.
          2    1    5    5  502    0  0.12944695710E+03  0.69831495364E+03 -0.16954976789E+03  0.73016944128E+03  0.00000000000E+00 0. -1.
          4    1    6    6  503    0  0.33065498651E+03  0.20462857846E+03 -0.40297779806E+03  0.55999703656E+03  0.00000000000E+00 0. -1.
         -2    1    5    5    0  502  0.10136191934E+03  0.35048368024E+03 -0.32211174150E+02  0.36626576218E+03  0.00000000000E+00 0.  1.
         -4    1    6    6    0  503  0.13029923527E+03  0.77281271365E+02 -0.24410501789E+03  0.28729348300E+03  0.00000000000E+00 0.  1.
<mgrwt>
<rscale>  0 0.34703017E+04</rscale>
<asrwt>0</asrwt>
<pdfrwt beam="1">  1        2 0.59874919E+00 0.34703017E+04</pdfrwt>
<pdfrwt beam="2">  1       -2 0.11901530E+00 0.34703017E+04</pdfrwt>
<totfact> 0.18579339E-01</totfact>
</mgrwt>
</event>
<event>
12    1  0.4403484E-008  0.1846855E+04  0.7818608E-02  0.8681772E-01
         -1   -1    0    0    0  501 -0.00000000000E+00  0.00000000000E+00  0.19682518668E+04  0.19682518668E+04  0.00000000000E+00 0.  1.
          1   -1    0    0  501    0  0.00000000000E+00 -0.00000000000E+00 -0.43323624645E+03  0.43323624645E+03  0.00000000000E+00 0. -1.
         23    2    1    2    0    0 -0.27259065971E+03 -0.62313589709E+03  0.82031494268E+03  0.10696794282E+04  0.93238725967E+02 0.  0.
        254    2    1    2    0    0  0.27259065971E+03  0.62313589709E+03  0.71470067766E+03  0.13318086850E+04  0.89460231432E+03 0.  0.
         23    2    4    4    0    0 -0.11568335286E+02 -0.17675045911E+03 -0.27697341742E+02  0.20039963574E+03  0.89545072948E+02 0.  0.
         23    2    4    4    0    0  0.28415899499E+03  0.79988635620E+03  0.74239801940E+03  0.11314090493E+04  0.91471854970E+02 0.  0.
         11    1    3    3    0    0 -0.80556539990E+02 -0.19038914867E+03  0.31910128022E+03  0.38021442779E+03  0.00000000000E+00 0. -1.
        -11    1    3    3    0    0 -0.19203411972E+03 -0.43274674842E+03  0.50121366246E+03  0.68946500045E+03  0.00000000000E+00 0.  1.
          1    1    5    5  502    0  0.65228880297E+00 -0.17514536419E+03 -0.57652927080E+01  0.17524144110E+03  0.00000000000E+00 0. -1.
          3    1    6    6  503    0  0.26208644213E+03  0.62870000530E+03  0.59612947724E+03  0.90516482115E+03  0.00000000000E+00 0. -1.
         -1    1    5    5    0  502 -0.12220624089E+02 -0.16050949179E+01 -0.21932049034E+02  0.25158194643E+02  0.00000000000E+00 0.  1.
         -3    1    6    6    0  503  0.22072552863E+02  0.17118635090E+03  0.14626854216E+03  0.22624422810E+03  0.00000000000E+00 0.  1.
<mgrwt>
<rscale>  0 0.18468547E+04</rscale>
<asrwt>0</asrwt>
<pdfrwt beam="1">  1        1 0.66651731E-01 0.18468547E+04</pdfrwt>
<pdfrwt beam="2">  1       -1 0.30280797E+00 0.18468547E+04</pdfrwt>
<totfact> 0.16060597E+00</totfact>
</mgrwt>
</event>
<event>
12    1  0.4403484E-008  0.2082611E+04  0.7818608E-02  0.8568942E-01
          2   -1    0    0  501    0  0.00000000000E+00  0.00000000000E+00  0.25231440570E+04  0.25231440570E+04  0.00000000000E+00 0. -1.
         -2   -1    0    0    0  501 -0.00000000000E+00 -0.00000000000E+00 -0.42974858615E+03  0.42974858615E+03  0.00000000000E+00 0.  1.
         23    2    1    2    0    0 -0.68703481625E+03  0.14609919261E+03  0.19237147317E+03  0.73369097426E+03  0.89072157276E+02 0.  0.
        254    2    1    2    0    0  0.68703481625E+03 -0.14609919261E+03  0.19010239977E+04  0.22192016689E+04  0.90421346739E+03 0.  0.
         23    2    4    4    0    0  0.29008905839E+03 -0.50453386181E+03  0.81165531672E+03  0.10021644991E+04  0.82723942112E+02 0.  0.
         23    2    4    4    0    0  0.39694575786E+03  0.35843466919E+03  0.10893686809E+04  0.12170371698E+04  0.91727873705E+02 0.  0.
         11    1    3    3    0    0 -0.65392678631E+03  0.14233339519E+03  0.16191109562E+03  0.68854501678E+03  0.00000000000E+00 0.  1.
        -11    1    3    3    0    0 -0.33108029937E+02  0.37657974184E+01  0.30460377553E+02  0.45145957484E+02  0.00000000000E+00 0. -1.
          4    1    5    5  502    0  0.75443879837E+02 -0.13853986031E+03  0.16108647991E+03  0.22546380177E+03  0.00000000000E+00 0. -1.
          3    1    6    6  503    0  0.14333193687E+03  0.88580530413E+02  0.41039366276E+03  0.44363669024E+03  0.00000000000E+00 0. -1.
         -4    1    5    5    0  502  0.21464517855E+03 -0.36599400149E+03  0.65056883682E+03  0.77670069733E+03  0.00000000000E+00 0.  1.
         -3    1    6    6    0  503  0.25361382100E+03  0.26985413878E+03  0.67897501817E+03  0.77340047952E+03  0.00000000000E+00 0.  1.
<mgrwt>
<rscale>  0 0.20826114E+04</rscale>
<asrwt>0</asrwt>
<pdfrwt beam="1">  1        2 0.38817600E+00 0.20826114E+04</pdfrwt>
<pdfrwt beam="2">  1       -2 0.66115168E-01 0.20826114E+04</pdfrwt>
<totfact> 0.65573746E+00</totfact>
</mgrwt>
</event>
<event>
12    1  0.4403484E-008  0.1115019E+04  0.7818608E-02  0.9190676E-01
          2   -1    0    0  501    0  0.00000000000E+00  0.00000000000E+00  0.16172814280E+04  0.16172814280E+04  0.00000000000E+00 0. -1.
         -2   -1    0    0    0  501 -0.00000000000E+00 -0.00000000000E+00 -0.19218468342E+03  0.19218468342E+03  0.00000000000E+00 0.  1.
         23    2    1    2    0    0 -0.14477066898E+03 -0.12115907237E+03  0.87657582580E+02  0.22825859611E+03  0.93702014391E+02 0.  0.
        254    2    1    2    0    0  0.14477066898E+03  0.12115907237E+03  0.13374391620E+04  0.15812075153E+04  0.82209222539E+03 0.  0.
         23    2    4    4    0    0 -0.31061622602E+03  0.49430942769E+02  0.81747644645E+03  0.88047783797E+03  0.89708554102E+02 0.  0.
         23    2    4    4    0    0  0.45538689500E+03  0.71728129597E+02  0.51996271554E+03  0.70072967735E+03  0.90214779544E+02 0.  0.
         13    1    3    3    0    0 -0.92619065378E+02 -0.10831579532E+03  0.98790027021E+02  0.17340724387E+03  0.00000000000E+00 0. -1.
        -13    1    3    3    0    0 -0.52151603598E+02 -0.12843277043E+02 -0.11132444441E+02  0.54851352237E+02  0.00000000000E+00 0.  1.
          4    1    5    5  502    0 -0.14553061292E+03 -0.19626386506E+01  0.27537698227E+03  0.31147310255E+03  0.00000000000E+00 0. -1.
          3    1    6    6  503    0  0.30026949090E+03  0.88011859628E+02  0.36680338665E+03  0.48213336231E+03  0.00000000000E+00 0. -1.
         -4    1    5    5    0  502 -0.16508561311E+03  0.51393581419E+02  0.54209946419E+03  0.56900473543E+03  0.00000000000E+00 0.  1.
         -3    1    6    6    0  503  0.15511740410E+03 -0.16283730031E+02  0.15315932890E+03  0.21859631504E+03  0.00000000000E+00 0.  1.
<mgrwt>
<rscale>  0 0.11150188E+04</rscale>
<asrwt>0</asrwt>
<pdfrwt beam="1">  1        2 0.24881252E+00 0.11150188E+04</pdfrwt>
<pdfrwt beam="2">  1       -2 0.29566875E-01 0.11150188E+04</pdfrwt>
<totfact> 0.11394715E+02</totfact>
</mgrwt>
</event>
<event>
12    1  0.4403484E-008  0.2018067E+04  0.7818608E-02  0.8598220E-01
         -2   -1    0    0    0  501 -0.00000000000E+00  0.00000000000E+00  0.80182752530E+03  0.80182752530E+03  0.00000000000E+00 0.  1.
          2   -1    0    0  501    0  0.00000000000E+00 -0.00000000000E+00 -0.12697844250E+04  0.12697844250E+04  0.00000000000E+00 0. -1.
         23    2    1    2    0    0 -0.35004147901E+03  0.24347380341E+03  0.50528025254E+03  0.66751170940E+03  0.91952262678E+02 0.  0.
        254    2    1    2    0    0  0.35004147901E+03 -0.24347380341E+03 -0.97323715224E+03  0.14041002409E+04  0.91787711706E+03 0.  0.
         23    2    4    4    0    0 -0.77510411010E+02 -0.42791728048E+03 -0.76980192100E+03  0.88882796884E+03  0.91099384598E+02 0.  0.
         23    2    4    4    0    0  0.42755189002E+03  0.18444347707E+03 -0.20343523124E+03  0.51527227206E+03  0.85437732595E+02 0.  0.
         13    1    3    3    0    0 -0.40375750106E+02  0.70527454461E+02  0.10294715803E+03  0.13115807400E+03  0.00000000000E+00 0. -1.
        -13    1    3    3    0    0 -0.30966572890E+03  0.17294634895E+03  0.40233309450E+03  0.53635363540E+03  0.00000000000E+00 0.  1.
          2    1    5    5  502    0 -0.30211874196E+02 -0.82643075889E+02 -0.95923646419E+02  0.13016904884E+03  0.00000000000E+00 0. -1.
          1    1    6    6  503    0  0.20001318310E+02  0.27889009076E+02 -0.17819912412E+01  0.34366045076E+02  0.00000000000E+00 0. -1.
         -2    1    5    5    0  502 -0.47298536814E+02 -0.34527420459E+03 -0.67387827458E+03  0.75865892000E+03  0.00000000000E+00 0.  1.
         -1    1    6    6    0  503  0.40755057171E+03  0.15655446799E+03 -0.20165324000E+03  0.48090622698E+03  0.00000000000E+00 0.  1.
<mgrwt>
<rscale>  0 0.20180665E+04</rscale>
<asrwt>0</asrwt>
<pdfrwt beam="1">  1        2 0.19535145E+00 0.20180665E+04</pdfrwt>
<pdfrwt beam="2">  1       -2 0.12335808E+00 0.20180665E+04</pdfrwt>
<totfact> 0.79190244E+00</totfact>
</mgrwt>
</event>
<event>
12    1  0.4403484E-008  0.1035728E+04  0.7818608E-02  0.9270204E-01
          3   -1    0    0  501    0  0.00000000000E+00  0.00000000000E+00  0.56908522394E+03  0.56908522394E+03  0.00000000000E+00 0. -1.
         -3   -1    0    0    0  501 -0.00000000000E+00 -0.00000000000E+00 -0.47125331651E+03  0.47125331651E+03  0.00000000000E+00 0.  1.
         23    2    1    2    0    0  0.69276617018E+02  0.38176196535E+02  0.62454024538E+02  0.13759848181E+03  0.93681190046E+02 0.  0.
        254    2    1    2    0    0 -0.69276617018E+02 -0.38176196535E+02  0.35377882892E+02  0.90274005864E+03  0.89857183754E+03 0.  0.
         23    2    4    4    0    0 -0.45738968156E+03  0.75230912237E+02 -0.63028691114E+02  0.47703173325E+03  0.93389762150E+02 0.  0.
         23    2    4    4    0    0  0.38811306454E+03 -0.11340710877E+03  0.98406574006E+02  0.42570832538E+03  0.89726257619E+02 0.  0.
         11    1    3    3    0    0  0.88418959305E+02  0.46232514918E+02  0.60622061137E+02  0.11674927022E+03  0.00000000000E+00 0. -1.
        -11    1    3    3    0    0 -0.19142342286E+02 -0.80563183834E+01  0.18319634009E+01  0.20849211592E+02  0.00000000000E+00 0.  1.
          1    1    5    5  502    0 -0.31770390660E+03  0.85021501240E+02 -0.15836115479E+02  0.32926465115E+03  0.00000000000E+00 0. -1.
          1    1    6    6  503    0  0.29216479464E+03 -0.88503668851E+02  0.33242203412E+02  0.30708013728E+03  0.00000000000E+00 0. -1.
         -1    1    5    5    0  502 -0.13968577496E+03 -0.97905890028E+01 -0.47192575635E+02  0.14776708211E+03  0.00000000000E+00 0.  1.
         -1    1    6    6    0  503  0.95948269902E+02 -0.24903439921E+02  0.65164370594E+02  0.11862818810E+03  0.00000000000E+00 0.  1.
<mgrwt>
<rscale>  0 0.10357283E+04</rscale>
<asrwt>0</asrwt>
<pdfrwt beam="1">  1        3 0.87551573E-01 0.10357283E+04</pdfrwt>
<pdfrwt beam="2">  1       -3 0.72500510E-01 0.10357283E+04</pdfrwt>
<totfact> 0.56088573E+00</totfact>
</mgrwt>
</event>
<event>
12    1  0.4403484E-008  0.1698517E+04  0.7818608E-02  0.8762211E-01
          2   -1    0    0  501    0  0.00000000000E+00  0.00000000000E+00  0.78897225725E+03  0.78897225725E+03  0.00000000000E+00 0. -1.
         -2   -1    0    0    0  501 -0.00000000000E+00 -0.00000000000E+00 -0.91415127917E+03  0.91415127917E+03  0.00000000000E+00 0.  1.
         23    2    1    2    0    0  0.59356544174E+03  0.10521570898E+03  0.77899414190E+02  0.61534768610E+03  0.95886271271E+02 0.  0.
        254    2    1    2    0    0 -0.59356544174E+03 -0.10521570898E+03 -0.20307843611E+03  0.10877758503E+04  0.88239739929E+03 0.  0.
         23    2    4    4    0    0 -0.72442590447E+03 -0.22549692820E+02  0.97610462948E+02  0.73685978962E+03  0.90184074899E+02 0.  0.
         23    2    4    4    0    0  0.13086046274E+03 -0.82666016156E+02 -0.30068889906E+03  0.35091606069E+03  0.93649008017E+02 0.  0.
         13    1    3    3    0    0  0.51272332908E+03  0.80634261533E+02  0.98704653242E+02  0.52832727062E+03  0.00000000000E+00 0. -1.
        -13    1    3    3    0    0  0.80842112659E+02  0.24581447444E+02 -0.20805239052E+02  0.87020415476E+02  0.00000000000E+00 0.  1.
          4    1    5    5  502    0 -0.19211076122E+03  0.19215029071E+02  0.57283399179E+02  0.20138805759E+03  0.00000000000E+00 0. -1.
          1    1    6    6  503    0  0.49186418082E+02 -0.76133586512E+02 -0.20982746188E+03  0.22856769343E+03  0.00000000000E+00 0. -1.
         -4    1    5    5    0  502 -0.53231514325E+03 -0.41764721892E+02  0.40327063769E+02  0.53547173203E+03  0.00000000000E+00 0.  1.
         -1    1    6    6    0  503  0.81674044655E+02 -0.65324296438E+01 -0.90861437172E+02  0.12234836726E+03  0.00000000000E+00 0.  1.
<mgrwt>
<rscale>  0 0.16985170E+04</rscale>
<asrwt>0</asrwt>
<pdfrwt beam="1">  1        2 0.12138035E+00 0.16985170E+04</pdfrwt>
<pdfrwt beam="2">  1       -2 0.14063866E+00 0.16985170E+04</pdfrwt>
<totfact> 0.11847870E+01</totfact>
</mgrwt>
</event>
<event>
12    1  0.4403484E-008  0.2505712E+04  0.7818608E-02  0.8400953E-01
          1   -1    0    0  501    0  0.00000000000E+00  0.00000000000E+00  0.10095101361E+04  0.10095101361E+04  0.00000000000E+00 0. -1.
         -1   -1    0    0    0  501 -0.00000000000E+00 -0.00000000000E+00 -0.15548618045E+04  0.15548618045E+04  0.00000000000E+00 0.  1.
         23    2    1    2    0    0 -0.89293358192E+03  0.19519080970E+03  0.37312522132E+03  0.99141311478E+03  0.90816845682E+02 0.  0.
        254    2    1    2    0    0  0.89293358192E+03 -0.19519080970E+03 -0.91847688974E+03  0.15729588258E+04  0.89172295960E+03 0.  0.
         23    2    4    4    0    0  0.14690475952E+03 -0.13562247320E+03  0.14937738385E+03  0.26531158451E+03  0.90012057331E+02 0.  0.
         23    2    4    4    0    0  0.74602882240E+03 -0.59568336500E+02 -0.10678542736E+04  0.13076472413E+04  0.97576469458E+02 0.  0.
         11    1    3    3    0    0 -0.37238899508E+03  0.43334446262E+02  0.12596760915E+03  0.39549876921E+03  0.00000000000E+00 0.  1.
        -11    1    3    3    0    0 -0.52054458684E+03  0.15185636344E+03  0.24715761217E+03  0.59591434557E+03  0.00000000000E+00 0. -1.
          4    1    5    5  502    0  0.10621635330E+03 -0.92250990721E+02  0.49630923871E+02  0.14918239709E+03  0.00000000000E+00 0. -1.
          1    1    6    6  503    0  0.93040743451E+02 -0.28288273082E+01 -0.19516304110E+03  0.21622487095E+03  0.00000000000E+00 0. -1.
         -4    1    5    5    0  502  0.40688406214E+02 -0.43371482482E+02  0.99746459977E+02  0.11612918742E+03  0.00000000000E+00 0.  1.
         -1    1    6    6    0  503  0.65298807895E+03 -0.56739509192E+02 -0.87269123249E+03  0.10914223703E+04  0.00000000000E+00 0.  1.
<mgrwt>
<rscale>  0 0.25057125E+04</rscale>
<asrwt>0</asrwt>
<pdfrwt beam="1">  1        1 0.15530925E+00 0.25057125E+04</pdfrwt>
<pdfrwt beam="2">  1       -1 0.23920951E+00 0.25057125E+04</pdfrwt>
<totfact> 0.10836607E+00</totfact>
</mgrwt>
</event>
<event>
12    1  0.4403484E-008  0.1887377E+04  0.7818608E-02  0.8661166E-01
         -2   -1    0    0    0  501 -0.00000000000E+00  0.00000000000E+00  0.43444808690E+03  0.43444808690E+03  0.00000000000E+00 0.  1.
          2   -1    0    0  501    0  0.00000000000E+00 -0.00000000000E+00 -0.20498364579E+04  0.20498364579E+04  0.00000000000E+00 0. -1.
         23    2    1    2    0    0 -0.60878466808E+03 -0.14276127878E+03 -0.14402939054E+03  0.64811073736E+03  0.91123585000E+02 0.  0.
        254    2    1    2    0    0  0.60878466808E+03  0.14276127878E+03 -0.14713589804E+04  0.18361738074E+04  0.90312648445E+03 0.  0.
         23    2    4    4    0    0  0.23033591980E+03  0.23150889917E+03 -0.30789006945E+02  0.34124603939E+03  0.94073854564E+02 0.  0.
         23    2    4    4    0    0  0.37844874828E+03 -0.88747620385E+02 -0.14405699735E+04  0.14949277680E+04  0.92019497257E+02 0.  0.
         13    1    3    3    0    0 -0.35023049993E+03 -0.49770069907E+02 -0.11421083760E+03  0.37172917341E+03  0.00000000000E+00 0. -1.
        -13    1    3    3    0    0 -0.25855416815E+03 -0.92991208873E+02 -0.29818552939E+02  0.27638156395E+03  0.00000000000E+00 0.  1.
          1    1    5    5  502    0 -0.85413118331E+01  0.46378870255E+01  0.27480001944E+01  0.10100272717E+02  0.00000000000E+00 0. -1.
          3    1    6    6  503    0  0.37930425134E+02 -0.40343674894E+02 -0.21395912936E+03  0.22100868375E+03  0.00000000000E+00 0. -1.
         -1    1    5    5    0  502  0.23887723163E+03  0.22687101214E+03 -0.33537007139E+02  0.33114576668E+03  0.00000000000E+00 0.  1.
         -3    1    6    6    0  503  0.34051832315E+03 -0.48403945490E+02 -0.12266108441E+04  0.12739190843E+04  0.00000000000E+00 0.  1.
<mgrwt>
<rscale>  0 0.18873765E+04</rscale>
<asrwt>0</asrwt>
<pdfrwt beam="1">  1        2 0.31535947E+00 0.18873765E+04</pdfrwt>
<pdfrwt beam="2">  1       -2 0.66838164E-01 0.18873765E+04</pdfrwt>
<totfact> 0.12077886E+01</totfact>
</mgrwt>
</event>
<event>
12    1  0.4403484E-008  0.1839108E+04  0.7818608E-02  0.8685774E-01
         -2   -1    0    0    0  501 -0.00000000000E+00  0.00000000000E+00  0.37892336661E+03  0.37892336661E+03  0.00000000000E+00 0.  1.
          2   -1    0    0  501    0  0.00000000000E+00 -0.00000000000E+00 -0.22315323641E+04  0.22315323641E+04  0.00000000000E+00 0. -1.
         23    2    1    2    0    0 -0.62168787888E+03 -0.11227443388E+03 -0.28697125105E+03  0.69979620977E+03  0.90889322932E+02 0.  0.
        254    2    1    2    0    0  0.62168787888E+03  0.11227443388E+03 -0.15656377464E+04  0.19106595209E+04  0.89459313917E+03 0.  0.
         23    2    4    4    0    0  0.83724851346E+03  0.37469703092E+02 -0.11253404221E+04  0.14063165663E+04  0.94584180044E+02 0.  0.
         23    2    4    4    0    0 -0.21556063458E+03  0.74804730790E+02 -0.44029732432E+03  0.50434295462E+03  0.91858299266E+02 0.  0.
         13    1    3    3    0    0 -0.31537692253E+03 -0.20250454923E+02 -0.17286713883E+03  0.36021622934E+03  0.00000000000E+00 0.  1.
        -13    1    3    3    0    0 -0.30631095634E+03 -0.92023978959E+02 -0.11410411222E+03  0.33957998043E+03  0.00000000000E+00 0. -1.
          4    1    5    5  502    0  0.39118574709E+03  0.75532046978E+01 -0.60258033434E+03  0.71846113253E+03  0.00000000000E+00 0.  1.
          1    1    6    6  503    0 -0.95584958391E+02  0.50527752943E+02 -0.29595688948E+03  0.31508731887E+03  0.00000000000E+00 0. -1.
         -4    1    5    5    0  502  0.44606276637E+03  0.29916498394E+02 -0.52276008779E+03  0.68785543380E+03  0.00000000000E+00 0. -1.
         -1    1    6    6    0  503 -0.11997567619E+03  0.24276977848E+02 -0.14434043484E+03  0.18925563574E+03  0.00000000000E+00 0.  1.
<mgrwt>
<rscale>  0 0.18391082E+04</rscale>
<asrwt>0</asrwt>
<pdfrwt beam="1">  1        2 0.34331268E+00 0.18391082E+04</pdfrwt>
<pdfrwt beam="2">  1       -2 0.58295902E-01 0.18391082E+04</pdfrwt>
<totfact> 0.12843064E+01</totfact>
</mgrwt>
</event>
<event>
12    1  0.4403484E-008  0.1345258E+04  0.7818608E-02  0.8994426E-01
          2   -1    0    0  501    0  0.00000000000E+00  0.00000000000E+00  0.55727097812E+03  0.55727097812E+03  0.00000000000E+00 0. -1.
         -2   -1    0    0    0  501 -0.00000000000E+00 -0.00000000000E+00 -0.81186672831E+03  0.81186672831E+03  0.00000000000E+00 0.  1.
         23    2    1    2    0    0 -0.20644450059E+02  0.16031089364E+03 -0.38525963094E+03  0.42754194597E+03  0.90781916655E+02 0.  0.
        254    2    1    2    0    0  0.20644450059E+02 -0.16031089364E+03  0.13066388075E+03  0.94159576047E+03  0.91837015982E+03 0.  0.
         23    2    4    4    0    0  0.33837186319E+03  0.22881601337E+03  0.19296553525E+02  0.41900121469E+03  0.91309228253E+02 0.  0.
         23    2    4    4    0    0 -0.31772741313E+03 -0.38912690701E+03  0.11136732722E+03  0.52259454577E+03  0.91279345326E+02 0.  0.
         13    1    3    3    0    0 -0.25583808726E+02  0.16265519922E+03 -0.30089278099E+03  0.34299812063E+03  0.00000000000E+00 0.  1.
        -13    1    3    3    0    0  0.49393586676E+01 -0.23443055782E+01 -0.84366849946E+02  0.84543825337E+02  0.00000000000E+00 0. -1.
          4    1    5    5  502    0  0.17913698319E+03  0.72776007682E+02 -0.12700681501E+02  0.19377232349E+03  0.00000000000E+00 0. -1.
          1    1    6    6  503    0 -0.21789457286E+03 -0.20776213036E+03  0.91244116666E+02  0.31459281066E+03  0.00000000000E+00 0. -1.
         -4    1    5    5    0  502  0.15923488000E+03  0.15604000569E+03  0.31997235026E+02  0.22522889121E+03  0.00000000000E+00 0.  1.
         -1    1    6    6    0  503 -0.99832840274E+02 -0.18136477665E+03  0.20123210555E+02  0.20800173511E+03  0.00000000000E+00 0.  1.
<mgrwt>
<rscale>  0 0.13452580E+04</rscale>
<asrwt>0</asrwt>
<pdfrwt beam="1">  1        2 0.85733998E-01 0.13452580E+04</pdfrwt>
<pdfrwt beam="2">  1       -2 0.12490257E+00 0.13452580E+04</pdfrwt>
<totfact> 0.25433011E+01</totfact>
</mgrwt>
</event>
<event>
12    1  0.4403484E-008  0.2355044E+04  0.7818608E-02  0.8456529E-01
          2   -1    0    0  501    0  0.00000000000E+00  0.00000000000E+00  0.80097251317E+03  0.80097251317E+03  0.00000000000E+00 0.  1.
         -2   -1    0    0    0  501 -0.00000000000E+00 -0.00000000000E+00 -0.17310924522E+04  0.17310924522E+04  0.00000000000E+00 0. -1.
         23    2    1    2    0    0 -0.19305285092E+03  0.11799201309E+02  0.66282219779E+03  0.69635243070E+03  0.90359379465E+02 0.  0.
        254    2    1    2    0    0  0.19305285092E+03 -0.11799201309E+02 -0.15929421368E+04  0.18357125346E+04  0.89160935072E+03 0.  0.
         23    2    4    4    0    0 -0.36531987386E+02  0.18358485512E+03 -0.14896877470E+04  0.15042208455E+04  0.92047723972E+02 0.  0.
         23    2    4    4    0    0  0.22958483830E+03 -0.19538405643E+03 -0.10325438980E+03  0.33149168910E+03  0.91329860641E+02 0.  0.
         13    1    3    3    0    0 -0.17073682913E+03  0.21978909780E+02  0.64035330203E+03  0.66308859794E+03  0.00000000000E+00 0.  1.
        -13    1    3    3    0    0 -0.22316021791E+02 -0.10179708471E+02  0.22468895757E+02  0.33263832757E+02  0.00000000000E+00 0. -1.
          2    1    5    5  502    0 -0.39002253651E+02  0.18750083728E+03 -0.12586668555E+04  0.12731535622E+04  0.00000000000E+00 0.  1.
          4    1    6    6  503    0  0.46962296868E+02 -0.97985847156E+01 -0.42580599446E+02  0.64144968927E+02  0.00000000000E+00 0. -1.
         -2    1    5    5    0  502  0.24702662645E+01 -0.39159821540E+01 -0.23102089152E+03  0.23106728338E+03  0.00000000000E+00 0. -1.
         -4    1    6    6    0  503  0.18262254144E+03 -0.18558547172E+03 -0.60673790351E+02  0.26734672017E+03  0.00000000000E+00 0.  1.
<mgrwt>
<rscale>  0 0.23550435E+04</rscale>
<asrwt>0</asrwt>
<pdfrwt beam="1">  1        2 0.12322654E+00 0.23550435E+04</pdfrwt>
<pdfrwt beam="2">  1       -2 0.26632191E+00 0.23550435E+04</pdfrwt>
<totfact> 0.15842007E+00</totfact>
</mgrwt>
</event>
<event>
12    1  0.4403484E-008  0.1681277E+04  0.7818608E-02  0.8772115E-01
          2   -1    0    0  501    0  0.00000000000E+00  0.00000000000E+00  0.13970573099E+04  0.13970573099E+04  0.00000000000E+00 0.  1.
         -2   -1    0    0    0  501 -0.00000000000E+00 -0.00000000000E+00 -0.50582970243E+03  0.50582970243E+03  0.00000000000E+00 0. -1.
         23    2    1    2    0    0  0.46900456054E+03  0.21575311036E+03 -0.84869921388E+01  0.52388251407E+03  0.88691471310E+02 0.  0.
        254    2    1    2    0    0 -0.46900456054E+03 -0.21575311036E+03  0.89971459964E+03  0.13790044983E+04  0.90865414932E+03 0.  0.
         23    2    4    4    0    0 -0.68137386008E+02  0.23742215530E+03  0.68009451878E+03  0.72910055566E+03  0.89705532705E+02 0.  0.
         23    2    4    4    0    0 -0.40086717453E+03 -0.45317526566E+03  0.21962008086E+03  0.64990394263E+03  0.89887939709E+02 0.  0.
         13    1    3    3    0    0  0.28921789807E+03  0.10699291009E+03 -0.41594331292E+02  0.31116645669E+03  0.00000000000E+00 0. -1.
        -13    1    3    3    0    0  0.17978666247E+03  0.10876020026E+03  0.33107339153E+02  0.21271605738E+03  0.00000000000E+00 0.  1.
          2    1    5    5  502    0 -0.38422307681E+02  0.32510670362E+02  0.20046413907E+03  0.20668596583E+03  0.00000000000E+00 0. -1.
          4    1    6    6  503    0 -0.59841732328E+02 -0.12325524823E+03  0.55483732207E+02  0.14782196618E+03  0.00000000000E+00 0. -1.
         -2    1    5    5    0  502 -0.29715078327E+02  0.20491148494E+03  0.47963037970E+03  0.52241458984E+03  0.00000000000E+00 0.  1.
         -4    1    6    6    0  503 -0.34102544220E+03 -0.32992001743E+03  0.16413634866E+03  0.50208197645E+03  0.00000000000E+00 0.  1.
<mgrwt>
<rscale>  0 0.16812770E+04</rscale>
<asrwt>0</asrwt>
<pdfrwt beam="1">  1        2 0.21493189E+00 0.16812770E+04</pdfrwt>
<pdfrwt beam="2">  1       -2 0.77819955E-01 0.16812770E+04</pdfrwt>
<totfact> 0.20360097E+01</totfact>
</mgrwt>
</event>
<event>
12    1  0.4403484E-008  0.1634775E+04  0.7818608E-02  0.8799465E-01
         -1   -1    0    0    0  501 -0.00000000000E+00  0.00000000000E+00  0.79948120985E+03  0.79948120985E+03  0.00000000000E+00 0.  1.
          1   -1    0    0  501    0  0.00000000000E+00 -0.00000000000E+00 -0.83569449750E+03  0.83569449750E+03  0.00000000000E+00 0. -1.
         23    2    1    2    0    0  0.51831968309E+03  0.23602142327E+02  0.20633833700E+03  0.56579372169E+03  0.91294420364E+02 0.  0.
        254    2    1    2    0    0 -0.51831968309E+03 -0.23602142327E+02 -0.24255162464E+03  0.10693819857E+04  0.90306931387E+03 0.  0.
         23    2    4    4    0    0 -0.15208150036E+03  0.69771591839E+02  0.32830991945E+03  0.37884270840E+03  0.87963269173E+02 0.  0.
         23    2    4    4    0    0 -0.36623818273E+03 -0.93373734166E+02 -0.57086154409E+03  0.69053927726E+03  0.90069585360E+02 0.  0.
         11    1    3    3    0    0  0.43140561348E+03  0.42079761784E+02  0.19803705129E+03  0.47655029470E+03  0.00000000000E+00 0.  1.
        -11    1    3    3    0    0  0.86914069609E+02 -0.18477619457E+02  0.83012857072E+01  0.89243426992E+02  0.00000000000E+00 0. -1.
          4    1    5    5  502    0 -0.85416668059E+02  0.85151253852E+02  0.21131771297E+03  0.24331444477E+03  0.00000000000E+00 0.  1.
          1    1    6    6  503    0 -0.68228437738E+01 -0.13928780024E+02 -0.52757575944E+02  0.54990216672E+02  0.00000000000E+00 0. -1.
         -4    1    5    5    0  502 -0.66664832302E+02 -0.15379662013E+02  0.11699220647E+03  0.13552826364E+03  0.00000000000E+00 0. -1.
         -1    1    6    6    0  503 -0.35941533895E+03 -0.79444954142E+02 -0.51810396814E+03  0.63554906059E+03  0.00000000000E+00 0.  1.
<mgrwt>
<rscale>  0 0.16347747E+04</rscale>
<asrwt>0</asrwt>
<pdfrwt beam="1">  1        1 0.12856839E+00 0.16347747E+04</pdfrwt>
<pdfrwt beam="2">  1       -1 0.12299711E+00 0.16347747E+04</pdfrwt>
<totfact> 0.11482274E+01</totfact>
</mgrwt>
</event>
<event>
12    1  0.4403484E-008  0.1386545E+04  0.7818608E-02  0.8963616E-01
          2   -1    0    0  501    0  0.00000000000E+00  0.00000000000E+00  0.50968221406E+03  0.50968221406E+03  0.00000000000E+00 0. -1.
         -2   -1    0    0    0  501 -0.00000000000E+00 -0.00000000000E+00 -0.94299311697E+03  0.94299311697E+03  0.00000000000E+00 0.  1.
         23    2    1    2    0    0  0.46028740005E+02  0.63690076543E+02 -0.53915239302E+03  0.55194997205E+03  0.88251900827E+02 0.  0.
        254    2    1    2    0    0 -0.46028740005E+02 -0.63690076543E+02  0.10584149010E+03  0.90072535897E+03  0.89102675634E+03 0.  0.
         23    2    4    4    0    0  0.15872957804E+03  0.28823354525E+03 -0.18670324499E+03  0.38929210788E+03  0.91741964307E+02 0.  0.
         23    2    4    4    0    0 -0.20475831805E+03 -0.35192362179E+03  0.29254473509E+03  0.51143325110E+03  0.10102150224E+03 0.  0.
         13    1    3    3    0    0 -0.16731182458E+01  0.13043876071E+02 -0.63128805100E+01  0.14587477094E+02  0.00000000000E+00 0. -1.
        -13    1    3    3    0    0  0.47701858250E+02  0.50646200472E+02 -0.53283951251E+03  0.53736249496E+03  0.00000000000E+00 0.  1.
          1    1    5    5  502    0  0.69765741704E+01 -0.32037709030E+01  0.47269884917E+01  0.90156062111E+01  0.00000000000E+00 0. -1.
          3    1    6    6  503    0 -0.39886416816E+02 -0.31719378948E+02  0.62395238474E+01  0.51341765699E+02  0.00000000000E+00 0. -1.
         -1    1    5    5    0  502  0.15175300387E+03  0.29143731615E+03 -0.19143023348E+03  0.38027650167E+03  0.00000000000E+00 0.  1.
         -3    1    6    6    0  503 -0.16487190123E+03 -0.32020424284E+03  0.28630521124E+03  0.46009148540E+03  0.00000000000E+00 0.  1.
<mgrwt>
<rscale>  0 0.13865451E+04</rscale>
<asrwt>0</asrwt>
<pdfrwt beam="1">  1        2 0.78412648E-01 0.13865451E+04</pdfrwt>
<pdfrwt beam="2">  1       -2 0.14507587E+00 0.13865451E+04</pdfrwt>
<totfact> 0.19181648E+01</totfact>
</mgrwt>
</event>
<event>
12    1  0.4403484E-008  0.1986457E+04  0.7818608E-02  0.8612979E-01
          2   -1    0    0  501    0  0.00000000000E+00  0.00000000000E+00  0.12092264198E+04  0.12092264198E+04  0.00000000000E+00 0. -1.
         -2   -1    0    0    0  501 -0.00000000000E+00 -0.00000000000E+00 -0.81581285865E+03  0.81581285865E+03  0.00000000000E+00 0.  1.
         23    2    1    2    0    0  0.26539324452E+03 -0.22560996257E+03  0.87676467621E+03  0.94785340549E+03  0.91522409246E+02 0.  0.
        254    2    1    2    0    0 -0.26539324452E+03  0.22560996257E+03 -0.48335111502E+03  0.10771858730E+04  0.89742279623E+03 0.  0.
         23    2    4    4    0    0  0.10381021209E+03  0.25467994693E+03 -0.60994120089E+03  0.67520464366E+03  0.90744734181E+02 0.  0.
         23    2    4    4    0    0 -0.36920345660E+03 -0.29069984358E+02  0.12659008587E+03  0.40198122935E+03  0.91692979834E+02 0.  0.
         11    1    3    3    0    0  0.15663520822E+02 -0.46560126101E+02  0.79889846051E+02  0.93784746783E+02  0.00000000000E+00 0.  1.
        -11    1    3    3    0    0  0.24972972369E+03 -0.17904983647E+03  0.79687483016E+03  0.85406865870E+03  0.00000000000E+00 0. -1.
          4    1    5    5  502    0  0.10421877625E+03  0.23474820472E+03 -0.48623637943E+03  0.54990370941E+03  0.00000000000E+00 0. -1.
          3    1    6    6  503    0 -0.81119826782E+02 -0.40064731075E+02  0.10077395675E+02  0.91033855662E+02  0.00000000000E+00 0.  1.
         -4    1    5    5    0  502 -0.40856416141E+00  0.19931742204E+02 -0.12370482146E+03  0.12530093425E+03  0.00000000000E+00 0.  1.
         -3    1    6    6    0  503 -0.28808362982E+03  0.10994746716E+02  0.11651269020E+03  0.31094737369E+03  0.00000000000E+00 0. -1.
<mgrwt>
<rscale>  0 0.19864566E+04</rscale>
<asrwt>0</asrwt>
<pdfrwt beam="1">  1        2 0.18603483E+00 0.19864566E+04</pdfrwt>
<pdfrwt beam="2">  1       -2 0.12550967E+00 0.19864566E+04</pdfrwt>
<totfact> 0.82565639E+00</totfact>
</mgrwt>
</event>
<event>
12    1  0.4403484E-008  0.1734838E+04  0.7818608E-02  0.8741741E-01
          1   -1    0    0  501    0  0.00000000000E+00  0.00000000000E+00  0.30244132837E+04  0.30244132837E+04  0.00000000000E+00 0. -1.
         -1   -1    0    0    0  501 -0.00000000000E+00 -0.00000000000E+00 -0.24878072632E+03  0.24878072632E+03  0.00000000000E+00 0.  1.
         23    2    1    2    0    0  0.10292623183E+03  0.61446323860E+03  0.93347836783E+03  0.11260281467E+04  0.91644111589E+02 0.  0.
        254    2    1    2    0    0 -0.10292623183E+03 -0.61446323860E+03  0.18421541896E+04  0.21471658633E+04  0.91029133012E+03 0.  0.
         23    2    4    4    0    0 -0.41555734757E+02 -0.81131675716E+03  0.10968829198E+04  0.13685975339E+04  0.99726178622E+02 0.  0.
         23    2    4    4    0    0 -0.61370497070E+02  0.19685351856E+03  0.74527126983E+03  0.77856832941E+03  0.90673768214E+02 0.  0.
         11    1    3    3    0    0  0.10698849115E+03  0.60951071956E+03  0.90178364866E+03  0.10936926458E+04  0.00000000000E+00 0.  1.
        -11    1    3    3    0    0 -0.40622593247E+01  0.49525190435E+01  0.31694719167E+02  0.32335500905E+02  0.00000000000E+00 0. -1.
          3    1    5    5  502    0  0.53595427092E+01 -0.32168384364E+03  0.36216596343E+03  0.48443101162E+03  0.00000000000E+00 0. -1.
          3    1    6    6  503    0 -0.10278327905E+02  0.13833566649E+02  0.11808628523E+02  0.20891512591E+02  0.00000000000E+00 0. -1.
         -3    1    5    5    0  502 -0.46915277466E+02 -0.48963291352E+03  0.73471695633E+03  0.88416652231E+03  0.00000000000E+00 0.  1.
         -3    1    6    6    0  503 -0.51092169166E+02  0.18301995191E+03  0.73346264131E+03  0.75767681682E+03  0.00000000000E+00 0.  1.
<mgrwt>
<rscale>  0 0.17348380E+04</rscale>
<asrwt>0</asrwt>
<pdfrwt beam="1">  1        1 0.46529433E+00 0.17348380E+04</pdfrwt>
<pdfrwt beam="2">  1       -1 0.38273960E-01 0.17348380E+04</pdfrwt>
<totfact> 0.36073092E+00</totfact>
</mgrwt>
</event>
<event>
12    1  0.4403484E-008  0.1668812E+04  0.7818608E-02  0.8779355E-01
         -2   -1    0    0    0  501 -0.00000000000E+00  0.00000000000E+00  0.65378866445E+03  0.65378866445E+03  0.00000000000E+00 0. -1.
          2   -1    0    0  501    0  0.00000000000E+00 -0.00000000000E+00 -0.10649213286E+04  0.10649213286E+04  0.00000000000E+00 0.  1.
         23    2    1    2    0    0 -0.79914417402E+02  0.11840558553E+03  0.44183953087E+03  0.47291680836E+03  0.89565282314E+02 0.  0.
        254    2    1    2    0    0  0.79914417402E+02 -0.11840558553E+03 -0.85297219498E+03  0.12457931847E+04  0.89667881469E+03 0.  0.
         23    2    4    4    0    0  0.25316374946E+03  0.13512326634E+03 -0.87371787862E+03  0.92422784206E+03  0.91999953627E+02 0.  0.
         23    2    4    4    0    0 -0.17324933206E+03 -0.25352885187E+03  0.20745683634E+02  0.32156534259E+03  0.93175513836E+02 0.  0.
         11    1    3    3    0    0 -0.72980592746E+02  0.61646828308E+02  0.16884194022E+03  0.19399510080E+03  0.00000000000E+00 0.  1.
        -11    1    3    3    0    0 -0.69338246566E+01  0.56758757220E+02  0.27299759066E+03  0.27892170756E+03  0.00000000000E+00 0. -1.
          4    1    5    5  502    0  0.22182422867E+03  0.14845052363E+03 -0.75920168081E+03  0.80475507984E+03  0.00000000000E+00 0. -1.
          3    1    6    6  503    0 -0.18461728321E+03 -0.23849049871E+03  0.23507229804E+02  0.30251256021E+03  0.00000000000E+00 0. -1.
         -4    1    5    5    0  502  0.31339520799E+02 -0.13327257287E+02 -0.11451619781E+03  0.11947276222E+03  0.00000000000E+00 0.  1.
         -3    1    6    6    0  503  0.11367951151E+02 -0.15038353162E+02 -0.27615461695E+01  0.19052782381E+02  0.00000000000E+00 0.  1.
<mgrwt>
<rscale>  0 0.16688121E+04</rscale>
<asrwt>0</asrwt>
<pdfrwt beam="1">  1        2 0.16383405E+00 0.16688121E+04</pdfrwt>
<pdfrwt beam="2">  1       -2 0.10058287E+00 0.16688121E+04</pdfrwt>
<totfact> 0.17805360E+01</totfact>
</mgrwt>
</event>
<event>
12    1  0.4403484E-008  0.1647826E+04  0.7818608E-02  0.8791694E-01
         -1   -1    0    0    0  501 -0.00000000000E+00  0.00000000000E+00  0.19568391390E+04  0.19568391390E+04  0.00000000000E+00 0.  1.
          1   -1    0    0  501    0  0.00000000000E+00 -0.00000000000E+00 -0.34690244933E+03  0.34690244933E+03  0.00000000000E+00 0. -1.
         23    2    1    2    0    0  0.21927611295E+01 -0.54168496128E+03  0.83177982160E+03  0.99699231281E+03  0.93319851618E+02 0.  0.
        254    2    1    2    0    0 -0.21927611295E+01  0.54168496128E+03  0.77815686808E+03  0.13067492755E+04  0.89924309964E+03 0.  0.
         23    2    4    4    0    0  0.31839984349E+03  0.54090219329E+03  0.73540176882E+03  0.97208173874E+03  0.10086378025E+03 0.  0.
         23    2    4    4    0    0 -0.32059260462E+03  0.78276798849E+00  0.42755099261E+02  0.33466753678E+03  0.85989131885E+02 0.  0.
         13    1    3    3    0    0 -0.17647602026E+02 -0.51568407529E+03  0.76674518112E+03  0.92419677349E+03  0.00000000000E+00 0.  1.
        -13    1    3    3    0    0  0.19840363155E+02 -0.26000885996E+02  0.65034640481E+02  0.72795539322E+02  0.00000000000E+00 0. -1.
          4    1    5    5  502    0  0.14073021066E+02  0.77072154625E+02  0.64149380867E+02  0.10125862929E+03  0.00000000000E+00 0. -1.
          3    1    6    6  503    0 -0.15236913656E+03 -0.14470949017E+02  0.61018177750E+02  0.16476947581E+03  0.00000000000E+00 0. -1.
         -4    1    5    5    0  502  0.30432682242E+03  0.46383003867E+03  0.67125238795E+03  0.87082310945E+03  0.00000000000E+00 0.  1.
         -3    1    6    6    0  503 -0.16822346805E+03  0.15253717005E+02 -0.18263078489E+02  0.16989806097E+03  0.00000000000E+00 0.  1.
<mgrwt>
<rscale>  0 0.16478256E+04</rscale>
<asrwt>0</asrwt>
<pdfrwt beam="1">  1        1 0.53369609E-01 0.16478256E+04</pdfrwt>
<pdfrwt beam="2">  1       -1 0.30105217E+00 0.16478256E+04</pdfrwt>
<totfact> 0.22556042E+00</totfact>
</mgrwt>
</event>
<event>
12    1  0.4403484E-008  0.1542038E+04  0.7818608E-02  0.8856970E-01
          1   -1    0    0  501    0  0.00000000000E+00  0.00000000000E+00  0.10763455937E+04  0.10763455937E+04  0.00000000000E+00 0. -1.
         -1   -1    0    0    0  501 -0.00000000000E+00 -0.00000000000E+00 -0.55230402029E+03  0.55230402029E+03  0.00000000000E+00 0.  1.
         23    2    1    2    0    0  0.20963346415E+03  0.19722890871E+03  0.61220201056E+03  0.68304146383E+03  0.94387011055E+02 0.  0.
        254    2    1    2    0    0 -0.20963346415E+03 -0.19722890871E+03 -0.88160437182E+02  0.94560815012E+03  0.89641345325E+03 0.  0.
         23    2    4    4    0    0 -0.19125762459E+03 -0.21441527622E+03  0.36976798468E+03  0.47635352332E+03  0.87355177525E+02 0.  0.
         23    2    4    4    0    0 -0.18375839556E+02  0.17186367519E+02 -0.45792842186E+03  0.46925462680E+03  0.99339934131E+02 0.  0.
         13    1    3    3    0    0  0.45386077095E+02  0.88115273352E+02  0.14204835813E+03  0.17321066202E+03  0.00000000000E+00 0.  1.
        -13    1    3    3    0    0  0.16424738706E+03  0.10911363535E+03  0.47015365243E+03  0.50983080181E+03  0.00000000000E+00 0. -1.
          4    1    6    6  502    0  0.14414617227E+02  0.40445619092E+02 -0.96802266306E+02  0.10589763007E+03  0.00000000000E+00 0. -1.
          4    1    5    5  503    0 -0.19688430254E+03 -0.18872177666E+03  0.32339864549E+03  0.42304375835E+03  0.00000000000E+00 0.  1.
         -4    1    5    5    0  503  0.56266779428E+01 -0.25693499568E+02  0.46369339187E+02  0.53309764972E+02  0.00000000000E+00 0. -1.
         -4    1    6    6    0  502 -0.32790456783E+02 -0.23259251574E+02 -0.36112615556E+03  0.36335699672E+03  0.00000000000E+00 0.  1.
<mgrwt>
<rscale>  0 0.15420376E+04</rscale>
<asrwt>0</asrwt>
<pdfrwt beam="1">  1        1 0.16559163E+00 0.15420376E+04</pdfrwt>
<pdfrwt beam="2">  1       -1 0.84969850E-01 0.15420376E+04</pdfrwt>
<totfact> 0.17455822E+01</totfact>
</mgrwt>
</event>
<event>
12    1  0.4403484E-008  0.2088752E+04  0.7818608E-02  0.8566214E-01
          1   -1    0    0  501    0  0.00000000000E+00  0.00000000000E+00  0.90132877041E+03  0.90132877041E+03  0.00000000000E+00 0. -1.
         -1   -1    0    0    0  501 -0.00000000000E+00 -0.00000000000E+00 -0.12101261875E+04  0.12101261875E+04  0.00000000000E+00 0.  1.
         23    2    1    2    0    0 -0.74987580651E+03 -0.15815251597E+03  0.23120985711E+03  0.80590555096E+03  0.93272801749E+02 0.  0.
        254    2    1    2    0    0  0.74987580651E+03  0.15815251597E+03 -0.54000727422E+03  0.13055494070E+04  0.90858431327E+03 0.  0.
         23    2    4    4    0    0 -0.15277135064E+03  0.20788361460E+03 -0.18158285767E+03  0.32861868541E+03  0.91995779273E+02 0.  0.
         23    2    4    4    0    0  0.90264715715E+03 -0.49731098633E+02 -0.35842441655E+03  0.97693072156E+03  0.93169200215E+02 0.  0.
         11    1    3    3    0    0 -0.34477832490E+03 -0.81754784430E+02  0.59336437874E+02  0.35927253020E+03  0.00000000000E+00 0. -1.
        -11    1    3    3    0    0 -0.40509748161E+03 -0.76397731540E+02  0.17187341924E+03  0.44663302076E+03  0.00000000000E+00 0.  1.
          4    1    5    5  502    0 -0.71776212628E+02  0.16333912462E+03 -0.95780794856E+02  0.20249803701E+03  0.00000000000E+00 0. -1.
          3    1    6    6  503    0  0.31650762400E+03 -0.23475871142E+02 -0.17375744157E+03  0.36182846913E+03  0.00000000000E+00 0. -1.
         -4    1    5    5    0  502 -0.80995138008E+02  0.44544489986E+02 -0.85802062814E+02  0.12612064840E+03  0.00000000000E+00 0.  1.
         -3    1    6    6    0  503  0.58613953315E+03 -0.26255227492E+02 -0.18466697498E+03  0.61510225242E+03  0.00000000000E+00 0.  1.
<mgrwt>
<rscale>  0 0.20887523E+04</rscale>
<asrwt>0</asrwt>
<pdfrwt beam="1">  1        1 0.13866596E+00 0.20887523E+04</pdfrwt>
<pdfrwt beam="2">  1       -1 0.18617326E+00 0.20887523E+04</pdfrwt>
<totfact> 0.31417820E+00</totfact>
</mgrwt>
</event>
<event>
12    1  0.4403484E-008  0.1850625E+04  0.7818608E-02  0.8679831E-01
         -2   -1    0    0    0  501 -0.00000000000E+00  0.00000000000E+00  0.14817371424E+04  0.14817371424E+04  0.00000000000E+00 0.  1.
          2   -1    0    0  501    0  0.00000000000E+00 -0.00000000000E+00 -0.57783763584E+03  0.57783763584E+03  0.00000000000E+00 0. -1.
         23    2    1    2    0    0  0.49478208183E+03  0.75763718973E+02  0.90044854112E+03  0.10343025183E+04  0.91786026437E+02 0.  0.
        254    2    1    2    0    0 -0.49478208183E+03 -0.75763718973E+02  0.34509654316E+01  0.10252722599E+04  0.89477474713E+03 0.  0.
         23    2    4    4    0    0  0.73826985919E+02 -0.32128566084E+03 -0.16393004150E+03  0.37707277931E+03  0.81461172856E+02 0.  0.
         23    2    4    4    0    0 -0.56860906775E+03  0.24552194186E+03  0.16738100693E+03  0.64819948057E+03  0.92460095517E+02 0.  0.
         13    1    3    3    0    0  0.24592697883E+03 -0.12197410993E+01  0.38648919067E+03  0.45809983758E+03  0.00000000000E+00 0. -1.
        -13    1    3    3    0    0  0.24885510300E+03  0.76983460072E+02  0.51395935045E+03  0.57620268077E+03  0.00000000000E+00 0.  1.
          2    1    5    5  502    0  0.24980258244E+02 -0.82735472810E+02 -0.84694437337E+02  0.12100545227E+03  0.00000000000E+00 0. -1.
          1    1    6    6  503    0 -0.35125484429E+03  0.14712970617E+03  0.56091337576E+02  0.38493292173E+03  0.00000000000E+00 0. -1.
         -2    1    5    5    0  502  0.48846727674E+02 -0.23855018803E+03 -0.79235604164E+02  0.25606732704E+03  0.00000000000E+00 0.  1.
         -1    1    6    6    0  503 -0.21735422346E+03  0.98392235697E+02  0.11128966936E+03  0.26326655884E+03  0.00000000000E+00 0.  1.
<mgrwt>
<rscale>  0 0.18506253E+04</rscale>
<asrwt>0</asrwt>
<pdfrwt beam="1">  1        2 0.88898099E-01 0.18506253E+04</pdfrwt>
<pdfrwt beam="2">  1       -2 0.22795956E+00 0.18506253E+04</pdfrwt>
<totfact> 0.42946202E+00</totfact>
</mgrwt>
</event>
<event>
12    1  0.4403484E-008  0.1579435E+04  0.7818608E-02  0.8833282E-01
          1   -1    0    0  501    0  0.00000000000E+00  0.00000000000E+00  0.96004971163E+03  0.96004971163E+03  0.00000000000E+00 0. -1.
         -1   -1    0    0    0  501 -0.00000000000E+00 -0.00000000000E+00 -0.64960597399E+03  0.64960597399E+03  0.00000000000E+00 0.  1.
         23    2    1    2    0    0 -0.20286610160E+03 -0.11674503272E+03 -0.37601419121E+03  0.45201182416E+03  0.90243888155E+02 0.  0.
        254    2    1    2    0    0  0.20286610160E+03  0.11674503272E+03  0.68645792885E+03  0.11576438615E+04  0.90229195056E+03 0.  0.
         23    2    4    4    0    0  0.88517367649E+02 -0.39959676402E+01  0.87868022568E+03  0.88779238470E+03  0.90802462512E+02 0.  0.
         23    2    4    4    0    0  0.11434873395E+03  0.12074100036E+03 -0.19222229682E+03  0.26985147676E+03  0.90644282712E+02 0.  0.
         13    1    3    3    0    0 -0.17247802220E+02 -0.58167854055E+01 -0.98652736404E+02  0.10031791502E+03  0.00000000000E+00 0. -1.
        -13    1    3    3    0    0 -0.18561829938E+03 -0.11092824731E+03 -0.27736145481E+03  0.35169390914E+03  0.00000000000E+00 0.  1.
          4    1    5    5  502    0  0.43552661265E+02  0.26021804035E+02  0.67993005579E+03  0.68182024710E+03  0.00000000000E+00 0. -1.
          3    1    6    6  503    0  0.92443402652E+02  0.11816916408E+03 -0.19665786266E+03  0.24735409635E+03  0.00000000000E+00 0. -1.
         -4    1    5    5    0  502  0.44964706384E+02 -0.30017771676E+02  0.19875016989E+03  0.20597213760E+03  0.00000000000E+00 0.  1.
         -3    1    6    6    0  503  0.21905331301E+02  0.25718362763E+01  0.44355658327E+01  0.22497380414E+02  0.00000000000E+00 0.  1.
<mgrwt>
<rscale>  0 0.15794354E+04</rscale>
<asrwt>0</asrwt>
<pdfrwt beam="1">  1        1 0.14769996E+00 0.15794354E+04</pdfrwt>
<pdfrwt beam="2">  1       -1 0.99939380E-01 0.15794354E+04</pdfrwt>
<totfact> 0.14930591E+01</totfact>
</mgrwt>
</event>
<event>
12    1  0.4403484E-008  0.2466295E+04  0.7818608E-02  0.8415093E-01
         -1   -1    0    0    0  501 -0.00000000000E+00  0.00000000000E+00  0.90604832853E+03  0.90604832853E+03  0.00000000000E+00 0.  1.
          1   -1    0    0  501    0  0.00000000000E+00 -0.00000000000E+00 -0.16783346032E+04  0.16783346032E+04  0.00000000000E+00 0. -1.
         23    2    1    2    0    0 -0.64533362569E+03  0.83998074055E+03 -0.16147785613E+03  0.10756480086E+04  0.94447908472E+02 0.  0.
        254    2    1    2    0    0  0.64533362569E+03 -0.83998074055E+03 -0.61080841851E+03  0.15087349231E+04  0.88383879252E+03 0.  0.
         23    2    4    4    0    0  0.39362712761E+03  0.60826098589E+02 -0.43659917191E+02  0.41110943253E+03  0.91992648008E+02 0.  0.
         23    2    4    4    0    0  0.25170649809E+03 -0.90080683914E+03 -0.56714850132E+03  0.10976254906E+04  0.91187567230E+02 0.  0.
         13    1    3    3    0    0 -0.52976607930E+03  0.63360886724E+03 -0.14513984539E+03  0.83855701663E+03  0.00000000000E+00 0.  1.
        -13    1    3    3    0    0 -0.11556754640E+03  0.20637187331E+03 -0.16338010743E+02  0.23709099196E+03  0.00000000000E+00 0. -1.
          1    1    5    5  502    0  0.11711086547E+02 -0.15388569158E+02 -0.21191442945E+01  0.19453749803E+02  0.00000000000E+00 0. -1.
          3    1    6    6  503    0  0.82793803022E+01 -0.95803260823E+02 -0.84223364040E+02  0.12782952700E+03  0.00000000000E+00 0. -1.
         -1    1    5    5    0  502  0.38191604106E+03  0.76214667747E+02 -0.41540772896E+02  0.39165568273E+03  0.00000000000E+00 0.  1.
         -3    1    6    6    0  503  0.24342711778E+03 -0.80500357832E+03 -0.48292513728E+03  0.96979596359E+03  0.00000000000E+00 0.  1.
<mgrwt>
<rscale>  0 0.24662946E+04</rscale>
<asrwt>0</asrwt>
<pdfrwt beam="1">  1        1 0.25820532E+00 0.24662946E+04</pdfrwt>
<pdfrwt beam="2">  1       -1 0.13939205E+00 0.24662946E+04</pdfrwt>
<totfact> 0.18627299E+00</totfact>
</mgrwt>
</event>
<event>
12    1  0.4403484E-008  0.1365290E+04  0.7818608E-02  0.8979334E-01
         -1   -1    0    0    0  501 -0.00000000000E+00  0.00000000000E+00  0.38972984223E+03  0.38972984223E+03  0.00000000000E+00 0.  1.
          1   -1    0    0  501    0  0.00000000000E+00 -0.00000000000E+00 -0.11957101480E+04  0.11957101480E+04  0.00000000000E+00 0. -1.
         23    2    1    2    0    0  0.15434946050E+03  0.18102802616E+03  0.11201573532E+03  0.27824598609E+03  0.90985721956E+02 0.  0.
        254    2    1    2    0    0 -0.15434946050E+03 -0.18102802616E+03 -0.91799604106E+03  0.13071940041E+04  0.89969135307E+03 0.  0.
         23    2    4    4    0    0 -0.25612153417E+03 -0.52693050698E+02  0.82113385068E+02  0.28951803732E+03  0.93291414748E+02 0.  0.
         23    2    4    4    0    0  0.10177207367E+03 -0.12833497547E+03 -0.10001094261E+04  0.10176759668E+04  0.92833659153E+02 0.  0.
         13    1    3    3    0    0  0.25964721113E+02  0.83091926113E+02  0.10923735723E+02  0.87736896057E+02  0.00000000000E+00 0. -1.
        -13    1    3    3    0    0  0.12838473938E+03  0.97936100052E+02  0.10109199960E+03  0.19050909003E+03  0.00000000000E+00 0.  1.
          4    1    5    5  502    0 -0.36040091419E+02  0.12307856098E+02 -0.14201606594E+02  0.40645505792E+02  0.00000000000E+00 0. -1.
          1    1    6    6  503    0  0.49873788491E+01  0.13786447453E+02 -0.12305795542E+03  0.12392820693E+03  0.00000000000E+00 0. -1.
         -4    1    5    5    0  502 -0.22008144275E+03 -0.65000906797E+02  0.96314991662E+02  0.24887253152E+03  0.00000000000E+00 0.  1.
         -1    1    6    6    0  503  0.96784694825E+02 -0.14212142292E+03 -0.87705147071E+03  0.89374775987E+03  0.00000000000E+00 0.  1.
<mgrwt>
<rscale>  0 0.13652896E+04</rscale>
<asrwt>0</asrwt>
<pdfrwt beam="1">  1        1 0.18395541E+00 0.13652896E+04</pdfrwt>
<pdfrwt beam="2">  1       -1 0.59958436E-01 0.13652896E+04</pdfrwt>
<totfact> 0.29678022E+01</totfact>
</mgrwt>
</event>
<event>
12    1  0.4403484E-008  0.1458475E+04  0.7818608E-02  0.8912546E-01
          1   -1    0    0  501    0  0.00000000000E+00  0.00000000000E+00  0.68786108124E+03  0.68786108124E+03  0.00000000000E+00 0. -1.
         -1   -1    0    0    0  501 -0.00000000000E+00 -0.00000000000E+00 -0.77310301316E+03  0.77310301316E+03  0.00000000000E+00 0.  1.
         23    2    1    2    0    0  0.25496262086E+03 -0.34501995630E+03  0.91428943468E+02  0.44841020655E+03  0.93100769913E+02 0.  0.
        254    2    1    2    0    0 -0.25496262086E+03  0.34501995630E+03 -0.17667087539E+03  0.10125538879E+04  0.90000448294E+03 0.  0.
         23    2    4    4    0    0  0.10023202356E+03  0.28972788819E+03  0.27836969161E+03  0.42364777159E+03  0.89437360366E+02 0.  0.
         23    2    4    4    0    0 -0.35519464441E+03  0.55292068110E+02 -0.45504056700E+03  0.58890611626E+03  0.10260627632E+03 0.  0.
         13    1    3    3    0    0  0.22513171618E+03 -0.32648164087E+03  0.59639260694E+02  0.40103789456E+03  0.00000000000E+00 0.  1.
        -13    1    3    3    0    0  0.29830904680E+02 -0.18538315427E+02  0.31789682774E+02  0.47372311996E+02  0.00000000000E+00 0. -1.
          2    1    5    5  502    0  0.58673000559E+02  0.21393188930E+03  0.24624362255E+03  0.33142917177E+03  0.00000000000E+00 0. -1.
          3    1    6    6  503    0 -0.49460653176E+02  0.30181687669E+02 -0.12803306387E+03  0.14053382485E+03  0.00000000000E+00 0. -1.
         -2    1    5    5    0  502  0.41559022996E+02  0.75795998890E+02  0.32126069058E+02  0.92218599823E+02  0.00000000000E+00 0.  1.
         -3    1    6    6    0  503 -0.30573399124E+03  0.25110380441E+02 -0.32700750313E+03  0.44837229141E+03  0.00000000000E+00 0.  1.
<mgrwt>
<rscale>  0 0.14584752E+04</rscale>
<asrwt>0</asrwt>
<pdfrwt beam="1">  1        1 0.10582478E+00 0.14584752E+04</pdfrwt>
<pdfrwt beam="2">  1       -1 0.11893892E+00 0.14584752E+04</pdfrwt>
<totfact> 0.17186471E+01</totfact>
</mgrwt>
</event>
<event>
12    1  0.4403484E-008  0.1096136E+04  0.7818608E-02  0.9208966E-01
         -1   -1    0    0    0  501 -0.00000000000E+00  0.00000000000E+00  0.28442209917E+03  0.28442209917E+03  0.00000000000E+00 0.  1.
          1   -1    0    0  501    0  0.00000000000E+00 -0.00000000000E+00 -0.10561015892E+04  0.10561015892E+04  0.00000000000E+00 0. -1.
         23    2    1    2    0    0  0.19313183138E+02 -0.14401701812E+03 -0.70092755722E+02  0.18490309255E+03  0.90345219467E+02 0.  0.
        254    2    1    2    0    0 -0.19313183138E+02  0.14401701812E+03 -0.70158673427E+03  0.11556205958E+04  0.90670894730E+03 0.  0.
         23    2    4    4    0    0  0.19076763520E+03  0.14576765629E+03  0.13426405964E+03  0.28896883480E+03  0.88519204223E+02 0.  0.
         23    2    4    4    0    0 -0.21008081833E+03 -0.17506381754E+01 -0.83585079391E+03  0.86665176097E+03  0.91113720934E+02 0.  0.
         11    1    3    3    0    0  0.98366060525E+00 -0.15070017522E+03 -0.67822287012E+02  0.16526152914E+03  0.00000000000E+00 0.  1.
        -11    1    3    3    0    0  0.18329522533E+02  0.66831570989E+01 -0.22704687095E+01  0.19641563412E+02  0.00000000000E+00 0. -1.
          4    1    5    5  502    0  0.19733456761E+03  0.12952482960E+03  0.13403732425E+03  0.27144726440E+03  0.00000000000E+00 0. -1.
          1    1    6    6  503    0 -0.10714845358E+03  0.17083033090E+02 -0.58288122597E+03  0.59289387306E+03  0.00000000000E+00 0.  1.
         -4    1    5    5    0  502 -0.65669324183E+01  0.16242826695E+02  0.22673539045E+00  0.17521570402E+02  0.00000000000E+00 0.  1.
         -1    1    6    6    0  503 -0.10293236476E+03 -0.18833671265E+02 -0.25296956794E+03  0.27375788791E+03  0.00000000000E+00 0. -1.
<mgrwt>
<rscale>  0 0.10961362E+04</rscale>
<asrwt>0</asrwt>
<pdfrwt beam="1">  1        1 0.16247717E+00 0.10961362E+04</pdfrwt>
<pdfrwt beam="2">  1       -1 0.43757246E-01 0.10961362E+04</pdfrwt>
<totfact> 0.70372715E+01</totfact>
</mgrwt>
</event>
<event>
12    1  0.4403484E-008  0.1005632E+04  0.7818608E-02  0.9302390E-01
         -1   -1    0    0    0  501 -0.00000000000E+00  0.00000000000E+00  0.56233808674E+03  0.56233808674E+03  0.00000000000E+00 0.  1.
          1   -1    0    0  501    0  0.00000000000E+00 -0.00000000000E+00 -0.44959375750E+03  0.44959375750E+03  0.00000000000E+00 0. -1.
         23    2    1    2    0    0 -0.52273020046E+02  0.20031728474E+02 -0.13223128923E+02  0.10733507041E+03  0.90621340926E+02 0.  0.
        254    2    1    2    0    0  0.52273020046E+02 -0.20031728474E+02  0.12596745817E+03  0.90459677383E+03  0.89403231705E+03 0.  0.
         23    2    4    4    0    0 -0.36094127769E+03  0.14347575958E+03  0.19848425128E+03  0.44565074500E+03  0.91349269203E+02 0.  0.
         23    2    4    4    0    0  0.41321429773E+03 -0.16350748806E+03 -0.72516793107E+02  0.45894602883E+03  0.88837028301E+02 0.  0.
         13    1    3    3    0    0  0.60635303597E+01  0.51165582643E+01 -0.40472739560E+02  0.41243038399E+02  0.00000000000E+00 0. -1.
        -13    1    3    3    0    0 -0.58336550406E+02  0.14915170210E+02  0.27249610637E+02  0.66092032012E+02  0.00000000000E+00 0.  1.
          4    1    5    5  502    0 -0.18251326030E+03  0.26116045476E+02  0.10828427636E+03  0.21381913508E+03  0.00000000000E+00 0. -1.
          3    1    6    6  503    0  0.19996232167E+03 -0.35642967104E+02 -0.50678625531E+02  0.20934104776E+03  0.00000000000E+00 0. -1.
         -4    1    5    5    0  502 -0.17842801738E+03  0.11735971411E+03  0.90199974911E+02  0.23183160992E+03  0.00000000000E+00 0.  1.
         -3    1    6    6    0  503  0.21325197606E+03 -0.12786452095E+03 -0.21838167575E+02  0.24960498107E+03  0.00000000000E+00 0.  1.
<mgrwt>
<rscale>  0 0.10056315E+04</rscale>
<asrwt>0</asrwt>
<pdfrwt beam="1">  1        1 0.69168271E-01 0.10056315E+04</pdfrwt>
<pdfrwt beam="2">  1       -1 0.86513552E-01 0.10056315E+04</pdfrwt>
<totfact> 0.67740091E+01</totfact>
</mgrwt>
</event>
<event>
12    1  0.4403484E-008  0.1534909E+04  0.7818608E-02  0.8861565E-01
          2   -1    0    0  501    0  0.00000000000E+00  0.00000000000E+00  0.23506698439E+04  0.23506698439E+04  0.00000000000E+00 0. -1.
         -2   -1    0    0    0  501 -0.00000000000E+00 -0.00000000000E+00 -0.25056094302E+03  0.25056094302E+03  0.00000000000E+00 0.  1.
         23    2    1    2    0    0  0.30181347725E+03 -0.33335732153E+03  0.10532491510E+04  0.11486373243E+04  0.88405032308E+02 0.  0.
        254    2    1    2    0    0 -0.30181347725E+03  0.33335732153E+03  0.10468597499E+04  0.14525934626E+04  0.90105158173E+03 0.  0.
         23    2    4    4    0    0 -0.52579953578E+03  0.29395915826E+03  0.10411924323E+04  0.12069340682E+04  0.98645959381E+02 0.  0.
         23    2    4    4    0    0  0.22398605852E+03  0.39398163269E+02  0.56673175500E+01  0.24565939444E+03  0.92706256033E+02 0.  0.
         11    1    3    3    0    0  0.23172651339E+03 -0.23001817175E+03  0.66550994703E+03  0.74128876016E+03  0.00000000000E+00 0. -1.
        -11    1    3    3    0    0  0.70086963860E+02 -0.10333914978E+03  0.38773920398E+03  0.40734856412E+03  0.00000000000E+00 0.  1.
          2    1    5    5  502    0 -0.24110368918E+03  0.79410390749E+02  0.42313863837E+03  0.49344027640E+03  0.00000000000E+00 0. -1.
          1    1    6    6  503    0  0.93997450191E+02  0.45189937713E+02  0.38984877418E+02  0.11134393464E+03  0.00000000000E+00 0. -1.
         -2    1    5    5    0  502 -0.28469584660E+03  0.21454876751E+03  0.61805379394E+03  0.71349379178E+03  0.00000000000E+00 0.  1.
         -1    1    6    6    0  503  0.12998860833E+03 -0.57917744444E+01 -0.33317559868E+02  0.13431545981E+03  0.00000000000E+00 0.  1.
<mgrwt>
<rscale>  0 0.15349085E+04</rscale>
<asrwt>0</asrwt>
<pdfrwt beam="1">  1        2 0.36164150E+00 0.15349085E+04</pdfrwt>
<pdfrwt beam="2">  1       -2 0.38547839E-01 0.15349085E+04</pdfrwt>
<totfact> 0.26033693E+01</totfact>
</mgrwt>
</event>
<event>
12    1  0.4403484E-008  0.1627626E+04  0.7818608E-02  0.8803754E-01
          2   -1    0    0  501    0  0.00000000000E+00  0.00000000000E+00  0.19959046947E+04  0.19959046947E+04  0.00000000000E+00 0. -1.
         -2   -1    0    0    0  501 -0.00000000000E+00 -0.00000000000E+00 -0.33182536070E+03  0.33182536070E+03  0.00000000000E+00 0.  1.
         23    2    1    2    0    0  0.25363540703E+03 -0.14511928916E+03  0.12686976115E+04  0.13051555874E+04  0.91907289801E+02 0.  0.
        254    2    1    2    0    0 -0.25363540703E+03  0.14511928916E+03  0.39538172245E+03  0.10225744680E+04  0.89662774238E+03 0.  0.
         23    2    4    4    0    0 -0.15003382127E+03 -0.29989501215E+03 -0.79817459868E+02  0.35684589537E+03  0.92309264471E+02 0.  0.
         23    2    4    4    0    0 -0.10360158576E+03  0.44501430130E+03  0.47519918232E+03  0.66572857265E+03  0.92786058368E+02 0.  0.
         11    1    3    3    0    0  0.13469482890E+03 -0.11980164014E+03  0.86294632803E+03  0.88157330664E+03  0.00000000000E+00 0. -1.
        -11    1    3    3    0    0  0.11894057813E+03 -0.25317649017E+02  0.40575128351E+03  0.42358228073E+03  0.00000000000E+00 0.  1.
          4    1    5    5  502    0 -0.71399658538E+02 -0.18257474684E+03 -0.29795191345E+01  0.19606204874E+03  0.00000000000E+00 0.  1.
          1    1    6    6  503    0 -0.92714792153E+02  0.24469319354E+03  0.31133794460E+03  0.40669657903E+03  0.00000000000E+00 0. -1.
         -4    1    5    5    0  502 -0.78634162733E+02 -0.11732026531E+03 -0.76837940734E+02  0.16078384663E+03  0.00000000000E+00 0. -1.
         -1    1    6    6    0  503 -0.10886793611E+02  0.20032110776E+03  0.16386123772E+03  0.25903199362E+03  0.00000000000E+00 0.  1.
<mgrwt>
<rscale>  0 0.16276262E+04</rscale>
<asrwt>0</asrwt>
<pdfrwt beam="1">  1        2 0.30706225E+00 0.16276262E+04</pdfrwt>
<pdfrwt beam="2">  1       -2 0.51050057E-01 0.16276262E+04</pdfrwt>
<totfact> 0.23312240E+01</totfact>
</mgrwt>
</event>
<event>
12    1  0.4403484E-008  0.3161326E+04  0.7818608E-02  0.8199106E-01
         -2   -1    0    0    0  501 -0.00000000000E+00  0.00000000000E+00  0.69551151674E+03  0.69551151674E+03  0.00000000000E+00 0.  1.
          2   -1    0    0  501    0  0.00000000000E+00 -0.00000000000E+00 -0.35923126021E+04  0.35923126021E+04  0.00000000000E+00 0. -1.
         23    2    1    2    0    0  0.57392013318E+03  0.12886362976E+04 -0.17836255988E+04  0.22759813534E+04  0.93824399018E+02 0.  0.
        254    2    1    2    0    0 -0.57392013318E+03 -0.12886362976E+04 -0.11131754865E+04  0.20118427654E+04  0.90464568867E+03 0.  0.
         23    2    4    4    0    0  0.18341550087E+03 -0.10969953169E+03 -0.24756899753E+02  0.23513526937E+03  0.94870741557E+02 0.  0.
         23    2    4    4    0    0 -0.75733563405E+03 -0.11789367659E+04 -0.10884185868E+04  0.17767074960E+04  0.92657140615E+02 0.  0.
         11    1    3    3    0    0  0.57733952665E+03  0.12734399131E+04 -0.17640705879E+04  0.22509809374E+04  0.00000000000E+00 0.  1.
        -11    1    3    3    0    0 -0.34193934691E+01  0.15196384467E+02 -0.19555010872E+02  0.25000416052E+02  0.00000000000E+00 0. -1.
          3    1    5    5  502    0  0.17134089610E+01 -0.12300705672E+01  0.18938237592E+02  0.19055332244E+02  0.00000000000E+00 0. -1.
          3    1    6    6  503    0 -0.24552830114E+03 -0.39548735395E+03 -0.30785862179E+03  0.55809616089E+03  0.00000000000E+00 0. -1.
         -3    1    5    5    0  502  0.18170209191E+03 -0.10846946112E+03 -0.43695137344E+02  0.21607993713E+03  0.00000000000E+00 0.  1.
         -3    1    6    6    0  503 -0.51180733291E+03 -0.78344941194E+03 -0.78055996498E+03  0.12186113351E+04  0.00000000000E+00 0.  1.
<mgrwt>
<rscale>  0 0.31613255E+04</rscale>
<asrwt>0</asrwt>
<pdfrwt beam="1">  1        2 0.55266347E+00 0.31613255E+04</pdfrwt>
<pdfrwt beam="2">  1       -2 0.10700177E+00 0.31613255E+04</pdfrwt>
<totfact> 0.41437101E-01</totfact>
</mgrwt>
</event>
<event>
12    1  0.4403484E-008  0.2246286E+04  0.7818608E-02  0.8499406E-01
         -2   -1    0    0    0  501 -0.00000000000E+00  0.00000000000E+00  0.70145529292E+03  0.70145529292E+03  0.00000000000E+00 0. -1.
          2   -1    0    0  501    0  0.00000000000E+00 -0.00000000000E+00 -0.17983324174E+04  0.17983324174E+04  0.00000000000E+00 0.  1.
         23    2    1    2    0    0  0.78229497149E+03  0.21872805698E+03  0.57225326218E+02  0.81963648945E+03  0.93283715314E+02 0.  0.
        254    2    1    2    0    0 -0.78229497149E+03 -0.21872805698E+03 -0.11541024506E+04  0.16801512208E+04  0.91166236784E+03 0.  0.
         23    2    4    4    0    0 -0.37188560124E+03 -0.24932441234E+03 -0.11718166268E+04  0.12578834847E+04  0.93032742375E+02 0.  0.
         23    2    4    4    0    0 -0.41040937025E+03  0.30596355352E+02  0.17714176155E+02  0.42226773616E+03  0.92866898398E+02 0.  0.
         11    1    3    3    0    0  0.67080727999E+03  0.15575203196E+03  0.33908473197E+02  0.68948595845E+03  0.00000000000E+00 0. -1.
        -11    1    3    3    0    0  0.11148769150E+03  0.62976025022E+02  0.23316853021E+02  0.13015053099E+03  0.00000000000E+00 0.  1.
          4    1    5    5  502    0 -0.51147371658E+02 -0.19542077548E+02 -0.79827356471E+02  0.96800585037E+02  0.00000000000E+00 0. -1.
          1    1    6    6  503    0 -0.20811536270E+02  0.12971253841E+02  0.20957143691E+02  0.32257950025E+02  0.00000000000E+00 0. -1.
         -4    1    5    5    0  502 -0.32073822958E+03 -0.22978233479E+03 -0.10919892703E+04  0.11610828996E+04  0.00000000000E+00 0.  1.
         -1    1    6    6    0  503 -0.38959783398E+03  0.17625101511E+02 -0.32429675364E+01  0.39000978614E+03  0.00000000000E+00 0.  1.
<mgrwt>
<rscale>  0 0.22462856E+04</rscale>
<asrwt>0</asrwt>
<pdfrwt beam="1">  1        2 0.27666653E+00 0.22462856E+04</pdfrwt>
<pdfrwt beam="2">  1       -2 0.10791620E+00 0.22462856E+04</pdfrwt>
<totfact> 0.54186217E+00</totfact>
</mgrwt>
</event>
<event>
12    1  0.4403484E-008  0.1361011E+04  0.7818608E-02  0.8982535E-01
         -2   -1    0    0    0  501 -0.00000000000E+00  0.00000000000E+00  0.38983453567E+03  0.38983453567E+03  0.00000000000E+00 0.  1.
          2   -1    0    0  501    0  0.00000000000E+00 -0.00000000000E+00 -0.11879075837E+04  0.11879075837E+04  0.00000000000E+00 0. -1.
         23    2    1    2    0    0 -0.31753033052E+03 -0.19527215330E+03 -0.61399943320E+02  0.38859403643E+03  0.90987073003E+02 0.  0.
        254    2    1    2    0    0  0.31753033052E+03  0.19527215330E+03 -0.73667310475E+03  0.11891480830E+04  0.85582076123E+03 0.  0.
         23    2    4    4    0    0  0.40849361716E+03 -0.74165289323E+02 -0.77925919868E+03  0.88777721657E+03  0.92390270800E+02 0.  0.
         23    2    4    4    0    0 -0.90963286639E+02  0.26943744262E+03  0.42586093937E+02  0.30137086641E+03  0.90221775204E+02 0.  0.
         13    1    3    3    0    0 -0.29086855312E+03 -0.17016435647E+03 -0.81660337963E+02  0.34674029792E+03  0.00000000000E+00 0. -1.
        -13    1    3    3    0    0 -0.26661777394E+02 -0.25107796829E+02  0.20260394643E+02  0.41853738501E+02  0.00000000000E+00 0.  1.
          2    1    5    5  502    0  0.12693088100E+03 -0.42660990309E+02 -0.33608438739E+03  0.36177910953E+03  0.00000000000E+00 0. -1.
          1    1    6    6  503    0  0.17064491478E+02  0.36954284290E+02 -0.36923314509E+01  0.40871130500E+02  0.00000000000E+00 0. -1.
         -2    1    5    5    0  502  0.28156273616E+03 -0.31504299015E+02 -0.44317481129E+03  0.52599810704E+03  0.00000000000E+00 0.  1.
         -1    1    6    6    0  503 -0.10802777812E+03  0.23248315833E+03  0.46278425388E+02  0.26049973591E+03  0.00000000000E+00 0.  1.
<mgrwt>
<rscale>  0 0.13610105E+04</rscale>
<asrwt>0</asrwt>
<pdfrwt beam="1">  1        2 0.18275501E+00 0.13610105E+04</pdfrwt>
<pdfrwt beam="2">  1       -2 0.59974545E-01 0.13610105E+04</pdfrwt>
<totfact> 0.48728652E+01</totfact>
</mgrwt>
</event>
<event>
12    1  0.4403484E-008  0.1910712E+04  0.7818608E-02  0.8649542E-01
          2   -1    0    0  501    0  0.00000000000E+00  0.00000000000E+00  0.22703330972E+04  0.22703330972E+04  0.00000000000E+00 0. -1.
         -2   -1    0    0    0  501 -0.00000000000E+00 -0.00000000000E+00 -0.40201385505E+03  0.40201385505E+03  0.00000000000E+00 0.  1.
         23    2    1    2    0    0 -0.54944391170E+03  0.33245186983E+03  0.20604740174E+03  0.68052848020E+03  0.90832938614E+02 0.  0.
        254    2    1    2    0    0  0.54944391170E+03 -0.33245186983E+03  0.16622718404E+04  0.19918184721E+04  0.88982037310E+03 0.  0.
         23    2    4    4    0    0  0.29887958960E+03 -0.58776001265E+03  0.13590245329E+04  0.15132165944E+04  0.89921849067E+02 0.  0.
         23    2    4    4    0    0  0.25056432210E+03  0.25530814282E+03  0.30324730755E+03  0.47860187772E+03  0.95582950974E+02 0.  0.
         13    1    3    3    0    0 -0.50392285716E+03  0.30996065540E+03  0.21400208536E+03  0.62913491908E+03  0.00000000000E+00 0. -1.
        -13    1    3    3    0    0 -0.45521054542E+02  0.22491214430E+02 -0.79546836202E+01  0.51393561120E+02  0.00000000000E+00 0.  1.
          2    1    5    5  502    0  0.19326194916E+03 -0.31726306684E+03  0.84002265053E+03  0.91850100053E+03  0.00000000000E+00 0. -1.
          3    1    6    6  503    0  0.21650877528E+03  0.25046751967E+03  0.24855693657E+03  0.41399345272E+03  0.00000000000E+00 0. -1.
         -2    1    5    5    0  502  0.10561764043E+03 -0.27049694581E+03  0.51900188236E+03  0.59471559384E+03  0.00000000000E+00 0.  1.
         -3    1    6    6    0  503  0.34055546822E+02  0.48406231525E+01  0.54690370986E+02  0.64608424996E+02  0.00000000000E+00 0.  1.
<mgrwt>
<rscale>  0 0.19107123E+04</rscale>
<asrwt>0</asrwt>
<pdfrwt beam="1">  1        2 0.34928201E+00 0.19107123E+04</pdfrwt>
<pdfrwt beam="2">  1       -2 0.61848287E-01 0.19107123E+04</pdfrwt>
<totfact> 0.10711236E+01</totfact>
</mgrwt>
</event>
<event>
12    1  0.4403484E-008  0.1894322E+04  0.7818608E-02  0.8657688E-01
         -1   -1    0    0    0  501 -0.00000000000E+00  0.00000000000E+00  0.35794380166E+03  0.35794380166E+03  0.00000000000E+00 0.  1.
          1   -1    0    0  501    0  0.00000000000E+00 -0.00000000000E+00 -0.25062990163E+04  0.25062990163E+04  0.00000000000E+00 0. -1.
         23    2    1    2    0    0  0.38635721218E+03 -0.61394595060E+03 -0.10531674365E+04  0.12820532772E+04  0.91090233018E+02 0.  0.
        254    2    1    2    0    0 -0.38635721218E+03  0.61394595060E+03 -0.10951877781E+04  0.15821895408E+04  0.88186503950E+03 0.  0.
         23    2    4    4    0    0  0.68849538604E+02 -0.18252722676E+03 -0.15790509568E+03  0.26754928029E+03  0.92693854549E+02 0.  0.
         23    2    4    4    0    0 -0.45520675078E+03  0.79647317736E+03 -0.93728268247E+03  0.13146402605E+04  0.90539932784E+02 0.  0.
         13    1    3    3    0    0  0.17242817856E+03 -0.29987623324E+03 -0.42616970998E+03  0.54888783346E+03  0.00000000000E+00 0.  1.
        -13    1    3    3    0    0  0.21392903362E+03 -0.31406971736E+03 -0.62699772651E+03  0.73316544370E+03  0.00000000000E+00 0. -1.
          3    1    5    5  502    0 -0.22639601221E+02 -0.24324883290E+02 -0.24045739224E+02  0.41017667722E+02  0.00000000000E+00 0. -1.
          3    1    6    6  503    0 -0.15623775018E+03  0.35073193723E+03 -0.42356830590E+03  0.57169330601E+03  0.00000000000E+00 0. -1.
         -3    1    5    5    0  502  0.91489139824E+02 -0.15820234347E+03 -0.13385935645E+03  0.22653161257E+03  0.00000000000E+00 0.  1.
         -3    1    6    6    0  503 -0.29896900061E+03  0.44574124013E+03 -0.51371437657E+03  0.74294695448E+03  0.00000000000E+00 0.  1.
<mgrwt>
<rscale>  0 0.18943223E+04</rscale>
<asrwt>0</asrwt>
<pdfrwt beam="1">  1        1 0.38558445E+00 0.18943223E+04</pdfrwt>
<pdfrwt beam="2">  1       -1 0.55068279E-01 0.18943223E+04</pdfrwt>
<totfact> 0.41876533E+00</totfact>
</mgrwt>
</event>
<event>
12    1  0.4403484E-008  0.1403915E+04  0.7818608E-02  0.8950989E-01
          2   -1    0    0  501    0  0.00000000000E+00  0.00000000000E+00  0.25921085336E+04  0.25921085336E+04  0.00000000000E+00 0. -1.
         -2   -1    0    0    0  501 -0.00000000000E+00 -0.00000000000E+00 -0.19009409615E+03  0.19009409615E+03  0.00000000000E+00 0.  1.
         23    2    1    2    0    0 -0.31937846209E+02 -0.15895053801E+03  0.14694238654E+04  0.14811081553E+04  0.90496252986E+02 0.  0.
        254    2    1    2    0    0  0.31937846209E+02  0.15895053801E+03  0.93259057205E+03  0.13010944745E+04  0.89265690885E+03 0.  0.
         23    2    4    4    0    0  0.37279936908E+03 -0.15001261999E+03  0.59161841140E+03  0.72104213511E+03  0.91685659477E+02 0.  0.
         23    2    4    4    0    0 -0.34086152287E+03  0.30896315801E+03  0.34097216065E+03  0.58005233938E+03  0.92487249378E+02 0.  0.
         11    1    3    3    0    0 -0.44397417281E+02 -0.12260375220E+03  0.13334343498E+04  0.13397947514E+04  0.00000000000E+00 0. -1.
        -11    1    3    3    0    0  0.12459571072E+02 -0.36346785807E+02  0.13598951562E+03  0.14131340386E+03  0.00000000000E+00 0.  1.
          4    1    5    5  502    0  0.60148420724E+02 -0.62345586407E+02  0.14403671485E+03  0.16808146800E+03  0.00000000000E+00 0. -1.
          3    1    6    6  503    0 -0.69370421127E+02  0.11726877791E+03  0.85410523614E+02  0.16080789515E+03  0.00000000000E+00 0. -1.
         -4    1    5    5    0  502  0.31265094836E+03 -0.87667033588E+02  0.44758169655E+03  0.55296066711E+03  0.00000000000E+00 0.  1.
         -3    1    6    6    0  503 -0.27149110175E+03  0.19169438010E+03  0.25556163704E+03  0.41924444423E+03  0.00000000000E+00 0.  1.
<mgrwt>
<rscale>  0 0.14039153E+04</rscale>
<asrwt>0</asrwt>
<pdfrwt beam="1">  1        2 0.39878590E+00 0.14039153E+04</pdfrwt>
<pdfrwt beam="2">  1       -2 0.29245247E-01 0.14039153E+04</pdfrwt>
<totfact> 0.32328053E+01</totfact>
</mgrwt>
</event>
<event>
12    1  0.4403484E-008  0.1578702E+04  0.7818608E-02  0.8833740E-01
         -2   -1    0    0    0  501 -0.00000000000E+00  0.00000000000E+00  0.56814050584E+03  0.56814050584E+03  0.00000000000E+00 0.  1.
          2   -1    0    0  501    0  0.00000000000E+00 -0.00000000000E+00 -0.10966911114E+04  0.10966911114E+04  0.00000000000E+00 0. -1.
         23    2    1    2    0    0  0.40216996093E+02 -0.51903953874E+03 -0.18843901391E+03  0.56059164103E+03  0.87944735311E+02 0.  0.
        254    2    1    2    0    0 -0.40216996093E+02  0.51903953874E+03 -0.34011159159E+03  0.11042399762E+04  0.91249689352E+03 0.  0.
         23    2    4    4    0    0  0.79535838155E+02  0.55283497710E+03  0.15431038708E+03  0.58633768922E+03  0.89597593653E+02 0.  0.
         23    2    4    4    0    0 -0.11975283425E+03 -0.33795438355E+02 -0.49442197867E+03  0.51790228695E+03  0.91031933230E+02 0.  0.
         11    1    3    3    0    0  0.37002906620E+02 -0.26637082392E+03 -0.53749843862E+02  0.27424747337E+03  0.00000000000E+00 0.  1.
        -11    1    3    3    0    0  0.32140894728E+01 -0.25266871483E+03 -0.13468917005E+03  0.28634416766E+03  0.00000000000E+00 0. -1.
          4    1    5    5  502    0  0.78266915154E+02  0.54895284615E+03  0.14062798401E+03  0.57205870957E+03  0.00000000000E+00 0. -1.
          1    1    6    6  503    0  0.15070481260E+02 -0.66174412107E+01 -0.61031661821E+02  0.63212132366E+02  0.00000000000E+00 0.  1.
         -4    1    5    5    0  502  0.12689230006E+01  0.38821309476E+01  0.13682403069E+02  0.14278979656E+02  0.00000000000E+00 0.  1.
         -1    1    6    6    0  503 -0.13482331551E+03 -0.27177997144E+02 -0.43339031685E+03  0.45469015458E+03  0.00000000000E+00 0. -1.
<mgrwt>
<rscale>  0 0.15787015E+04</rscale>
<asrwt>0</asrwt>
<pdfrwt beam="1">  1        2 0.16872171E+00 0.15787015E+04</pdfrwt>
<pdfrwt beam="2">  1       -2 0.87406233E-01 0.15787015E+04</pdfrwt>
<totfact> 0.23770311E+01</totfact>
</mgrwt>
</event>
<event>
12    1  0.4403484E-008  0.2316531E+04  0.7818608E-02  0.8471432E-01
         -2   -1    0    0    0  501 -0.00000000000E+00  0.00000000000E+00  0.15178257070E+04  0.15178257070E+04  0.00000000000E+00 0.  1.
          2   -1    0    0  501    0  0.00000000000E+00 -0.00000000000E+00 -0.88388215999E+03  0.88388215999E+03  0.00000000000E+00 0. -1.
         23    2    1    2    0    0  0.15065406860E+03  0.27142703410E+03 -0.69460190934E+03  0.76617729689E+03  0.90479581033E+02 0.  0.
        254    2    1    2    0    0 -0.15065406860E+03 -0.27142703410E+03  0.13285454563E+04  0.16355305701E+04  0.90197446356E+03 0.  0.
         23    2    4    4    0    0  0.11190858468E+03 -0.30804002001E+03  0.71769279286E+02  0.34786380689E+03  0.91903283069E+02 0.  0.
         23    2    4    4    0    0 -0.26256265328E+03  0.36612985907E+02  0.12567761770E+04  0.12876667632E+04  0.91212259170E+02 0.  0.
         11    1    3    3    0    0  0.70734304532E+02  0.51463563328E+02 -0.15436998806E+03  0.17743148932E+03  0.00000000000E+00 0.  1.
        -11    1    3    3    0    0  0.79919764068E+02  0.21996347077E+03 -0.54023192128E+03  0.58874580757E+03  0.00000000000E+00 0. -1.
          2    1    5    5  502    0  0.51539380531E+01 -0.10826148954E+03  0.52792053584E+02  0.12055751373E+03  0.00000000000E+00 0. -1.
          2    1    6    6  503    0 -0.85054297034E+02  0.54384955225E+02  0.40309553620E+03  0.41554538633E+03  0.00000000000E+00 0. -1.
         -2    1    5    5    0  502  0.10675464663E+03 -0.19977853047E+03  0.18977225702E+02  0.22730629316E+03  0.00000000000E+00 0.  1.
         -2    1    6    6    0  503 -0.17750835625E+03 -0.17771969319E+02  0.85368064083E+03  0.87212137685E+03  0.00000000000E+00 0.  1.
<mgrwt>
<rscale>  0 0.23165311E+04</rscale>
<asrwt>0</asrwt>
<pdfrwt beam="1">  1        2 0.13598187E+00 0.23165311E+04</pdfrwt>
<pdfrwt beam="2">  1       -2 0.23351165E+00 0.23165311E+04</pdfrwt>
<totfact> 0.22125785E+00</totfact>
</mgrwt>
</event>
<event>
12    1  0.4403484E-008  0.2391556E+04  0.7818608E-02  0.8442672E-01
         -2   -1    0    0    0  501 -0.00000000000E+00  0.00000000000E+00  0.86429511336E+03  0.86429511336E+03  0.00000000000E+00 0.  1.
          2   -1    0    0  501    0  0.00000000000E+00 -0.00000000000E+00 -0.16543942773E+04  0.16543942773E+04  0.00000000000E+00 0. -1.
         23    2    1    2    0    0  0.50632352326E+03 -0.51579979704E+03  0.42451134509E+03  0.84313259924E+03  0.90828172791E+02 0.  0.
        254    2    1    2    0    0 -0.50632352326E+03  0.51579979704E+03 -0.12146105090E+04  0.16755567914E+04  0.89988828850E+03 0.  0.
         23    2    4    4    0    0 -0.69643534746E+02  0.62784215831E+03 -0.44504918044E+03  0.77903236535E+03  0.98927526888E+02 0.  0.
         23    2    4    4    0    0 -0.43667998851E+03 -0.11204236127E+03 -0.76956132860E+03  0.89652442607E+03  0.91041226795E+02 0.  0.
         13    1    3    3    0    0  0.50202183560E+03 -0.50793034390E+03  0.42900090418E+03  0.83310319496E+03  0.00000000000E+00 0. -1.
        -13    1    3    3    0    0  0.43016876626E+01 -0.78694531340E+01 -0.44895590924E+01  0.10029404280E+02  0.00000000000E+00 0.  1.
          4    1    5    5  502    0 -0.88233232126E+02  0.58548057665E+03 -0.40061437024E+03  0.71488774120E+03  0.00000000000E+00 0. -1.
          3    1    6    6  503    0 -0.24155975281E+03 -0.99733287052E+02 -0.49073384655E+03  0.55598340881E+03  0.00000000000E+00 0. -1.
         -4    1    5    5    0  502  0.18589697380E+02  0.42361581662E+02 -0.44434810205E+02  0.64144624151E+02  0.00000000000E+00 0.  1.
         -3    1    6    6    0  503 -0.19512023570E+03 -0.12309074218E+02 -0.27882748205E+03  0.34054101726E+03  0.00000000000E+00 0.  1.
<mgrwt>
<rscale>  0 0.23915559E+04</rscale>
<asrwt>0</asrwt>
<pdfrwt beam="1">  1        2 0.25452219E+00 0.23915559E+04</pdfrwt>
<pdfrwt beam="2">  1       -2 0.13296848E+00 0.23915559E+04</pdfrwt>
<totfact> 0.38375964E+00</totfact>
</mgrwt>
</event>
<event>
12    1  0.4403484E-008  0.1556982E+04  0.7818608E-02  0.8847421E-01
         -1   -1    0    0    0  501 -0.00000000000E+00  0.00000000000E+00  0.46025509329E+03  0.46025509329E+03  0.00000000000E+00 0.  1.
          1   -1    0    0  501    0  0.00000000000E+00 -0.00000000000E+00 -0.13167651413E+04  0.13167651413E+04  0.00000000000E+00 0. -1.
         23    2    1    2    0    0 -0.13090191281E+03  0.23771357039E+03  0.20877702266E+03  0.35452073966E+03  0.91945947896E+02 0.  0.
        254    2    1    2    0    0  0.13090191281E+03 -0.23771357039E+03 -0.10652870707E+04  0.14224994950E+04  0.90278747102E+03 0.  0.
         23    2    4    4    0    0  0.31044885241E+02 -0.57151357607E+03 -0.60387800631E+03  0.83747459410E+03  0.95412246223E+02 0.  0.
         23    2    4    4    0    0  0.99857027569E+02  0.33380000568E+03 -0.46140906438E+03  0.58502490085E+03  0.89229704566E+02 0.  0.
         13    1    3    3    0    0  0.41932916628E+01  0.69852779769E+02  0.64802174194E+02  0.95374610440E+02  0.00000000000E+00 0. -1.
        -13    1    3    3    0    0 -0.13509520447E+03  0.16786079062E+03  0.14397484847E+03  0.25914612922E+03  0.00000000000E+00 0.  1.
          2    1    5    5  502    0  0.33326887025E+02 -0.54002673959E+03 -0.59596019133E+03  0.80492739456E+03  0.00000000000E+00 0.  1.
          1    1    6    6  503    0 -0.20147417340E+01  0.10330668909E+03 -0.17770154742E+03  0.20555819407E+03  0.00000000000E+00 0. -1.
         -2    1    5    5    0  502 -0.22820017835E+01 -0.31486836482E+02 -0.79178149816E+01  0.32547199540E+02  0.00000000000E+00 0. -1.
         -1    1    6    6    0  503  0.10187176930E+03  0.23049331659E+03 -0.28370751696E+03  0.37946670678E+03  0.00000000000E+00 0.  1.
<mgrwt>
<rscale>  0 0.15569815E+04</rscale>
<asrwt>0</asrwt>
<pdfrwt beam="1">  1        1 0.20257925E+00 0.15569815E+04</pdfrwt>
<pdfrwt beam="2">  1       -1 0.70808477E-01 0.15569815E+04</pdfrwt>
<totfact> 0.17073199E+01</totfact>
</mgrwt>
</event>
<event>
12    1  0.4403484E-008  0.1541077E+04  0.7818608E-02  0.8857588E-01
         -2   -1    0    0    0  501 -0.00000000000E+00  0.00000000000E+00  0.38653938586E+03  0.38653938586E+03  0.00000000000E+00 0.  1.
          2   -1    0    0  501    0  0.00000000000E+00 -0.00000000000E+00 -0.15360126202E+04  0.15360126202E+04  0.00000000000E+00 0. -1.
         23    2    1    2    0    0 -0.35318499956E+02 -0.44672339495E+03 -0.51376208788E+02  0.45901675501E+03  0.85133298542E+02 0.  0.
        254    2    1    2    0    0  0.35318499956E+02  0.44672339495E+03 -0.10980970256E+04  0.14635352511E+04  0.85750170000E+03 0.  0.
         23    2    4    4    0    0  0.18186804728E+03  0.49338368084E+03 -0.23773891841E+03  0.58446346616E+03  0.92597552981E+02 0.  0.
         23    2    4    4    0    0 -0.14654954732E+03 -0.46660285889E+02 -0.86035810715E+03  0.87907178489E+03  0.94324855442E+02 0.  0.
         13    1    3    3    0    0  0.96197006153E+01 -0.13057725057E+03 -0.48660860665E+02  0.13968119547E+03  0.00000000000E+00 0. -1.
        -13    1    3    3    0    0 -0.44938200571E+02 -0.31614614437E+03 -0.27153481232E+01  0.31933555954E+03  0.00000000000E+00 0.  1.
          2    1    5    5  502    0  0.14946945091E+01  0.30258401276E+02  0.60316998187E+01  0.30889907125E+02  0.00000000000E+00 0. -1.
          1    1    6    6  503    0 -0.35426258976E+02 -0.34050362942E+02 -0.11067163721E+03  0.12108946413E+03  0.00000000000E+00 0. -1.
         -2    1    5    5    0  502  0.18037335277E+03  0.46312527956E+03 -0.24377061823E+03  0.55357355904E+03  0.00000000000E+00 0.  1.
         -1    1    6    6    0  503 -0.11112328834E+03 -0.12609922948E+02 -0.74968646994E+03  0.75798232076E+03  0.00000000000E+00 0.  1.
<mgrwt>
<rscale>  0 0.15410767E+04</rscale>
<asrwt>0</asrwt>
<pdfrwt beam="1">  1        2 0.23630963E+00 0.15410767E+04</pdfrwt>
<pdfrwt beam="2">  1       -2 0.59467598E-01 0.15410767E+04</pdfrwt>
<totfact> 0.30790650E+01</totfact>
</mgrwt>
</event>
<event>
12    1  0.4403484E-008  0.1650447E+04  0.7818608E-02  0.8790142E-01
          2   -1    0    0  501    0  0.00000000000E+00  0.00000000000E+00  0.33234470991E+04  0.33234470991E+04  0.00000000000E+00 0. -1.
         -2   -1    0    0    0  501 -0.00000000000E+00 -0.00000000000E+00 -0.20490578379E+03  0.20490578379E+03  0.00000000000E+00 0.  1.
         23    2    1    2    0    0 -0.21477740238E+03  0.30032267788E+03  0.19998489088E+04  0.20357566077E+04  0.92662097104E+02 0.  0.
        254    2    1    2    0    0  0.21477740238E+03 -0.30032267788E+03  0.11186924065E+04  0.14925962752E+04  0.91654126855E+03 0.  0.
         23    2    4    4    0    0 -0.34834332639E+03 -0.19074053442E+03  0.45062593551E+03  0.60752474274E+03  0.91090914889E+02 0.  0.
         23    2    4    4    0    0  0.56312072877E+03 -0.10958214346E+03  0.66806647099E+03  0.88507153245E+03  0.89025875798E+02 0.  0.
         13    1    3    3    0    0 -0.21136376798E+03  0.29137713328E+03  0.17979142273E+04  0.18335950603E+04  0.00000000000E+00 0. -1.
        -13    1    3    3    0    0 -0.34136343969E+01  0.89455446001E+01  0.20193468150E+03  0.20216154743E+03  0.00000000000E+00 0.  1.
          4    1    6    6  502    0  0.25155125972E+03 -0.13329550208E+02  0.33260722141E+03  0.41723288091E+03  0.00000000000E+00 0. -1.
          4    1    5    5  503    0 -0.29470896797E+02 -0.44891166446E+02  0.88030778494E+02  0.10311725629E+03  0.00000000000E+00 0. -1.
         -4    1    5    5    0  503 -0.31887242960E+03 -0.14584936798E+03  0.36259515702E+03  0.50440748645E+03  0.00000000000E+00 0.  1.
         -4    1    6    6    0  502  0.31156946905E+03 -0.96252593251E+02  0.33545924958E+03  0.46783865155E+03  0.00000000000E+00 0.  1.
<mgrwt>
<rscale>  0 0.16504466E+04</rscale>
<asrwt>0</asrwt>
<pdfrwt beam="1">  1        2 0.51129951E+00 0.16504466E+04</pdfrwt>
<pdfrwt beam="2">  1       -2 0.31523969E-01 0.16504466E+04</pdfrwt>
<totfact> 0.96730140E+00</totfact>
</mgrwt>
</event>
<event>
12    1  0.4403484E-008  0.2066188E+04  0.7818608E-02  0.8576286E-01
          1   -1    0    0  501    0  0.00000000000E+00  0.00000000000E+00  0.97851213258E+03  0.97851213258E+03  0.00000000000E+00 0. -1.
         -1   -1    0    0    0  501 -0.00000000000E+00 -0.00000000000E+00 -0.10907204891E+04  0.10907204891E+04  0.00000000000E+00 0.  1.
         23    2    1    2    0    0  0.49812467418E+03 -0.27677926777E+03  0.56692587883E+03  0.80901746091E+03  0.91484129063E+02 0.  0.
        254    2    1    2    0    0 -0.49812467418E+03  0.27677926777E+03 -0.67913423535E+03  0.12602151608E+04  0.89564724513E+03 0.  0.
         23    2    4    4    0    0  0.53810024310E+02  0.44253042464E+03 -0.43397014981E+03  0.62870800455E+03  0.90636464030E+02 0.  0.
         23    2    4    4    0    0 -0.55193469849E+03 -0.16575115687E+03 -0.24516408554E+03  0.63150715621E+03  0.81181907532E+02 0.  0.
         11    1    3    3    0    0  0.54931787419E+02 -0.12280275687E+02  0.28196503700E+02  0.62955136890E+02  0.00000000000E+00 0.  1.
        -11    1    3    3    0    0  0.44319288676E+03 -0.26449899208E+03  0.53872937513E+03  0.74606232402E+03  0.00000000000E+00 0. -1.
          2    1    5    5  502    0  0.37150596763E+02  0.42013035896E+03 -0.42646299155E+03  0.59980027386E+03  0.00000000000E+00 0.  1.
          3    1    6    6  503    0 -0.39026869806E+01 -0.41846443585E+01  0.51780219477E+01  0.77171319392E+01  0.00000000000E+00 0. -1.
         -2    1    5    5    0  502  0.16659427547E+02  0.22400065682E+02 -0.75071582626E+01  0.28907730695E+02  0.00000000000E+00 0. -1.
         -3    1    6    6    0  503 -0.54803201151E+03 -0.16156651251E+03 -0.25034210749E+03  0.62379002427E+03  0.00000000000E+00 0.  1.
<mgrwt>
<rscale>  0 0.20661880E+04</rscale>
<asrwt>0</asrwt>
<pdfrwt beam="1">  1        1 0.15054033E+00 0.20661880E+04</pdfrwt>
<pdfrwt beam="2">  1       -1 0.16780315E+00 0.20661880E+04</pdfrwt>
<totfact> 0.37064138E+00</totfact>
</mgrwt>
</event>
<event>
12    1  0.4403484E-008  0.3157208E+04  0.7818608E-02  0.8200211E-01
         -2   -1    0    0    0  501 -0.00000000000E+00  0.00000000000E+00  0.10388325367E+04  0.10388325367E+04  0.00000000000E+00 0. -1.
          2   -1    0    0  501    0  0.00000000000E+00 -0.00000000000E+00 -0.23988383163E+04  0.23988383163E+04  0.00000000000E+00 0.  1.
         23    2    1    2    0    0 -0.32162236011E+02 -0.39996934547E+01 -0.22073561327E+04  0.22094873156E+04  0.91447769645E+02 0.  0.
        254    2    1    2    0    0  0.32162236011E+02  0.39996934547E+01  0.84735035311E+03  0.12281835374E+04  0.88847159412E+03 0.  0.
         23    2    4    4    0    0 -0.96597163693E+02  0.41589457252E+03  0.52133178618E+03  0.67916799700E+03  0.84752754436E+02 0.  0.
         23    2    4    4    0    0  0.12875939970E+03 -0.41189487906E+03  0.32601856693E+03  0.54901554036E+03  0.94305796009E+02 0.  0.
         11    1    3    3    0    0 -0.58609688992E+02 -0.60697037870E+01 -0.93508677872E+03  0.93694141795E+03  0.00000000000E+00 0. -1.
        -11    1    3    3    0    0  0.26447452981E+02  0.20700103323E+01 -0.12722693539E+04  0.12725458977E+04  0.00000000000E+00 0.  1.
          4    1    5    5  502    0  0.11112732852E+02  0.25770505032E+02  0.54675387751E+02  0.61457381874E+02  0.00000000000E+00 0.  1.
          1    1    6    6  503    0  0.13829954637E+03 -0.34589619707E+03  0.25404970208E+03  0.45090153559E+03  0.00000000000E+00 0. -1.
         -4    1    5    5    0  502 -0.10770989655E+03  0.39012406749E+03  0.46665639843E+03  0.61771061513E+03  0.00000000000E+00 0. -1.
         -1    1    6    6    0  503 -0.95401466649E+01 -0.65998681993E+02  0.71968864849E+02  0.98114004765E+02  0.00000000000E+00 0.  1.
<mgrwt>
<rscale>  0 0.31572084E+04</rscale>
<asrwt>0</asrwt>
<pdfrwt beam="1">  1        2 0.36905204E+00 0.31572084E+04</pdfrwt>
<pdfrwt beam="2">  1       -2 0.15982039E+00 0.31572084E+04</pdfrwt>
<totfact> 0.85000481E-01</totfact>
</mgrwt>
</event>
<event>
12    1  0.4403484E-008  0.1233325E+04  0.7818608E-02  0.9084177E-01
          2   -1    0    0  501    0  0.00000000000E+00  0.00000000000E+00  0.48133337016E+03  0.48133337016E+03  0.00000000000E+00 0. -1.
         -2   -1    0    0    0  501 -0.00000000000E+00 -0.00000000000E+00 -0.79003987530E+03  0.79003987530E+03  0.00000000000E+00 0.  1.
         23    2    1    2    0    0 -0.22630917111E+02  0.26025188280E+03  0.86060824260E+02  0.28957953831E+03  0.90590521713E+02 0.  0.
        254    2    1    2    0    0  0.22630917111E+02 -0.26025188280E+03 -0.39476732940E+03  0.98179370715E+03  0.86013629044E+03 0.  0.
         23    2    4    4    0    0  0.23648126308E+03  0.13868596085E+03  0.99606715841E+02  0.30542778305E+03  0.90594973866E+02 0.  0.
         23    2    4    4    0    0 -0.21385034597E+03 -0.39893784365E+03 -0.49437404524E+03  0.67636592410E+03  0.90453264777E+02 0.  0.
         11    1    3    3    0    0  0.18213911947E+02  0.21224025624E+03  0.73196485929E+02  0.22524519642E+03  0.00000000000E+00 0. -1.
        -11    1    3    3    0    0 -0.40844829058E+02  0.48011626562E+02  0.12864338331E+02  0.64334341891E+02  0.00000000000E+00 0.  1.
          1    1    5    5  502    0  0.16843538496E+03  0.47849936246E+02  0.55901161950E+02  0.18380705974E+03  0.00000000000E+00 0. -1.
          3    1    6    6  503    0 -0.13728006392E+03 -0.16543218000E+03 -0.20995480539E+03  0.30049066947E+03  0.00000000000E+00 0. -1.
         -1    1    5    5    0  502  0.68045878128E+02  0.90836024605E+02  0.43705553891E+02  0.12162072331E+03  0.00000000000E+00 0.  1.
         -3    1    6    6    0  503 -0.76570282053E+02 -0.23350566366E+03 -0.28441923984E+03  0.37587525463E+03  0.00000000000E+00 0.  1.
<mgrwt>
<rscale>  0 0.12333249E+04</rscale>
<asrwt>0</asrwt>
<pdfrwt beam="1">  1        2 0.74051289E-01 0.12333249E+04</pdfrwt>
<pdfrwt beam="2">  1       -2 0.12154459E+00 0.12333249E+04</pdfrwt>
<totfact> 0.32582458E+01</totfact>
</mgrwt>
</event>
<event>
12    1  0.4403484E-008  0.1266396E+04  0.7818608E-02  0.9056646E-01
          2   -1    0    0  501    0  0.00000000000E+00  0.00000000000E+00  0.34641061128E+04  0.34641061128E+04  0.00000000000E+00 0. -1.
         -2   -1    0    0    0  501 -0.00000000000E+00 -0.00000000000E+00 -0.11574123988E+03  0.11574123988E+03  0.00000000000E+00 0.  1.
         23    2    1    2    0    0  0.64084180489E+02 -0.59175125729E+02  0.18423722073E+02  0.12710257529E+03  0.90593340910E+02 0.  0.
        254    2    1    2    0    0 -0.64084180489E+02  0.59175125729E+02  0.33299411508E+04  0.34527447773E+04  0.90847672068E+03 0.  0.
         23    2    4    4    0    0 -0.63050162267E+02  0.37510306137E+03  0.28186425158E+04  0.28457959387E+04  0.95557642919E+02 0.  0.
         23    2    4    4    0    0 -0.10340182215E+01 -0.31592793564E+03  0.51129863496E+03  0.60694883863E+03  0.84552166658E+02 0.  0.
         13    1    3    3    0    0  0.12268099501E+02 -0.66865255096E+02  0.28577818585E+02  0.73743883269E+02  0.00000000000E+00 0. -1.
        -13    1    3    3    0    0  0.51816080987E+02  0.76901293674E+01 -0.10154096512E+02  0.53358692024E+02  0.00000000000E+00 0.  1.
          4    1    5    5  502    0 -0.36848778522E+02  0.30486307372E+03  0.24809270497E+04  0.24998596665E+04  0.00000000000E+00 0.  1.
          3    1    6    6  503    0 -0.27885250663E+02 -0.35466657613E+02  0.77897088158E+02  0.90019038821E+02  0.00000000000E+00 0. -1.
         -4    1    5    5    0  502 -0.26201383746E+02  0.70239987652E+02  0.33771546610E+03  0.34593627220E+03  0.00000000000E+00 0. -1.
         -3    1    6    6    0  503  0.26851232442E+02 -0.28046127803E+03  0.43340154680E+03  0.51692979981E+03  0.00000000000E+00 0.  1.
<mgrwt>
<rscale>  0 0.12663964E+04</rscale>
<asrwt>0</asrwt>
<pdfrwt beam="1">  1        2 0.53293932E+00 0.12663964E+04</pdfrwt>
<pdfrwt beam="2">  1       -2 0.17806347E-01 0.12663964E+04</pdfrwt>
<totfact> 0.22631022E+01</totfact>
</mgrwt>
</event>
<event>
12    1  0.4403484E-008  0.1170910E+04  0.7818608E-02  0.9138707E-01
         -1   -1    0    0    0  501 -0.00000000000E+00  0.00000000000E+00  0.21215678661E+03  0.21215678661E+03  0.00000000000E+00 0.  1.
          1   -1    0    0  501    0  0.00000000000E+00 -0.00000000000E+00 -0.16155848385E+04  0.16155848385E+04  0.00000000000E+00 0. -1.
         23    2    1    2    0    0  0.17436097743E+03  0.65475772145E+02 -0.13492216512E+03  0.24857620954E+03  0.94325575102E+02 0.  0.
        254    2    1    2    0    0 -0.17436097743E+03 -0.65475772145E+02 -0.12685058868E+04  0.15791654156E+04  0.92193676455E+03 0.  0.
         23    2    4    4    0    0 -0.55008149326E+02  0.16222241196E+03 -0.12914553875E+04  0.13059719733E+04  0.91453647751E+02 0.  0.
         23    2    4    4    0    0 -0.11935282811E+03 -0.22769818411E+03  0.22949500711E+02  0.27319344231E+03  0.89534444287E+02 0.  0.
         11    1    3    3    0    0  0.13857026979E+03  0.90135489630E+02 -0.10739706965E+03  0.19713005030E+03  0.00000000000E+00 0.  1.
        -11    1    3    3    0    0  0.35790707643E+02 -0.24659717486E+02 -0.27525095465E+02  0.51446159239E+02  0.00000000000E+00 0. -1.
          2    1    5    5  502    0 -0.48346258471E+02  0.82509632129E+02 -0.97044468307E+03  0.97514515996E+03  0.00000000000E+00 0. -1.
          4    1    6    6  503    0 -0.10995350048E+03 -0.20519385403E+03  0.48582549958E+02  0.23781201433E+03  0.00000000000E+00 0. -1.
         -2    1    5    5    0  502 -0.66618908554E+01  0.79712779834E+02 -0.32101070445E+03  0.33082681335E+03  0.00000000000E+00 0.  1.
         -4    1    6    6    0  503 -0.93993276314E+01 -0.22504330081E+02 -0.25633049247E+02  0.35381427981E+02  0.00000000000E+00 0.  1.
<mgrwt>
<rscale>  0 0.11709095E+04</rscale>
<asrwt>0</asrwt>
<pdfrwt beam="1">  1        1 0.24855152E+00 0.11709095E+04</pdfrwt>
<pdfrwt beam="2">  1       -1 0.32639505E-01 0.11709095E+04</pdfrwt>
<totfact> 0.47467811E+01</totfact>
</mgrwt>
</event>
<event>
12    1  0.4403484E-008  0.1572187E+04  0.7818608E-02  0.8837819E-01
          2   -1    0    0  501    0  0.00000000000E+00  0.00000000000E+00  0.13727535506E+04  0.13727535506E+04  0.00000000000E+00 0. -1.
         -2   -1    0    0    0  501 -0.00000000000E+00 -0.00000000000E+00 -0.45014857346E+03  0.45014857346E+03  0.00000000000E+00 0.  1.
         23    2    1    2    0    0  0.10451225987E+03  0.18317171064E+03 -0.25174666576E+03  0.34072128504E+03  0.90774017847E+02 0.  0.
        254    2    1    2    0    0 -0.10451225987E+03 -0.18317171064E+03  0.11743516428E+04  0.14821808390E+04  0.87936543616E+03 0.  0.
         23    2    4    4    0    0  0.34261679426E+03 -0.26268220014E+03  0.58420759507E+03  0.73183765904E+03  0.88879913805E+02 0.  0.
         23    2    4    4    0    0 -0.44712905414E+03  0.79510489493E+02  0.59014404778E+03  0.75034317993E+03  0.92187751595E+02 0.  0.
         11    1    3    3    0    0  0.73708023546E+01 -0.81456245739E+01 -0.30948826937E+02  0.32840673194E+02  0.00000000000E+00 0. -1.
        -11    1    3    3    0    0  0.97141457516E+02  0.19131733522E+03 -0.22079783882E+03  0.30788061185E+03  0.00000000000E+00 0.  1.
          4    1    5    5  502    0  0.14418171055E+03 -0.15303517606E+03  0.32926862756E+03  0.39067372559E+03  0.00000000000E+00 0.  1.
          1    1    6    6  503    0 -0.40381757432E+03  0.69885140192E+02  0.56892510222E+03  0.70116213395E+03  0.00000000000E+00 0. -1.
         -4    1    5    5    0  502  0.19843508371E+03 -0.10964702408E+03  0.25493896751E+03  0.34116393345E+03  0.00000000000E+00 0. -1.
         -1    1    6    6    0  503 -0.43311479814E+02  0.96253493006E+01  0.21218945561E+02  0.49181045979E+02  0.00000000000E+00 0.  1.
<mgrwt>
<rscale>  0 0.15721871E+04</rscale>
<asrwt>0</asrwt>
<pdfrwt beam="1">  1        2 0.21119285E+00 0.15721871E+04</pdfrwt>
<pdfrwt beam="2">  1       -2 0.69253627E-01 0.15721871E+04</pdfrwt>
<totfact> 0.27432345E+01</totfact>
</mgrwt>
</event>
<event>
12    1  0.4403484E-008  0.1385763E+04  0.7818608E-02  0.8964189E-01
          2   -1    0    0  501    0  0.00000000000E+00  0.00000000000E+00  0.17149280288E+04  0.17149280288E+04  0.00000000000E+00 0. -1.
         -2   -1    0    0    0  501 -0.00000000000E+00 -0.00000000000E+00 -0.27994444850E+03  0.27994444850E+03  0.00000000000E+00 0.  1.
         23    2    1    2    0    0  0.83713951583E+02  0.97246733132E+02 -0.12209336891E+03  0.19418882466E+03  0.79608768972E+02 0.  0.
        254    2    1    2    0    0 -0.83713951583E+02 -0.97246733132E+02  0.15570769492E+04  0.18006836526E+04  0.89526981315E+03 0.  0.
         23    2    4    4    0    0 -0.24471853946E+03  0.33537296776E+03  0.86886952978E+03  0.96731657965E+03  0.91678320419E+02 0.  0.
         23    2    4    4    0    0  0.16100458788E+03 -0.43261970089E+03  0.68820741943E+03  0.83336707299E+03  0.88254990030E+02 0.  0.
         11    1    3    3    0    0  0.55272700418E+02  0.67275441336E+01 -0.38074561445E+02  0.67453713692E+02  0.00000000000E+00 0. -1.
        -11    1    3    3    0    0  0.28441251164E+02  0.90519188998E+02 -0.84018807465E+02  0.12673511097E+03  0.00000000000E+00 0.  1.
          4    1    5    5  502    0 -0.20097746925E+02  0.11010871070E+01  0.67564733548E+02  0.70499113779E+02  0.00000000000E+00 0.  1.
          3    1    6    6  503    0  0.12171432810E+03 -0.37814534778E+03  0.62839266761E+03  0.74342829272E+03  0.00000000000E+00 0. -1.
         -4    1    5    5    0  502 -0.22462079254E+03  0.33427188065E+03  0.80130479623E+03  0.89681746587E+03  0.00000000000E+00 0. -1.
         -3    1    6    6    0  503  0.39290259781E+02 -0.54474353113E+02  0.59814751817E+02  0.89938780265E+02  0.00000000000E+00 0.  1.
<mgrwt>
<rscale>  0 0.13857627E+04</rscale>
<asrwt>0</asrwt>
<pdfrwt beam="1">  1        2 0.26383507E+00 0.13857627E+04</pdfrwt>
<pdfrwt beam="2">  1       -2 0.43068378E-01 0.13857627E+04</pdfrwt>
<totfact> 0.47909390E+01</totfact>
</mgrwt>
</event>
<event>
12    1  0.4403484E-008  0.1265802E+04  0.7818608E-02  0.9057133E-01
          1   -1    0    0  501    0  0.00000000000E+00  0.00000000000E+00  0.27730522954E+04  0.27730522954E+04  0.00000000000E+00 0. -1.
         -1   -1    0    0    0  501 -0.00000000000E+00 -0.00000000000E+00 -0.14444873495E+03  0.14444873495E+03  0.00000000000E+00 0.  1.
         23    2    1    2    0    0 -0.25019593024E+03  0.12097579356E+03  0.92620772523E+03  0.97145425415E+03  0.92894948740E+02 0.  0.
        254    2    1    2    0    0  0.25019593024E+03 -0.12097579356E+03  0.17023958352E+04  0.19460467762E+04  0.90095134674E+03 0.  0.
         23    2    4    4    0    0  0.44356135106E+01  0.36164250236E+03  0.90430227198E+03  0.97730904327E+03  0.81027111296E+02 0.  0.
         23    2    4    4    0    0  0.24576031673E+03 -0.48261829592E+03  0.79809356323E+03  0.96873773291E+03  0.90448364607E+02 0.  0.
         11    1    3    3    0    0 -0.18056480484E+03  0.85358559672E+02  0.50525958448E+03  0.54330192358E+03  0.00000000000E+00 0. -1.
        -11    1    3    3    0    0 -0.69631125393E+02  0.35617233889E+02  0.42094814076E+03  0.42815233058E+03  0.00000000000E+00 0.  1.
          4    1    5    5  502    0 -0.14347045373E+02  0.27632226234E+03  0.60023388618E+03  0.66093914129E+03  0.00000000000E+00 0.  1.
          1    1    6    6  503    0  0.93522160162E+02 -0.20367907762E+03  0.25490924306E+03  0.33942640337E+03  0.00000000000E+00 0. -1.
         -4    1    5    5    0  502  0.18782658884E+02  0.85320240018E+02  0.30406838581E+03  0.31636990198E+03  0.00000000000E+00 0. -1.
         -1    1    6    6    0  503  0.15223815656E+03 -0.27893921830E+03  0.54318432016E+03  0.62931132954E+03  0.00000000000E+00 0.  1.
<mgrwt>
<rscale>  0 0.12658023E+04</rscale>
<asrwt>0</asrwt>
<pdfrwt beam="1">  1        1 0.42662339E+00 0.12658023E+04</pdfrwt>
<pdfrwt beam="2">  1       -1 0.22222884E-01 0.12658023E+04</pdfrwt>
<totfact> 0.14812134E+01</totfact>
</mgrwt>
</event>
<event>
12    1  0.4403484E-008  0.1948680E+04  0.7818608E-02  0.8630997E-01
         -1   -1    0    0    0  501 -0.00000000000E+00  0.00000000000E+00  0.99716608351E+03  0.99716608351E+03  0.00000000000E+00 0.  1.
          1   -1    0    0  501    0  0.00000000000E+00 -0.00000000000E+00 -0.95203672290E+03  0.95203672290E+03  0.00000000000E+00 0. -1.
         23    2    1    2    0    0  0.22237084872E+03  0.79739276040E+00 -0.69121731177E+03  0.73123906068E+03  0.86485614879E+02 0.  0.
        254    2    1    2    0    0 -0.22237084872E+03 -0.79739276040E+00  0.73634667238E+03  0.12179637457E+04  0.94434095209E+03 0.  0.
         23    2    4    4    0    0  0.30779714971E+02  0.43551407500E+03  0.43226526898E+03  0.62137712484E+03  0.92932061921E+02 0.  0.
         23    2    4    4    0    0 -0.25315056370E+03 -0.43631146776E+03  0.30408140340E+03  0.59658662089E+03  0.94853526723E+02 0.  0.
         13    1    3    3    0    0  0.19468521514E+03 -0.19888602830E+02 -0.64152552101E+03  0.67071073021E+03  0.00000000000E+00 0. -1.
        -13    1    3    3    0    0  0.27685633583E+02  0.20685995590E+02 -0.49691790759E+02  0.60528330468E+02  0.00000000000E+00 0.  1.
          3    1    5    5  502    0  0.56327953099E+02  0.32604548683E+03  0.28932440580E+03  0.43953055591E+03  0.00000000000E+00 0. -1.
          3    1    6    6  503    0 -0.14738695850E+03 -0.22573703150E+03  0.10946930254E+03  0.29097018941E+03  0.00000000000E+00 0. -1.
         -3    1    5    5    0  502 -0.25548238127E+02  0.10946858817E+03  0.14294086317E+03  0.18184656893E+03  0.00000000000E+00 0.  1.
         -3    1    6    6    0  503 -0.10576360520E+03 -0.21057443626E+03  0.19461210086E+03  0.30561643148E+03  0.00000000000E+00 0.  1.
<mgrwt>
<rscale>  0 0.19486803E+04</rscale>
<asrwt>0</asrwt>
<pdfrwt beam="1">  1        1 0.14646719E+00 0.19486803E+04</pdfrwt>
<pdfrwt beam="2">  1       -1 0.15341017E+00 0.19486803E+04</pdfrwt>
<totfact> 0.50506673E+00</totfact>
</mgrwt>
</event>
<event>
12    1  0.4403484E-008  0.1598041E+04  0.7818608E-02  0.8821753E-01
          2   -1    0    0  501    0  0.00000000000E+00  0.00000000000E+00  0.85961356791E+03  0.85961356791E+03  0.00000000000E+00 0. -1.
         -2   -1    0    0    0  501 -0.00000000000E+00 -0.00000000000E+00 -0.74269828378E+03  0.74269828378E+03  0.00000000000E+00 0.  1.
         23    2    1    2    0    0  0.11610562702E+03 -0.31357258760E+03 -0.39110468424E+03  0.52366437135E+03  0.97227647642E+02 0.  0.
        254    2    1    2    0    0 -0.11610562702E+03  0.31357258760E+03  0.50801996837E+03  0.10786474803E+04  0.89083545859E+03 0.  0.
         23    2    4    4    0    0  0.25840375015E+03  0.38784360617E+03  0.53089932422E+02  0.47775445950E+03  0.90750326226E+02 0.  0.
         23    2    4    4    0    0 -0.37450937718E+03 -0.74271018573E+02  0.45493003594E+03  0.60089302084E+03  0.91310607820E+02 0.  0.
         11    1    3    3    0    0  0.11385867081E+03 -0.17251608770E+03 -0.21928886421E+03  0.30135229118E+03  0.00000000000E+00 0.  1.
        -11    1    3    3    0    0  0.22469562132E+01 -0.14105649989E+03 -0.17181582003E+03  0.22231208016E+03  0.00000000000E+00 0. -1.
          1    1    6    6  502    0  0.20299157666E+01  0.68427789050E+00  0.22587005417E+02  0.22688358424E+02  0.00000000000E+00 0. -1.
          1    1    5    5  503    0  0.20889449097E+02  0.26101089034E+02  0.29133425433E+02  0.44344023383E+02  0.00000000000E+00 0. -1.
         -1    1    5    5    0  503  0.23751430106E+03  0.36174251714E+03  0.23956506989E+02  0.43341043612E+03  0.00000000000E+00 0.  1.
         -1    1    6    6    0  502 -0.37653929294E+03 -0.74955296463E+02  0.43234303053E+03  0.57820466242E+03  0.00000000000E+00 0.  1.
<mgrwt>
<rscale>  0 0.15980407E+04</rscale>
<asrwt>0</asrwt>
<pdfrwt beam="1">  1        2 0.13224824E+00 0.15980407E+04</pdfrwt>
<pdfrwt beam="2">  1       -2 0.11426127E+00 0.15980407E+04</pdfrwt>
<totfact> 0.17955394E+01</totfact>
</mgrwt>
</event>
<event>
12    1  0.4403484E-008  0.1469166E+04  0.7818608E-02  0.8905220E-01
         -1   -1    0    0    0  501 -0.00000000000E+00  0.00000000000E+00  0.43596788707E+03  0.43596788707E+03  0.00000000000E+00 0.  1.
          1   -1    0    0  501    0  0.00000000000E+00 -0.00000000000E+00 -0.12377337794E+04  0.12377337794E+04  0.00000000000E+00 0. -1.
         23    2    1    2    0    0  0.19138808707E+03  0.41545010819E+03 -0.20055927923E+03  0.50809697901E+03  0.93329112929E+02 0.  0.
        254    2    1    2    0    0 -0.19138808707E+03 -0.41545010819E+03 -0.60120661315E+03  0.11656046875E+04  0.88766925349E+03 0.  0.
         23    2    4    4    0    0  0.11203127778E+00 -0.66348841002E+03 -0.36458632015E+03  0.76249022401E+03  0.90836523931E+02 0.  0.
         23    2    4    4    0    0 -0.19150011835E+03  0.24803830183E+03 -0.23662029300E+03  0.40311446351E+03  0.91196563145E+02 0.  0.
         11    1    3    3    0    0  0.72614202746E+02  0.13785476598E+03 -0.11688670584E+03  0.19478003221E+03  0.00000000000E+00 0.  1.
        -11    1    3    3    0    0  0.11877388433E+03  0.27759534221E+03 -0.83672573390E+02  0.31331694680E+03  0.00000000000E+00 0. -1.
          4    1    5    5  502    0 -0.20455858649E+02 -0.11919361180E+03 -0.10009491754E+03  0.15698583300E+03  0.00000000000E+00 0. -1.
          1    1    6    6  503    0 -0.17160381552E+01  0.38277444832E+02 -0.54727225893E+02  0.66807011786E+02  0.00000000000E+00 0. -1.
         -4    1    5    5    0  502  0.20567889927E+02 -0.54429479822E+03 -0.26449140262E+03  0.60550439100E+03  0.00000000000E+00 0.  1.
         -1    1    6    6    0  503 -0.18978408019E+03  0.20976085700E+03 -0.18189306710E+03  0.33630745172E+03  0.00000000000E+00 0.  1.
<mgrwt>
<rscale>  0 0.14691660E+04</rscale>
<asrwt>0</asrwt>
<pdfrwt beam="1">  1        1 0.19042058E+00 0.14691660E+04</pdfrwt>
<pdfrwt beam="2">  1       -1 0.67071984E-01 0.14691660E+04</pdfrwt>
<totfact> 0.21902217E+01</totfact>
</mgrwt>
</event>
<event>
12    1  0.4403484E-008  0.1770758E+04  0.7818608E-02  0.8722007E-01
         -1   -1    0    0    0  501 -0.00000000000E+00  0.00000000000E+00  0.57114854567E+03  0.57114854567E+03  0.00000000000E+00 0.  1.
          1   -1    0    0  501    0  0.00000000000E+00 -0.00000000000E+00 -0.13724900145E+04  0.13724900145E+04  0.00000000000E+00 0. -1.
         23    2    1    2    0    0 -0.54806134935E+03  0.10825228106E+03  0.71008733590E+02  0.56954738623E+03  0.85159766987E+02 0.  0.
        254    2    1    2    0    0  0.54806134935E+03 -0.10825228106E+03 -0.87235020241E+03  0.13740911739E+04  0.90279669893E+03 0.  0.
         23    2    4    4    0    0  0.11589299456E+03  0.23918880406E+03  0.56886815203E+02  0.28839407068E+03  0.96397925727E+02 0.  0.
         23    2    4    4    0    0  0.43216835479E+03 -0.34744108512E+03 -0.92923701762E+03  0.10856971032E+04  0.88158780444E+02 0.  0.
         11    1    3    3    0    0 -0.13120789214E+03 -0.73364760163E+01  0.31703041288E+02  0.13518290450E+03  0.00000000000E+00 0. -1.
        -11    1    3    3    0    0 -0.41685345721E+03  0.11558875708E+03  0.39305692302E+02  0.43436448174E+03  0.00000000000E+00 0.  1.
          2    1    6    6  502    0  0.37984682523E+03 -0.32603272912E+03 -0.78786516739E+03  0.93344119959E+03  0.00000000000E+00 0. -1.
          2    1    5    5  503    0  0.15873064172E+02  0.19964079631E+02 -0.23191658957E+02  0.34472767322E+02  0.00000000000E+00 0. -1.
         -2    1    5    5    0  503  0.10001993039E+03  0.21922472443E+03  0.80078474160E+02  0.25392130336E+03  0.00000000000E+00 0.  1.
         -2    1    6    6    0  502  0.52321529558E+02 -0.21408355996E+02 -0.14137185023E+03  0.15225590366E+03  0.00000000000E+00 0.  1.
<mgrwt>
<rscale>  0 0.17707577E+04</rscale>
<asrwt>0</asrwt>
<pdfrwt beam="1">  1        1 0.21115231E+00 0.17707577E+04</pdfrwt>
<pdfrwt beam="2">  1       -1 0.87869007E-01 0.17707577E+04</pdfrwt>
<totfact> 0.96771827E+00</totfact>
</mgrwt>
</event>
<event>
12    1  0.4403484E-008  0.3118280E+04  0.7818608E-02  0.8210739E-01
         -2   -1    0    0    0  501 -0.00000000000E+00  0.00000000000E+00  0.13258634118E+04  0.13258634118E+04  0.00000000000E+00 0.  1.
          2   -1    0    0  501    0  0.00000000000E+00 -0.00000000000E+00 -0.18334597948E+04  0.18334597948E+04  0.00000000000E+00 0. -1.
         23    2    1    2    0    0  0.42898346979E+03 -0.11469585340E+04 -0.98165157031E+03  0.15716716816E+04  0.83494748997E+02 0.  0.
        254    2    1    2    0    0 -0.42898346979E+03  0.11469585340E+04  0.47405518731E+03  0.15876515250E+04  0.89239472666E+03 0.  0.
         23    2    4    4    0    0  0.21474926050E+03  0.52637968930E+03  0.92431069547E+01  0.57575388021E+03  0.90632628514E+02 0.  0.
         23    2    4    4    0    0 -0.64373273028E+03  0.62057884473E+03  0.46481208036E+03  0.10118976448E+04  0.91524002275E+02 0.  0.
         11    1    3    3    0    0  0.24233232048E+03 -0.57261855905E+03 -0.45653783495E+03  0.77139079749E+03  0.00000000000E+00 0.  1.
        -11    1    3    3    0    0  0.18665114930E+03 -0.57433997498E+03 -0.52511373536E+03  0.80028088411E+03  0.00000000000E+00 0. -1.
          4    1    5    5  502    0 -0.20227536157E+01  0.23038589161E+02  0.15220440533E+02  0.27686276975E+02  0.00000000000E+00 0.  1.
          3    1    6    6  503    0 -0.63215978857E+03  0.58877561637E+03  0.45638422676E+03  0.97702061757E+03  0.00000000000E+00 0. -1.
         -4    1    5    5    0  502  0.21677201411E+03  0.50334110014E+03 -0.59773335781E+01  0.54806760323E+03  0.00000000000E+00 0. -1.
         -3    1    6    6    0  503 -0.11572941718E+02  0.31803228364E+02  0.84278535916E+01  0.34877027260E+02  0.00000000000E+00 0.  1.
<mgrwt>
<rscale>  0 0.31182798E+04</rscale>
<asrwt>0</asrwt>
<pdfrwt beam="1">  1        2 0.28207074E+00 0.31182798E+04</pdfrwt>
<pdfrwt beam="2">  1       -2 0.20397899E+00 0.31182798E+04</pdfrwt>
<totfact> 0.87801182E-01</totfact>
</mgrwt>
</event>
<event>
12    1  0.4403484E-008  0.1296973E+04  0.7818608E-02  0.9031969E-01
         -2   -1    0    0    0  501 -0.00000000000E+00  0.00000000000E+00  0.88808276986E+02  0.88808276986E+02  0.00000000000E+00 0.  1.
          2   -1    0    0  501    0  0.00000000000E+00 -0.00000000000E+00 -0.47353109955E+04  0.47353109955E+04  0.00000000000E+00 0. -1.
         23    2    1    2    0    0  0.23452867606E+03  0.19770788446E+03 -0.16094077014E+04  0.16414052032E+04  0.99628230922E+02 0.  0.
        254    2    1    2    0    0 -0.23452867606E+03 -0.19770788446E+03 -0.30370950171E+04  0.31827140693E+04  0.90090543132E+03 0.  0.
         23    2    4    4    0    0 -0.61711073619E+02  0.33568223503E+03 -0.80123247696E+03  0.87575655257E+03  0.92115350013E+02 0.  0.
         23    2    4    4    0    0 -0.17281760244E+03 -0.53339011949E+03 -0.22358625402E+04  0.23069575167E+04  0.92740185714E+02 0.  0.
         11    1    3    3    0    0  0.78346229561E+02  0.10757029931E+03 -0.49850587716E+03  0.51596279957E+03  0.00000000000E+00 0.  1.
        -11    1    3    3    0    0  0.15618244650E+03  0.90137585145E+02 -0.11109018242E+04  0.11254424037E+04  0.00000000000E+00 0. -1.
          1    1    5    5  502    0 -0.49206131853E+02  0.33548814380E+03 -0.78619069981E+03  0.85619469428E+03  0.00000000000E+00 0. -1.
          3    1    6    6  503    0 -0.15892066960E+03 -0.51683506113E+03 -0.21962354770E+04  0.22618188544E+04  0.00000000000E+00 0. -1.
         -1    1    5    5    0  502 -0.12504941766E+02  0.19409123645E+00 -0.15041777146E+02  0.19561858289E+02  0.00000000000E+00 0.  1.
         -3    1    6    6    0  503 -0.13896932840E+02 -0.16555058364E+02 -0.39627063161E+02  0.45138662304E+02  0.00000000000E+00 0.  1.
<mgrwt>
<rscale>  0 0.12969731E+04</rscale>
<asrwt>0</asrwt>
<pdfrwt beam="1">  1        2 0.72850938E+00 0.12969731E+04</pdfrwt>
<pdfrwt beam="2">  1       -2 0.13662812E-01 0.12969731E+04</pdfrwt>
<totfact> 0.30003655E+00</totfact>
</mgrwt>
</event>
<event>
12    1  0.4403484E-008  0.2776524E+04  0.7818608E-02  0.8310594E-01
          1   -1    0    0  501    0  0.00000000000E+00  0.00000000000E+00  0.35886858412E+04  0.35886858412E+04  0.00000000000E+00 0. -1.
         -1   -1    0    0    0  501 -0.00000000000E+00 -0.00000000000E+00 -0.53704080796E+03  0.53704080796E+03  0.00000000000E+00 0.  1.
         23    2    1    2    0    0 -0.12356913015E+04 -0.75031413647E+02  0.12428809830E+04  0.17566179376E+04  0.91600956262E+02 0.  0.
        254    2    1    2    0    0  0.12356913015E+04  0.75031413647E+02  0.18087640503E+04  0.23691087116E+04  0.89915849123E+03 0.  0.
         23    2    4    4    0    0  0.10732354855E+04 -0.27340010392E+03  0.11427277857E+04  0.15938888908E+04  0.89849762342E+02 0.  0.
         23    2    4    4    0    0  0.16245581592E+03  0.34843151757E+03  0.66603626458E+03  0.77521982081E+03  0.97801075040E+02 0.  0.
         11    1    3    3    0    0 -0.84059748758E+03 -0.91935753505E+02  0.86431725467E+03  0.12091735341E+04  0.00000000000E+00 0. -1.
        -11    1    3    3    0    0 -0.39509381388E+03  0.16904339858E+02  0.37856372835E+03  0.54744440347E+03  0.00000000000E+00 0.  1.
          4    1    5    5  502    0  0.35486912284E+03 -0.57277685582E+02  0.40968529052E+03  0.54502739829E+03  0.00000000000E+00 0. -1.
          3    1    6    6  503    0  0.34068912759E+02  0.99166359028E+02  0.27281252862E+03  0.29226928225E+03  0.00000000000E+00 0. -1.
         -4    1    5    5    0  502  0.71836636269E+03 -0.21612241834E+03  0.73304249516E+03  0.10488614925E+04  0.00000000000E+00 0.  1.
         -3    1    6    6    0  503  0.12838690316E+03  0.24926515854E+03  0.39322373596E+03  0.48295053855E+03  0.00000000000E+00 0.  1.
<mgrwt>
<rscale>  0 0.27765235E+04</rscale>
<asrwt>0</asrwt>
<pdfrwt beam="1">  1        1 0.55210550E+00 0.27765235E+04</pdfrwt>
<pdfrwt beam="2">  1       -1 0.82621665E-01 0.27765235E+04</pdfrwt>
<totfact> 0.26820312E-01</totfact>
</mgrwt>
</event>
<event>
12    1  0.4403484E-008  0.3160121E+04  0.7818608E-02  0.8199429E-01
          2   -1    0    0  501    0  0.00000000000E+00  0.00000000000E+00  0.22251015530E+04  0.22251015530E+04  0.00000000000E+00 0. -1.
         -2   -1    0    0    0  501 -0.00000000000E+00 -0.00000000000E+00 -0.11220123849E+04  0.11220123849E+04  0.00000000000E+00 0.  1.
         23    2    1    2    0    0  0.41010523142E+03 -0.12884945628E+04 -0.50796309625E+02  0.13563707554E+04  0.93577890934E+02 0.  0.
        254    2    1    2    0    0 -0.41010523142E+03  0.12884945628E+04  0.11538854778E+04  0.19907431825E+04  0.89621547837E+03 0.  0.
         23    2    4    4    0    0  0.65238279554E+02  0.25354509618E+03 -0.98687556255E+02  0.29527890057E+03  0.94388804652E+02 0.  0.
         23    2    4    4    0    0 -0.47534351098E+03  0.10349494667E+04  0.12525730340E+04  0.16954642820E+04  0.92671861299E+02 0.  0.
         11    1    3    3    0    0  0.36109828749E+03 -0.10526220431E+04 -0.67506139035E+02  0.11148821541E+04  0.00000000000E+00 0.  1.
        -11    1    3    3    0    0  0.49006943931E+02 -0.23587251976E+03  0.16709829410E+02  0.24148860124E+03  0.00000000000E+00 0. -1.
          1    1    5    5  502    0  0.57260239158E+02  0.15812790611E+03 -0.16302594981E+02  0.16896432843E+03  0.00000000000E+00 0.  1.
          3    1    6    6  503    0 -0.21171048190E+03  0.57169591584E+03  0.66696553119E+03  0.90360420989E+03  0.00000000000E+00 0. -1.
         -1    1    5    5    0  502  0.79780403962E+01  0.95417190070E+02 -0.82384961274E+02  0.12631457213E+03  0.00000000000E+00 0. -1.
         -3    1    6    6    0  503 -0.26363302908E+03  0.46325355083E+03  0.58560750285E+03  0.79186007209E+03  0.00000000000E+00 0.  1.
<mgrwt>
<rscale>  0 0.31601212E+04</rscale>
<asrwt>0</asrwt>
<pdfrwt beam="1">  1        2 0.34232332E+00 0.31601212E+04</pdfrwt>
<pdfrwt beam="2">  1       -2 0.17261729E+00 0.31601212E+04</pdfrwt>
<totfact> 0.86236172E-01</totfact>
</mgrwt>
</event>
<event>
12    1  0.4403484E-008  0.1762398E+04  0.7818608E-02  0.8726555E-01
         -2   -1    0    0    0  501 -0.00000000000E+00  0.00000000000E+00  0.58845324204E+03  0.58845324204E+03  0.00000000000E+00 0.  1.
          2   -1    0    0  501    0  0.00000000000E+00 -0.00000000000E+00 -0.13195814009E+04  0.13195814009E+04  0.00000000000E+00 0. -1.
         23    2    1    2    0    0 -0.76601159147E+02  0.58181256103E+02  0.42164045299E+03  0.44155377399E+03  0.89085731661E+02 0.  0.
        254    2    1    2    0    0  0.76601159147E+02 -0.58181256103E+02 -0.11527686118E+04  0.14664808689E+04  0.90135335489E+03 0.  0.
         23    2    4    4    0    0  0.33657927214E+03 -0.17976627882E+03 -0.15146033577E+03  0.42084319000E+03  0.92559363754E+02 0.  0.
         23    2    4    4    0    0 -0.25997811300E+03  0.12158502272E+03 -0.10013082761E+04  0.10456376789E+04  0.91478712825E+02 0.  0.
         13    1    3    3    0    0 -0.85016291846E+02  0.61714851465E+02  0.27119831497E+03  0.29083503711E+03  0.00000000000E+00 0.  1.
        -13    1    3    3    0    0  0.84151326981E+01 -0.35335953622E+01  0.15044213801E+03  0.15071873687E+03  0.00000000000E+00 0. -1.
          1    1    5    5  502    0  0.23658138831E+02 -0.78865377984E+01 -0.39440278819E+02  0.46663053958E+02  0.00000000000E+00 0. -1.
          3    1    6    6  503    0 -0.17903223582E+03  0.10344982250E+03 -0.56811189855E+03  0.60457053891E+03  0.00000000000E+00 0. -1.
         -1    1    5    5    0  502  0.31292113331E+03 -0.17187974102E+03 -0.11202005695E+03  0.37418013604E+03  0.00000000000E+00 0.  1.
         -3    1    6    6    0  503 -0.80945877173E+02  0.18135200214E+02 -0.43319637751E+03  0.44106714002E+03  0.00000000000E+00 0.  1.
<mgrwt>
<rscale>  0 0.17623983E+04</rscale>
<asrwt>0</asrwt>
<pdfrwt beam="1">  1        2 0.20301252E+00 0.17623983E+04</pdfrwt>
<pdfrwt beam="2">  1       -2 0.90531268E-01 0.17623983E+04</pdfrwt>
<totfact> 0.15897919E+01</totfact>
</mgrwt>
</event>
<event>
12    1  0.4403484E-008  0.2005852E+04  0.7818608E-02  0.8603890E-01
         -1   -1    0    0    0  501 -0.00000000000E+00  0.00000000000E+00  0.74939707353E+03  0.74939707353E+03  0.00000000000E+00 0.  1.
          1   -1    0    0  501    0  0.00000000000E+00 -0.00000000000E+00 -0.13422265670E+04  0.13422265670E+04  0.00000000000E+00 0. -1.
         23    2    1    2    0    0 -0.20590742093E+03 -0.91452956118E+02 -0.10405448265E+04  0.10686134238E+04  0.91867319502E+02 0.  0.
        254    2    1    2    0    0  0.20590742093E+03  0.91452956118E+02  0.44771533305E+03  0.10230102167E+04  0.89181801667E+03 0.  0.
         23    2    4    4    0    0 -0.19957577388E+03 -0.28542023935E+03  0.15497760715E+03  0.39003656490E+03  0.82554592174E+02 0.  0.
         23    2    4    4    0    0  0.40548319481E+03  0.37687319546E+03  0.29273772590E+03  0.63297365181E+03  0.92250967390E+02 0.  0.
         13    1    3    3    0    0 -0.17768310222E+03 -0.10034256462E+03 -0.98243099001E+03  0.10033995043E+04  0.00000000000E+00 0. -1.
        -13    1    3    3    0    0 -0.28224318707E+02  0.88896085046E+01 -0.58113836532E+02  0.65213919544E+02  0.00000000000E+00 0.  1.
          4    1    5    5  502    0 -0.10754127545E+03 -0.12911636186E+03  0.32443192207E+02  0.17113947979E+03  0.00000000000E+00 0. -1.
          4    1    6    6  503    0  0.13906476745E+03  0.14693866510E+03  0.15579474326E+03  0.25534678944E+03  0.00000000000E+00 0. -1.
         -4    1    5    5    0  502 -0.92034498437E+02 -0.15630387749E+03  0.12253441494E+03  0.21889708510E+03  0.00000000000E+00 0.  1.
         -4    1    6    6    0  503  0.26641842736E+03  0.22993453036E+03  0.13694298264E+03  0.37762686237E+03  0.00000000000E+00 0.  1.
<mgrwt>
<rscale>  0 0.20058521E+04</rscale>
<asrwt>0</asrwt>
<pdfrwt beam="1">  1        1 0.20649639E+00 0.20058521E+04</pdfrwt>
<pdfrwt beam="2">  1       -1 0.11529186E+00 0.20058521E+04</pdfrwt>
<totfact> 0.53389652E+00</totfact>
</mgrwt>
</event>
<event>
12    1  0.4403484E-008  0.3168391E+04  0.7818608E-02  0.8197215E-01
          2   -1    0    0  501    0  0.00000000000E+00  0.00000000000E+00  0.19096480148E+04  0.19096480148E+04  0.00000000000E+00 0. -1.
         -2   -1    0    0    0  501 -0.00000000000E+00 -0.00000000000E+00 -0.13142080483E+04  0.13142080483E+04  0.00000000000E+00 0.  1.
         23    2    1    2    0    0 -0.63209233486E+02 -0.75986375485E+03  0.15323788848E+04  0.17139270421E+04  0.89289000753E+02 0.  0.
        254    2    1    2    0    0  0.63209233486E+02  0.75986375485E+03 -0.93693891839E+03  0.15099290210E+04  0.90589335938E+03 0.  0.
         23    2    4    4    0    0  0.23892080719E+03 -0.86019621686E+02 -0.61661102111E+02  0.27682935137E+03  0.91377627692E+02 0.  0.
         23    2    4    4    0    0 -0.17571157371E+03  0.84588337654E+03 -0.87527781628E+03  0.12330996696E+04  0.89611917530E+02 0.  0.
         11    1    3    3    0    0 -0.44668502985E+02 -0.73168244942E+03  0.14459819724E+04  0.16211780736E+04  0.00000000000E+00 0. -1.
        -11    1    3    3    0    0 -0.18540730501E+02 -0.28181305437E+02  0.86396912425E+02  0.92748968405E+02  0.00000000000E+00 0.  1.
          4    1    5    5  502    0  0.24617564000E+03 -0.89347551852E+02 -0.60118095955E+02  0.26869986269E+03  0.00000000000E+00 0. -1.
          1    1    6    6  503    0 -0.95983080230E+02  0.42559544051E+03 -0.37917079702E+03  0.57802657723E+03  0.00000000000E+00 0. -1.
         -4    1    5    5    0  502 -0.72548328032E+01  0.33279301662E+01 -0.15430061555E+01  0.81294886795E+01  0.00000000000E+00 0.  1.
         -1    1    6    6    0  503 -0.79728493477E+02  0.42028793603E+03 -0.49610701926E+03  0.65507309241E+03  0.00000000000E+00 0.  1.
<mgrwt>
<rscale>  0 0.31683906E+04</rscale>
<asrwt>0</asrwt>
<pdfrwt beam="1">  1        2 0.29379200E+00 0.31683906E+04</pdfrwt>
<pdfrwt beam="2">  1       -2 0.20218585E+00 0.31683906E+04</pdfrwt>
<totfact> 0.81492282E-01</totfact>
</mgrwt>
</event>
<event>
12    1  0.4403484E-008  0.2263537E+04  0.7818608E-02  0.8492438E-01
          2   -1    0    0  501    0  0.00000000000E+00  0.00000000000E+00  0.11437445319E+04  0.11437445319E+04  0.00000000000E+00 0. -1.
         -2   -1    0    0    0  501 -0.00000000000E+00 -0.00000000000E+00 -0.11199174784E+04  0.11199174784E+04  0.00000000000E+00 0.  1.
         23    2    1    2    0    0  0.32992692117E+03 -0.56488190649E+03  0.69912591933E+03  0.96175786399E+03  0.90872417610E+02 0.  0.
        254    2    1    2    0    0 -0.32992692117E+03  0.56488190649E+03 -0.67529886584E+03  0.13019041463E+04  0.90054567144E+03 0.  0.
         23    2    4    4    0    0 -0.11389150736E+03  0.29573736445E+03  0.17947925933E+03  0.37571075073E+03  0.92270794401E+02 0.  0.
         23    2    4    4    0    0 -0.21603541380E+03  0.26914454204E+03 -0.85477812517E+03  0.92619339557E+03  0.89880354909E+02 0.  0.
         11    1    3    3    0    0  0.16417239491E+03 -0.27897591113E+03  0.27986474363E+03  0.42790700972E+03  0.00000000000E+00 0.  1.
        -11    1    3    3    0    0  0.16575452625E+03 -0.28590599536E+03  0.41926117569E+03  0.53385085427E+03  0.00000000000E+00 0. -1.
          1    1    5    5  502    0 -0.10086678537E+03  0.25865276226E+03  0.11564859254E+03  0.30074899297E+03  0.00000000000E+00 0. -1.
          3    1    6    6  503    0 -0.12400949491E+03  0.19963683646E+03 -0.64987542935E+03  0.69106533336E+03  0.00000000000E+00 0. -1.
         -1    1    5    5    0  502 -0.13024721995E+02  0.37084602192E+02  0.63830666798E+02  0.74961757761E+02  0.00000000000E+00 0.  1.
         -3    1    6    6    0  503 -0.92025918897E+02  0.69507705581E+02 -0.20490269582E+03  0.23512806221E+03  0.00000000000E+00 0.  1.
<mgrwt>
<rscale>  0 0.22635366E+04</rscale>
<asrwt>0</asrwt>
<pdfrwt beam="1">  1        2 0.17596070E+00 0.22635366E+04</pdfrwt>
<pdfrwt beam="2">  1       -2 0.17229500E+00 0.22635366E+04</pdfrwt>
<totfact> 0.38232146E+00</totfact>
</mgrwt>
</event>
<event>
12    1  0.4403484E-008  0.1894374E+04  0.7818608E-02  0.8657662E-01
         -2   -1    0    0    0  501 -0.00000000000E+00  0.00000000000E+00  0.73189833970E+03  0.73189833970E+03  0.00000000000E+00 0.  1.
          2   -1    0    0  501    0  0.00000000000E+00 -0.00000000000E+00 -0.12258031557E+04  0.12258031557E+04  0.00000000000E+00 0. -1.
         23    2    1    2    0    0  0.46405920865E+03 -0.12116646211E+02 -0.79764705923E+03  0.92730098841E+03  0.90269207120E+02 0.  0.
        254    2    1    2    0    0 -0.46405920865E+03  0.12116646211E+02  0.30374224327E+03  0.10304005070E+04  0.86831336058E+03 0.  0.
         23    2    4    4    0    0  0.57429066780E+02  0.30948572976E+03 -0.45045023931E+02  0.33016621933E+03  0.88888489524E+02 0.  0.
         23    2    4    4    0    0 -0.52148827543E+03 -0.29736908355E+03  0.34878726720E+03  0.70023428763E+03  0.91088454585E+02 0.  0.
         11    1    3    3    0    0  0.42650395512E+03 -0.36569118946E+02 -0.72504625579E+03  0.84198277728E+03  0.00000000000E+00 0. -1.
        -11    1    3    3    0    0  0.37555253531E+02  0.24452472735E+02 -0.72600803436E+02  0.85318211129E+02  0.00000000000E+00 0.  1.
          2    1    5    5  502    0  0.65134718219E+02  0.25009196139E+03 -0.65974542819E+02  0.26672300420E+03  0.00000000000E+00 0. -1.
          4    1    6    6  503    0 -0.17794876336E+03 -0.59374827579E+02  0.13242563551E+03  0.22962508894E+03  0.00000000000E+00 0. -1.
         -2    1    5    5    0  502 -0.77056514390E+01  0.59393768363E+02  0.20929518887E+02  0.63443215125E+02  0.00000000000E+00 0.  1.
         -4    1    6    6    0  503 -0.34353951207E+03 -0.23799425597E+03  0.21636163169E+03  0.47060919869E+03  0.00000000000E+00 0.  1.
<mgrwt>
<rscale>  0 0.18943741E+04</rscale>
<asrwt>0</asrwt>
<pdfrwt beam="1">  1        2 0.18858510E+00 0.18943741E+04</pdfrwt>
<pdfrwt beam="2">  1       -2 0.11259975E+00 0.18943741E+04</pdfrwt>
<totfact> 0.10635400E+01</totfact>
</mgrwt>
</event>
<event>
12    1  0.4403484E-008  0.1717663E+04  0.7818608E-02  0.8751354E-01
         -1   -1    0    0    0  501 -0.00000000000E+00  0.00000000000E+00  0.13308521746E+04  0.13308521746E+04  0.00000000000E+00 0.  1.
          1   -1    0    0  501    0  0.00000000000E+00 -0.00000000000E+00 -0.55422532024E+03  0.55422532024E+03  0.00000000000E+00 0. -1.
         23    2    1    2    0    0  0.36063528332E+03 -0.49377404486E+03  0.34413798455E+03  0.70745145240E+03  0.90476461812E+02 0.  0.
        254    2    1    2    0    0 -0.36063528332E+03  0.49377404486E+03  0.43248886979E+03  0.11776260424E+04  0.90878262437E+03 0.  0.
         23    2    4    4    0    0 -0.62095788515E+03  0.23862195077E+03  0.43724708059E+03  0.80161769171E+03  0.94216684637E+02 0.  0.
         23    2    4    4    0    0  0.26032260183E+03  0.25515209409E+03 -0.47582107967E+01  0.37600835072E+03  0.92136806438E+02 0.  0.
         11    1    3    3    0    0  0.81007926336E+02 -0.61158781673E+02  0.38985178037E+02  0.10873143433E+03  0.00000000000E+00 0.  1.
        -11    1    3    3    0    0  0.27962735699E+03 -0.43261526319E+03  0.30515280652E+03  0.59872001807E+03  0.00000000000E+00 0. -1.
          2    1    5    5  502    0 -0.43711800649E+02 -0.71310225758E+01  0.33755978972E+02  0.55686974377E+02  0.00000000000E+00 0. -1.
          3    1    6    6  503    0  0.20038971320E+02  0.28128929110E+02  0.27111171276E+02  0.43906863158E+02  0.00000000000E+00 0. -1.
         -2    1    5    5    0  502 -0.57724608450E+03  0.24575297335E+03  0.40349110161E+03  0.74593071733E+03  0.00000000000E+00 0.  1.
         -3    1    6    6    0  503  0.24028363051E+03  0.22702316497E+03 -0.31869382072E+02  0.33210148756E+03  0.00000000000E+00 0.  1.
<mgrwt>
<rscale>  0 0.17176635E+04</rscale>
<asrwt>0</asrwt>
<pdfrwt beam="1">  1        1 0.85265434E-01 0.17176635E+04</pdfrwt>
<pdfrwt beam="2">  1       -1 0.20474649E+00 0.17176635E+04</pdfrwt>
<totfact> 0.50894935E+00</totfact>
</mgrwt>
</event>
<event>
12    1  0.4403484E-008  0.1769564E+04  0.7818608E-02  0.8722655E-01
          1   -1    0    0  501    0  0.00000000000E+00  0.00000000000E+00  0.22428665555E+04  0.22428665555E+04  0.00000000000E+00 0. -1.
         -1   -1    0    0    0  501 -0.00000000000E+00 -0.00000000000E+00 -0.34903510908E+03  0.34903510908E+03  0.00000000000E+00 0.  1.
         23    2    1    2    0    0 -0.20777270495E+02 -0.19319187835E+03 -0.20871308311E+03  0.29911313391E+03  0.90292408250E+02 0.  0.
        254    2    1    2    0    0  0.20777270495E+02  0.19319187835E+03  0.21025445295E+04  0.22927885306E+04  0.89354963537E+03 0.  0.
         23    2    4    4    0    0 -0.20423946565E+02 -0.17247124387E+03  0.17919963818E+04  0.18026900787E+04  0.90978129511E+02 0.  0.
         23    2    4    4    0    0  0.41201217060E+02  0.36566312222E+03  0.31054814771E+03  0.49009845190E+03  0.91374401649E+02 0.  0.
         13    1    3    3    0    0 -0.32961179335E+02 -0.61809036780E+02 -0.28186233777E+02  0.75506689408E+02  0.00000000000E+00 0. -1.
        -13    1    3    3    0    0  0.12183908840E+02 -0.13138284157E+03 -0.18052684933E+03  0.22360644450E+03  0.00000000000E+00 0.  1.
          1    1    5    5  502    0 -0.17340471427E+02 -0.16454485278E+02  0.60606476342E+03  0.60653601665E+03  0.00000000000E+00 0. -1.
          3    1    6    6  503    0  0.52772719109E+02  0.31893742050E+03  0.29954653458E+03  0.44072005225E+03  0.00000000000E+00 0. -1.
         -1    1    5    5    0  502 -0.30834751381E+01 -0.15601675859E+03  0.11859316184E+04  0.11961540621E+04  0.00000000000E+00 0.  1.
         -3    1    6    6    0  503 -0.11571502048E+02  0.46725701719E+02  0.11001613124E+02  0.49378399651E+02  0.00000000000E+00 0.  1.
<mgrwt>
<rscale>  0 0.17695640E+04</rscale>
<asrwt>0</asrwt>
<pdfrwt beam="1">  1        1 0.34505638E+00 0.17695640E+04</pdfrwt>
<pdfrwt beam="2">  1       -1 0.53697711E-01 0.17695640E+04</pdfrwt>
<totfact> 0.67469969E+00</totfact>
</mgrwt>
</event>
<event>
12    1  0.4403484E-008  0.2365677E+04  0.7818608E-02  0.8452466E-01
         -2   -1    0    0    0  501 -0.00000000000E+00  0.00000000000E+00  0.24729946235E+04  0.24729946235E+04  0.00000000000E+00 0.  1.
          2   -1    0    0  501    0  0.00000000000E+00 -0.00000000000E+00 -0.56575424876E+03  0.56575424876E+03  0.00000000000E+00 0. -1.
         23    2    1    2    0    0 -0.85528036091E+03  0.50868620734E+03  0.55569316098E+03  0.11433893136E+04  0.90983955013E+02 0.  0.
        254    2    1    2    0    0  0.85528036091E+03 -0.50868620734E+03  0.13515472138E+04  0.18953595586E+04  0.88059175115E+03 0.  0.
         23    2    4    4    0    0  0.57387244457E+03 -0.47502242927E+03  0.14052012482E+04  0.15929537799E+04  0.89080334380E+02 0.  0.
         23    2    4    4    0    0  0.28140791634E+03 -0.33663778076E+02 -0.53654034472E+02  0.30240577872E+03  0.90812082105E+02 0.  0.
         13    1    3    3    0    0 -0.31456303305E+03  0.15126903294E+03  0.15985009948E+03  0.38390659853E+03  0.00000000000E+00 0.  1.
        -13    1    3    3    0    0 -0.54071732785E+03  0.35741717441E+03  0.39584306150E+03  0.75948271510E+03  0.00000000000E+00 0. -1.
          4    1    5    5  502    0  0.23208773386E+03 -0.15605860478E+03  0.45742421569E+03  0.53614915596E+03  0.00000000000E+00 0. -1.
          1    1    6    6  503    0  0.22868377920E+03 -0.19420803892E+02 -0.78289274071E+02  0.24249257499E+03  0.00000000000E+00 0. -1.
         -4    1    5    5    0  502  0.34178471071E+03 -0.31896382449E+03  0.94777703255E+03  0.10568046240E+04  0.00000000000E+00 0.  1.
         -1    1    6    6    0  503  0.52724137136E+02 -0.14242974184E+02  0.24635239599E+02  0.59913203723E+02  0.00000000000E+00 0.  1.
<mgrwt>
<rscale>  0 0.23656773E+04</rscale>
<asrwt>0</asrwt>
<pdfrwt beam="1">  1        2 0.87039117E-01 0.23656773E+04</pdfrwt>
<pdfrwt beam="2">  1       -2 0.38046071E+00 0.23656773E+04</pdfrwt>
<totfact> 0.47777396E-01</totfact>
</mgrwt>
</event>
<event>
12    1  0.4403484E-008  0.1869192E+04  0.7818608E-02  0.8670345E-01
         -1   -1    0    0    0  501 -0.00000000000E+00  0.00000000000E+00  0.18507626429E+04  0.18507626429E+04  0.00000000000E+00 0.  1.
          1   -1    0    0  501    0  0.00000000000E+00 -0.00000000000E+00 -0.47195127128E+03  0.47195127128E+03  0.00000000000E+00 0. -1.
         23    2    1    2    0    0 -0.54292211974E+02 -0.23415152666E+03  0.13956761979E+04  0.14191758990E+04  0.91507383549E+02 0.  0.
        254    2    1    2    0    0  0.54292211974E+02  0.23415152666E+03 -0.16864826229E+02  0.90353801522E+03  0.87081682394E+03 0.  0.
         23    2    4    4    0    0  0.42847025978E+03  0.53507170871E+02 -0.13597831370E+03  0.46169484200E+03  0.90676592806E+02 0.  0.
         23    2    4    4    0    0 -0.37417804781E+03  0.18064435579E+03  0.11911348747E+03  0.44184317322E+03  0.91628445806E+02 0.  0.
         11    1    3    3    0    0  0.19887913983E+02 -0.15221072665E+02  0.10350480828E+03  0.10649157484E+03  0.00000000000E+00 0. -1.
        -11    1    3    3    0    0 -0.74180125957E+02 -0.21893045399E+03  0.12921713896E+04  0.13126843242E+04  0.00000000000E+00 0.  1.
          2    1    5    5  502    0  0.85519029195E+02  0.11300647552E+02 -0.67269996137E+02  0.10939132219E+03  0.00000000000E+00 0. -1.
          3    1    6    6  503    0 -0.13295655614E+03  0.11048391289E+03  0.66207510789E+02  0.18511503265E+03  0.00000000000E+00 0. -1.
         -2    1    5    5    0  502  0.34295123059E+03  0.42206523319E+02 -0.68708317559E+02  0.35230351982E+03  0.00000000000E+00 0.  1.
         -3    1    6    6    0  503 -0.24122149167E+03  0.70160442899E+02  0.52905976677E+02  0.25672814057E+03  0.00000000000E+00 0.  1.
<mgrwt>
<rscale>  0 0.18691921E+04</rscale>
<asrwt>0</asrwt>
<pdfrwt beam="1">  1        1 0.72607889E-01 0.18691921E+04</pdfrwt>
<pdfrwt beam="2">  1       -1 0.28473271E+00 0.18691921E+04</pdfrwt>
<totfact> 0.18681365E+00</totfact>
</mgrwt>
</event>
<event>
12    1  0.4403484E-008  0.1210457E+04  0.7818608E-02  0.9103752E-01
          2   -1    0    0  501    0  0.00000000000E+00  0.00000000000E+00  0.18705739003E+04  0.18705739003E+04  0.00000000000E+00 0. -1.
         -2   -1    0    0    0  501 -0.00000000000E+00 -0.00000000000E+00 -0.19582318968E+03  0.19582318968E+03  0.00000000000E+00 0.  1.
         23    2    1    2    0    0  0.22088624849E+03  0.11911379262E+03  0.49024291121E+03  0.55887268810E+03  0.94982836077E+02 0.  0.
        254    2    1    2    0    0 -0.22088624849E+03 -0.11911379262E+03  0.11845077994E+04  0.15075244019E+04  0.89810481852E+03 0.  0.
         23    2    4    4    0    0  0.19908513810E+02 -0.46522450145E+03  0.79530642033E+03  0.92614616378E+03  0.91674580920E+02 0.  0.
         23    2    4    4    0    0 -0.24079476230E+03  0.34611070882E+03  0.38920137908E+03  0.58137823811E+03  0.93531823220E+02 0.  0.
         11    1    3    3    0    0  0.71413376896E+02 -0.18551844159E+01  0.90609458666E+02  0.11538364749E+03  0.00000000000E+00 0.  1.
        -11    1    3    3    0    0  0.14947287160E+03  0.12096897704E+03  0.39963345254E+03  0.44348904061E+03  0.00000000000E+00 0. -1.
          2    1    6    6  502    0 -0.13962183143E+03  0.27268199045E+03  0.26322998851E+03  0.40390562088E+03  0.00000000000E+00 0. -1.
          2    1    5    5  503    0  0.49348344782E+02 -0.29514970895E+03  0.45528517447E+03  0.54482400820E+03  0.00000000000E+00 0.  1.
         -2    1    5    5    0  503 -0.29439830973E+02 -0.17007479250E+03  0.34002124586E+03  0.38132215557E+03  0.00000000000E+00 0. -1.
         -2    1    6    6    0  502 -0.10117293088E+03  0.73428718370E+02  0.12597139057E+03  0.17747261723E+03  0.00000000000E+00 0.  1.
<mgrwt>
<rscale>  0 0.12104573E+04</rscale>
<asrwt>0</asrwt>
<pdfrwt beam="1">  1        2 0.28778059E+00 0.12104573E+04</pdfrwt>
<pdfrwt beam="2">  1       -2 0.30126646E-01 0.12104573E+04</pdfrwt>
<totfact> 0.79143063E+01</totfact>
</mgrwt>
</event>
<event>
12    1  0.4403484E-008  0.2052944E+04  0.7818608E-02  0.8582260E-01
         -2   -1    0    0    0  501 -0.00000000000E+00  0.00000000000E+00  0.26490711264E+03  0.26490711264E+03  0.00000000000E+00 0.  1.
          2   -1    0    0  501    0  0.00000000000E+00 -0.00000000000E+00 -0.39774114556E+04  0.39774114556E+04  0.00000000000E+00 0. -1.
         23    2    1    2    0    0  0.27078267211E+03  0.73650640446E+03 -0.93136933750E+03  0.12214258200E+04  0.93098075345E+02 0.  0.
        254    2    1    2    0    0 -0.27078267211E+03 -0.73650640446E+03 -0.27811350054E+04  0.30208927482E+04  0.88052037931E+03 0.  0.
         23    2    4    4    0    0 -0.36219187303E+03 -0.10450919477E+03 -0.18355214629E+04  0.18761436778E+04  0.93117852989E+02 0.  0.
         23    2    4    4    0    0  0.91409200917E+02 -0.63199720970E+03 -0.94561354256E+03  0.11447490704E+04  0.92137653308E+02 0.  0.
         13    1    3    3    0    0  0.17867132425E+03  0.40845853841E+03 -0.46923179575E+03  0.64725597552E+03  0.00000000000E+00 0. -1.
        -13    1    3    3    0    0  0.92111347858E+02  0.32804786605E+03 -0.46213754176E+03  0.57416984449E+03  0.00000000000E+00 0.  1.
          2    1    5    5  502    0 -0.11955310004E+03 -0.32454363023E+02 -0.40929021043E+03  0.42762683003E+03  0.00000000000E+00 0.  1.
          4    1    6    6  503    0  0.37958970855E+02 -0.47776232395E+03 -0.65796630181E+03  0.81401313010E+03  0.00000000000E+00 0. -1.
         -2    1    5    5    0  502 -0.24263877298E+03 -0.72054831744E+02 -0.14262312524E+04  0.14485168478E+04  0.00000000000E+00 0. -1.
         -4    1    6    6    0  503  0.53450230062E+02 -0.15423488575E+03 -0.28764724075E+03  0.33073594027E+03  0.00000000000E+00 0.  1.
<mgrwt>
<rscale>  0 0.20529438E+04</rscale>
<asrwt>0</asrwt>
<pdfrwt beam="1">  1        2 0.61190939E+00 0.20529438E+04</pdfrwt>
<pdfrwt beam="2">  1       -2 0.40754945E-01 0.20529438E+04</pdfrwt>
<totfact> 0.18994320E+00</totfact>
</mgrwt>
</event>
<event>
12    1  0.4403484E-008  0.2436858E+04  0.7818608E-02  0.8425832E-01
         -2   -1    0    0    0  501 -0.00000000000E+00  0.00000000000E+00  0.60675066539E+03  0.60675066539E+03  0.00000000000E+00 0.  1.
          2   -1    0    0  501    0  0.00000000000E+00 -0.00000000000E+00 -0.24467538964E+04  0.24467538964E+04  0.00000000000E+00 0. -1.
         23    2    1    2    0    0  0.85482703728E+03 -0.10219620427E+03 -0.47750281819E+02  0.86714471738E+03  0.92122438231E+02 0.  0.
        254    2    1    2    0    0 -0.85482703728E+03  0.10219620427E+03 -0.17922529492E+04  0.21863598445E+04  0.90929940482E+03 0.  0.
         23    2    4    4    0    0 -0.89066797766E+03 -0.48485364591E+02 -0.17932298711E+04  0.20046683852E+04  0.85916743626E+02 0.  0.
         23    2    4    4    0    0  0.35840940373E+02  0.15068156886E+03  0.97692189260E+00  0.18169145929E+03  0.94980649611E+02 0.  0.
         11    1    3    3    0    0  0.29551164332E+02  0.12282510172E+02 -0.81629852404E+01  0.33026742158E+02  0.00000000000E+00 0. -1.
        -11    1    3    3    0    0  0.82527587295E+03 -0.11447871444E+03 -0.39587296579E+02  0.83411797522E+03  0.00000000000E+00 0.  1.
          1    1    6    6  502    0  0.60547824654E+02  0.12344716754E+03  0.22136025468E+02  0.13926681538E+03  0.00000000000E+00 0. -1.
          1    1    5    5  503    0 -0.65402115817E+03 -0.48871998321E+02 -0.12347667899E+04  0.13981348909E+04  0.00000000000E+00 0. -1.
         -1    1    5    5    0  503 -0.23664681948E+03  0.38663373019E+00 -0.55846308121E+03  0.60653349432E+03  0.00000000000E+00 0.  1.
         -1    1    6    6    0  502 -0.24706884281E+02  0.27234401322E+02 -0.21159103575E+02  0.42424643904E+02  0.00000000000E+00 0.  1.
<mgrwt>
<rscale>  0 0.24368583E+04</rscale>
<asrwt>0</asrwt>
<pdfrwt beam="1">  1        2 0.37642368E+00 0.24368583E+04</pdfrwt>
<pdfrwt beam="2">  1       -2 0.93346256E-01 0.24368583E+04</pdfrwt>
<totfact> 0.32525656E+00</totfact>
</mgrwt>
</event>
<event>
12    1  0.4403484E-008  0.1518134E+04  0.7818608E-02  0.8872483E-01
          2   -1    0    0  501    0  0.00000000000E+00  0.00000000000E+00  0.32032547547E+03  0.32032547547E+03  0.00000000000E+00 0.  1.
         -2   -1    0    0    0  501 -0.00000000000E+00 -0.00000000000E+00 -0.17987418962E+04  0.17987418962E+04  0.00000000000E+00 0. -1.
         23    2    1    2    0    0  0.19332898891E+03  0.89457665019E+02  0.10449029602E+03  0.26238440542E+03  0.11202045556E+03 0.  0.
        254    2    1    2    0    0 -0.19332898891E+03 -0.89457665019E+02 -0.15829067168E+04  0.18566829663E+04  0.94673079142E+03 0.  0.
         23    2    4    4    0    0  0.26768193389E+03  0.60688273689E+02 -0.11923177869E+04  0.12268438482E+04  0.90484466357E+02 0.  0.
         23    2    4    4    0    0 -0.46101092280E+03 -0.15014593871E+03 -0.39058892991E+03  0.62983911808E+03  0.95198364727E+02 0.  0.
         11    1    3    3    0    0  0.83452114027E+02  0.25537715839E+02  0.10334158699E+03  0.13526238896E+03  0.00000000000E+00 0.  1.
        -11    1    3    3    0    0  0.10987687488E+03  0.63919949180E+02  0.11487090333E+01  0.12712201646E+03  0.00000000000E+00 0. -1.
          1    1    5    5  502    0  0.20793178099E+03  0.45074339235E+02 -0.72851437251E+03  0.75894697612E+03  0.00000000000E+00 0. -1.
          3    1    6    6  503    0 -0.34052542132E+03 -0.13486771491E+03 -0.33466172174E+03  0.49613035696E+03  0.00000000000E+00 0. -1.
         -1    1    5    5    0  502  0.59750152900E+02  0.15613934454E+02 -0.46380341436E+03  0.46789687207E+03  0.00000000000E+00 0.  1.
         -3    1    6    6    0  503 -0.12048550147E+03 -0.15278223795E+02 -0.55927208164E+02  0.13370876112E+03  0.00000000000E+00 0.  1.
<mgrwt>
<rscale>  0 0.15181342E+04</rscale>
<asrwt>0</asrwt>
<pdfrwt beam="1">  1        2 0.49280842E-01 0.15181342E+04</pdfrwt>
<pdfrwt beam="2">  1       -2 0.27672952E+00 0.15181342E+04</pdfrwt>
<totfact> 0.43500320E+00</totfact>
</mgrwt>
</event>
<event>
12    1  0.4403484E-008  0.2467620E+04  0.7818608E-02  0.8414613E-01
          2   -1    0    0  501    0  0.00000000000E+00  0.00000000000E+00  0.16160362261E+04  0.16160362261E+04  0.00000000000E+00 0.  1.
         -2   -1    0    0    0  501 -0.00000000000E+00 -0.00000000000E+00 -0.94198834612E+03  0.94198834612E+03  0.00000000000E+00 0. -1.
         23    2    1    2    0    0  0.14324835749E+03  0.66999056375E+02  0.13825631394E+04  0.13946270541E+04  0.92167348563E+02 0.  0.
        254    2    1    2    0    0 -0.14324835749E+03 -0.66999056375E+02 -0.70851525937E+03  0.11633975182E+04  0.90911547509E+03 0.  0.
         23    2    4    4    0    0  0.81932191398E+02 -0.22659871039E+03 -0.81416521263E+03  0.85393813835E+03  0.91024673219E+02 0.  0.
         23    2    4    4    0    0 -0.22518054889E+03  0.15959965402E+03  0.10564995326E+03  0.30945937982E+03  0.91787068657E+02 0.  0.
         11    1    3    3    0    0  0.12394360369E+03  0.14000082089E+02  0.85359770207E+03  0.86266277083E+03  0.00000000000E+00 0.  1.
        -11    1    3    3    0    0  0.19304753802E+02  0.52998974286E+02  0.52896543730E+03  0.53196428325E+03  0.00000000000E+00 0. -1.
          4    1    5    5  502    0  0.95454369648E+02 -0.18305372076E+03 -0.72458564177E+03  0.75342189617E+03  0.00000000000E+00 0. -1.
          3    1    6    6  503    0 -0.16814974695E+03  0.14191344973E+03  0.11619155990E+03  0.24882572858E+03  0.00000000000E+00 0. -1.
         -4    1    5    5    0  502 -0.13522178250E+02 -0.43544989633E+02 -0.89579570862E+02  0.10051624218E+03  0.00000000000E+00 0.  1.
         -3    1    6    6    0  503 -0.57030801937E+02  0.17686204289E+02 -0.10541606633E+02  0.60633651235E+02  0.00000000000E+00 0.  1.
<mgrwt>
<rscale>  0 0.24676201E+04</rscale>
<asrwt>0</asrwt>
<pdfrwt beam="1">  1        2 0.24862096E+00 0.24676201E+04</pdfrwt>
<pdfrwt beam="2">  1       -2 0.14492128E+00 0.24676201E+04</pdfrwt>
<totfact> 0.32060841E+00</totfact>
</mgrwt>
</event>
<event>
12    1  0.4403484E-008  0.1500731E+04  0.7818608E-02  0.8883967E-01
         -1   -1    0    0    0  501 -0.00000000000E+00  0.00000000000E+00  0.90551815101E+03  0.90551815101E+03  0.00000000000E+00 0.  1.
          1   -1    0    0  501    0  0.00000000000E+00 -0.00000000000E+00 -0.62179700006E+03  0.62179700006E+03  0.00000000000E+00 0. -1.
         23    2    1    2    0    0 -0.29058371530E+03 -0.38360699440E+03  0.22942110854E+02  0.49020428468E+03  0.90447103472E+02 0.  0.
        254    2    1    2    0    0  0.29058371530E+03  0.38360699440E+03  0.26077904010E+03  0.10371108664E+04  0.88090863299E+03 0.  0.
         23    2    4    4    0    0  0.41893250367E+02  0.63215777114E+03  0.17964846496E+03  0.66485071665E+03  0.91511815817E+02 0.  0.
         23    2    4    4    0    0  0.24869046493E+03 -0.24855077674E+03  0.81130575135E+02  0.37226014974E+03  0.91493239613E+02 0.  0.
         11    1    3    3    0    0 -0.17162748905E+03 -0.19164556282E+03  0.52140799349E+02  0.26249319934E+03  0.00000000000E+00 0.  1.
        -11    1    3    3    0    0 -0.11895622625E+03 -0.19196143158E+03 -0.29198688495E+02  0.22771108534E+03  0.00000000000E+00 0. -1.
          2    1    5    5  502    0 -0.11455353909E+02  0.34306751283E+03  0.12816401276E+03  0.36640490944E+03  0.00000000000E+00 0.  1.
          3    1    6    6  503    0  0.59094491695E+02 -0.11953282921E+03  0.40510118919E+02  0.13936041742E+03  0.00000000000E+00 0. -1.
         -2    1    5    5    0  502  0.53348604276E+02  0.28909025830E+03  0.51484452206E+02  0.29844580721E+03  0.00000000000E+00 0. -1.
         -3    1    6    6    0  503  0.18959597323E+03 -0.12901794753E+03  0.40620456217E+02  0.23289973232E+03  0.00000000000E+00 0.  1.
<mgrwt>
<rscale>  0 0.15007311E+04</rscale>
<asrwt>0</asrwt>
<pdfrwt beam="1">  1        1 0.95661076E-01 0.15007311E+04</pdfrwt>
<pdfrwt beam="2">  1       -1 0.13931049E+00 0.15007311E+04</pdfrwt>
<totfact> 0.13356669E+01</totfact>
</mgrwt>
</event>
<event>
12    1  0.4403484E-008  0.1569316E+04  0.7818608E-02  0.8839623E-01
          1   -1    0    0  501    0  0.00000000000E+00  0.00000000000E+00  0.64912497923E+03  0.64912497923E+03  0.00000000000E+00 0. -1.
         -1   -1    0    0    0  501 -0.00000000000E+00 -0.00000000000E+00 -0.94848991597E+03  0.94848991597E+03  0.00000000000E+00 0.  1.
         23    2    1    2    0    0  0.25249430030E+03 -0.36165804949E+03  0.43815750651E+02  0.45294561983E+03  0.93220159177E+02 0.  0.
        254    2    1    2    0    0 -0.25249430030E+03  0.36165804949E+03 -0.34318068739E+03  0.11446692754E+04  0.99897189617E+03 0.  0.
         23    2    4    4    0    0 -0.27998058743E+03  0.56956933783E+03 -0.54372664491E+03  0.84064965905E+03  0.90856067146E+02 0.  0.
         23    2    4    4    0    0  0.27486287136E+02 -0.20791128834E+03  0.20054595752E+03  0.30401961632E+03  0.90700861250E+02 0.  0.
         13    1    3    3    0    0  0.17428748585E+03 -0.25559027511E+03 -0.12554437273E+02  0.30961287174E+03  0.00000000000E+00 0.  1.
        -13    1    3    3    0    0  0.78206814449E+02 -0.10606777438E+03  0.56370187925E+02  0.14333274809E+03  0.00000000000E+00 0. -1.
          2    1    5    5  502    0 -0.70070071922E+01  0.20679237476E+01  0.17502721452E+01  0.75125169550E+01  0.00000000000E+00 0. -1.
          3    1    6    6  503    0  0.36053086655E+02 -0.38321882418E+02  0.80095618785E+02  0.95831622537E+02  0.00000000000E+00 0. -1.
         -2    1    5    5    0  502 -0.27297358024E+03  0.56750141408E+03 -0.54547691705E+03  0.83313714209E+03  0.00000000000E+00 0.  1.
         -3    1    6    6    0  503 -0.85667995199E+01 -0.16958940592E+03  0.12045033873E+03  0.20818799378E+03  0.00000000000E+00 0.  1.
<mgrwt>
<rscale>  0 0.15693164E+04</rscale>
<asrwt>0</asrwt>
<pdfrwt beam="1">  1        1 0.99865381E-01 0.15693164E+04</pdfrwt>
<pdfrwt beam="2">  1       -1 0.14592153E+00 0.15693164E+04</pdfrwt>
<totfact> 0.11029875E+01</totfact>
</mgrwt>
</event>
<event>
12    1  0.4403484E-008  0.1254377E+04  0.7818608E-02  0.9066548E-01
          2   -1    0    0  501    0  0.00000000000E+00  0.00000000000E+00  0.15450064216E+04  0.15450064216E+04  0.00000000000E+00 0. -1.
         -2   -1    0    0    0  501 -0.00000000000E+00 -0.00000000000E+00 -0.25460432253E+03  0.25460432253E+03  0.00000000000E+00 0.  1.
         23    2    1    2    0    0 -0.12624118094E+03  0.35233487104E+02 -0.65774025004E+02  0.16928269902E+03  0.84570535318E+02 0.  0.
        254    2    1    2    0    0  0.12624118094E+03 -0.35233487104E+02  0.13561761240E+04  0.16303280451E+04  0.89530867346E+03 0.  0.
         23    2    4    4    0    0  0.38578294317E+03  0.12785478738E+03  0.26479785537E+03  0.49341174289E+03  0.90343333559E+02 0.  0.
         23    2    4    4    0    0 -0.25954176223E+03 -0.16308827448E+03  0.10913782687E+04  0.11369163022E+04  0.86674340149E+02 0.  0.
         13    1    3    3    0    0 -0.86583449373E+02  0.65112196561E+01  0.56436440691E+00  0.86829765599E+02  0.00000000000E+00 0. -1.
        -13    1    3    3    0    0 -0.39657731569E+02  0.28722267448E+02 -0.66338389411E+02  0.82452933423E+02  0.00000000000E+00 0.  1.
          2    1    5    5  502    0  0.25585858574E+03  0.11209011478E+03  0.21830871297E+03  0.35452292434E+03  0.00000000000E+00 0. -1.
          4    1    6    6  503    0 -0.93423993956E+02 -0.86210594572E+02  0.32489902072E+03  0.34888348044E+03  0.00000000000E+00 0. -1.
         -2    1    5    5    0  502  0.12992435743E+03  0.15764672594E+02  0.46489142402E+02  0.13888881855E+03  0.00000000000E+00 0.  1.
         -4    1    6    6    0  503 -0.16611776828E+03 -0.76877679907E+02  0.76647924794E+03  0.78803282173E+03  0.00000000000E+00 0.  1.
<mgrwt>
<rscale>  0 0.12543768E+04</rscale>
<asrwt>0</asrwt>
<pdfrwt beam="1">  1        2 0.23769329E+00 0.12543768E+04</pdfrwt>
<pdfrwt beam="2">  1       -2 0.39169896E-01 0.12543768E+04</pdfrwt>
<totfact> 0.72509678E+01</totfact>
</mgrwt>
</event>
<event>
12    1  0.4403484E-008  0.1423098E+04  0.7818608E-02  0.8937267E-01
         -1   -1    0    0    0  501 -0.00000000000E+00  0.00000000000E+00  0.12300406353E+04  0.12300406353E+04  0.00000000000E+00 0.  1.
          1   -1    0    0  501    0  0.00000000000E+00 -0.00000000000E+00 -0.41161409470E+03  0.41161409470E+03  0.00000000000E+00 0. -1.
         23    2    1    2    0    0  0.27299606316E+03 -0.11333420379E+03 -0.99903809981E+02  0.32497309136E+03  0.90858387669E+02 0.  0.
        254    2    1    2    0    0 -0.27299606316E+03  0.11333420379E+03  0.91833035058E+03  0.13166816386E+04  0.89607388784E+03 0.  0.
         23    2    4    4    0    0 -0.54576393148E+03 -0.35027057563E+02  0.33051990993E+03  0.64526418077E+03  0.89650925547E+02 0.  0.
         23    2    4    4    0    0  0.27276786832E+03  0.14836126135E+03  0.58781044065E+03  0.67141745787E+03  0.94164296490E+02 0.  0.
         11    1    3    3    0    0  0.65935909706E+02 -0.53320660622E+01 -0.57440839170E+02  0.87609503604E+02  0.00000000000E+00 0. -1.
        -11    1    3    3    0    0  0.20706015346E+03 -0.10800213773E+03 -0.42462970811E+02  0.23736358776E+03  0.00000000000E+00 0.  1.
          1    1    5    5  502    0 -0.40265992463E+02  0.16418862020E+02  0.10365939362E+02  0.44703264734E+02  0.00000000000E+00 0. -1.
          3    1    6    6  503    0  0.33165329538E+01  0.29960905137E+02  0.55994625703E+02  0.63592871732E+02  0.00000000000E+00 0. -1.
         -1    1    5    5    0  502 -0.50549793902E+03 -0.51445919583E+02  0.32015397057E+03  0.60056091603E+03  0.00000000000E+00 0.  1.
         -3    1    6    6    0  503  0.26945133537E+03  0.11840035621E+03  0.53181581495E+03  0.60782458614E+03  0.00000000000E+00 0.  1.
<mgrwt>
<rscale>  0 0.14230981E+04</rscale>
<asrwt>0</asrwt>
<pdfrwt beam="1">  1        1 0.63325246E-01 0.14230981E+04</pdfrwt>
<pdfrwt beam="2">  1       -1 0.18923702E+00 0.14230981E+04</pdfrwt>
<totfact> 0.10052848E+01</totfact>
</mgrwt>
</event>
<event>
12    1  0.4403484E-008  0.1894413E+04  0.7818608E-02  0.8657642E-01
          2   -1    0    0  501    0  0.00000000000E+00  0.00000000000E+00  0.20458369498E+04  0.20458369498E+04  0.00000000000E+00 0. -1.
         -2   -1    0    0    0  501 -0.00000000000E+00 -0.00000000000E+00 -0.43854938270E+03  0.43854938270E+03  0.00000000000E+00 0.  1.
         23    2    1    2    0    0 -0.27854971955E+03 -0.67483277951E+03  0.60938075814E+03  0.95475883356E+03  0.85031143146E+02 0.  0.
        254    2    1    2    0    0  0.27854971955E+03  0.67483277951E+03  0.99790680900E+03  0.15296274990E+04  0.90052932190E+03 0.  0.
         23    2    4    4    0    0  0.20259892071E+03  0.80421619105E+03  0.10553109902E+04  0.13452174499E+04  0.90103812438E+02 0.  0.
         23    2    4    4    0    0  0.75950798841E+02 -0.12938341154E+03 -0.57404181170E+02  0.18441004904E+03  0.90571712719E+02 0.  0.
         13    1    3    3    0    0 -0.58260233024E+02 -0.20510866421E+03  0.21744093909E+03  0.30453962119E+03  0.00000000000E+00 0. -1.
        -13    1    3    3    0    0 -0.22028948652E+03 -0.46972411531E+03  0.39193981905E+03  0.65021921237E+03  0.00000000000E+00 0.  1.
          4    1    5    5  502    0  0.10185929989E+03  0.47756125287E+03  0.55440288158E+03  0.73878455745E+03  0.00000000000E+00 0. -1.
          1    1    6    6  503    0  0.68403111821E+02 -0.78385305654E+02  0.41514956028E+01  0.10411761025E+03  0.00000000000E+00 0. -1.
         -4    1    5    5    0  502  0.10073962082E+03  0.32665493818E+03  0.50090810859E+03  0.60643289249E+03  0.00000000000E+00 0.  1.
         -1    1    6    6    0  503  0.75476870207E+01 -0.50998105885E+02 -0.61555676773E+02  0.80292438786E+02  0.00000000000E+00 0.  1.
<mgrwt>
<rscale>  0 0.18944134E+04</rscale>
<asrwt>0</asrwt>
<pdfrwt beam="1">  1        2 0.31474414E+00 0.18944134E+04</pdfrwt>
<pdfrwt beam="2">  1       -2 0.67469137E-01 0.18944134E+04</pdfrwt>
<totfact> 0.11888593E+01</totfact>
</mgrwt>
</event>
<event>
12    1  0.4403484E-008  0.1167309E+04  0.7818608E-02  0.9141962E-01
          1   -1    0    0  501    0  0.00000000000E+00  0.00000000000E+00  0.44009052351E+03  0.44009052351E+03  0.00000000000E+00 0. -1.
         -1   -1    0    0    0  501 -0.00000000000E+00 -0.00000000000E+00 -0.77405093409E+03  0.77405093409E+03  0.00000000000E+00 0.  1.
         23    2    1    2    0    0  0.21351120374E+03 -0.80255787272E+02 -0.31708765516E+02  0.24803952208E+03  0.92141918764E+02 0.  0.
        254    2    1    2    0    0 -0.21351120374E+03  0.80255787272E+02 -0.30225164507E+03  0.96610193551E+03  0.88880192807E+03 0.  0.
         23    2    4    4    0    0 -0.45032943594E+01 -0.38489575831E+03 -0.84997112645E+02  0.40398701263E+03  0.88407990560E+02 0.  0.
         23    2    4    4    0    0 -0.20900790938E+03  0.46515154558E+03 -0.21725453242E+03  0.56211492288E+03  0.93399079895E+02 0.  0.
         11    1    3    3    0    0  0.14734545175E+03 -0.36688389762E+02  0.20411988494E+02  0.15321021301E+03  0.00000000000E+00 0. -1.
        -11    1    3    3    0    0  0.66165751983E+02 -0.43567397510E+02 -0.52120754010E+02  0.94829309076E+02  0.00000000000E+00 0.  1.
          1    1    5    5  502    0  0.37879165684E+02 -0.26445948890E+03 -0.61959224827E+02  0.27424915315E+03  0.00000000000E+00 0. -1.
          3    1    6    6  503    0 -0.20728509922E+03  0.42607224590E+03 -0.17650027569E+03  0.50562537358E+03  0.00000000000E+00 0. -1.
         -1    1    5    5    0  502 -0.42382460044E+02 -0.12043626940E+03 -0.23037887818E+02  0.12973785948E+03  0.00000000000E+00 0.  1.
         -3    1    6    6    0  503 -0.17228101555E+01  0.39079299680E+02 -0.40754256734E+02  0.56489549301E+02  0.00000000000E+00 0.  1.
<mgrwt>
<rscale>  0 0.11673088E+04</rscale>
<asrwt>0</asrwt>
<pdfrwt beam="1">  1        1 0.67706235E-01 0.11673088E+04</pdfrwt>
<pdfrwt beam="2">  1       -1 0.11908476E+00 0.11673088E+04</pdfrwt>
<totfact> 0.33035383E+01</totfact>
</mgrwt>
</event>
<event>
12    1  0.4403484E-008  0.1398398E+04  0.7818608E-02  0.8954979E-01
          1   -1    0    0  501    0  0.00000000000E+00  0.00000000000E+00  0.51501397280E+03  0.51501397280E+03  0.00000000000E+00 0. -1.
         -1   -1    0    0    0  501 -0.00000000000E+00 -0.00000000000E+00 -0.94925428938E+03  0.94925428938E+03  0.00000000000E+00 0.  1.
         23    2    1    2    0    0  0.12179004792E+03 -0.36545778450E+03  0.82008463081E+00  0.39736964669E+03  0.97517975484E+02 0.  0.
        254    2    1    2    0    0 -0.12179004792E+03  0.36545778450E+03 -0.43506040122E+03  0.10668986155E+04  0.89476415608E+03 0.  0.
         23    2    4    4    0    0 -0.47090229611E+03  0.28081211369E+03 -0.41895355142E+03  0.69585834732E+03  0.89957465568E+02 0.  0.
         23    2    4    4    0    0  0.34911224819E+03  0.84645670811E+02 -0.16106849796E+02  0.37104026817E+03  0.91472392411E+02 0.  0.
         11    1    3    3    0    0  0.12657322856E+03 -0.26757085935E+03 -0.21764557752E+02  0.29679730951E+03  0.00000000000E+00 0.  1.
        -11    1    3    3    0    0 -0.47831806334E+01 -0.97886925157E+02  0.22584642383E+02  0.10057233718E+03  0.00000000000E+00 0. -1.
          2    1    5    5  502    0 -0.34451875307E+03  0.19959627653E+03 -0.35175536251E+03  0.53128493285E+03  0.00000000000E+00 0. -1.
          1    1    6    6  503    0  0.24936195622E+03  0.90313466088E+02 -0.40259329311E+02  0.26825122733E+03  0.00000000000E+00 0. -1.
         -2    1    5    5    0  502 -0.12638354304E+03  0.81215837167E+02 -0.67198188913E+02  0.16457341447E+03  0.00000000000E+00 0.  1.
         -1    1    6    6    0  503  0.99750291965E+02 -0.56677952767E+01  0.24152479515E+02  0.10278904084E+03  0.00000000000E+00 0.  1.
<mgrwt>
<rscale>  0 0.13983980E+04</rscale>
<asrwt>0</asrwt>
<pdfrwt beam="1">  1        1 0.79232920E-01 0.13983980E+04</pdfrwt>
<pdfrwt beam="2">  1       -1 0.14603912E+00 0.13983980E+04</pdfrwt>
<totfact> 0.15553062E+01</totfact>
</mgrwt>
</event>
<event>
12    1  0.4403484E-008  0.4982811E+04  0.7818608E-02  0.7831164E-01
          2   -1    0    0  501    0  0.00000000000E+00  0.00000000000E+00  0.34406149405E+04  0.34406149405E+04  0.00000000000E+00 0. -1.
         -2   -1    0    0    0  501 -0.00000000000E+00 -0.00000000000E+00 -0.18040675481E+04  0.18040675481E+04  0.00000000000E+00 0.  1.
         23    2    1    2    0    0 -0.20578931086E+04 -0.10309482267E+04  0.40762143344E+02  0.23038951584E+04  0.92157778005E+02 0.  0.
        254    2    1    2    0    0  0.20578931086E+04  0.10309482267E+04  0.15957852490E+04  0.29407873302E+04  0.89661656686E+03 0.  0.
         23    2    4    4    0    0  0.19380999552E+04  0.10334951044E+04  0.11731240668E+04  0.24918150802E+04  0.92621543218E+02 0.  0.
         23    2    4    4    0    0  0.11979315338E+03 -0.25468777389E+01  0.42266118228E+03  0.44897225009E+03  0.92610583385E+02 0.  0.
         13    1    3    3    0    0 -0.16903497775E+04 -0.87213508013E+03  0.60273587490E+02  0.19030330722E+04  0.00000000000E+00 0.  1.
        -13    1    3    3    0    0 -0.36754333109E+03 -0.15881314657E+03 -0.19511444146E+02  0.40086208626E+03  0.00000000000E+00 0. -1.
          1    1    5    5  502    0  0.81123591637E+03  0.38271283346E+03  0.49185674774E+03  0.10229838147E+04  0.00000000000E+00 0.  1.
          3    1    6    6  503    0  0.28616885935E+02 -0.19436742268E+02  0.30893193965E+02  0.46379979991E+02  0.00000000000E+00 0. -1.
         -1    1    5    5    0  502  0.11268640389E+04  0.65078227098E+03  0.68126731902E+03  0.14688312654E+04  0.00000000000E+00 0. -1.
         -3    1    6    6    0  503  0.91176267449E+02  0.16889864529E+02  0.39176798832E+03  0.40259227009E+03  0.00000000000E+00 0.  1.
<mgrwt>
<rscale>  0 0.49828112E+04</rscale>
<asrwt>0</asrwt>
<pdfrwt beam="1">  1        2 0.52932537E+00 0.49828112E+04</pdfrwt>
<pdfrwt beam="2">  1       -2 0.27754886E+00 0.49828112E+04</pdfrwt>
<totfact> 0.28360840E-02</totfact>
</mgrwt>
</event>
<event>
12    1  0.4403484E-008  0.2210253E+04  0.7818608E-02  0.8514173E-01
          2   -1    0    0  501    0  0.00000000000E+00  0.00000000000E+00  0.29049451240E+04  0.29049451240E+04  0.00000000000E+00 0. -1.
         -2   -1    0    0    0  501 -0.00000000000E+00 -0.00000000000E+00 -0.42042274291E+03  0.42042274291E+03  0.00000000000E+00 0.  1.
         23    2    1    2    0    0 -0.54950032306E+03  0.48603065396E+03  0.20245767684E+03  0.76624162581E+03  0.89222847853E+02 0.  0.
        254    2    1    2    0    0  0.54950032306E+03 -0.48603065396E+03  0.22820647042E+04  0.25591262411E+04  0.89617598824E+03 0.  0.
         23    2    4    4    0    0  0.71421950866E+03 -0.43381075938E+03  0.12346522350E+04  0.14936046806E+04  0.90484910472E+02 0.  0.
         23    2    4    4    0    0 -0.16471918560E+03 -0.52219894584E+02  0.10474124692E+04  0.10655215604E+04  0.91673265863E+02 0.  0.
         11    1    3    3    0    0 -0.11930315547E+03  0.62399808271E+02  0.25005600059E+02  0.13693888787E+03  0.00000000000E+00 0. -1.
        -11    1    3    3    0    0 -0.43019716759E+03  0.42363084569E+03  0.17745207678E+03  0.62930273794E+03  0.00000000000E+00 0.  1.
          2    1    5    5  502    0  0.69281430206E+03 -0.43664944556E+03  0.12033566769E+04  0.14555829373E+04  0.00000000000E+00 0. -1.
          3    1    6    6  503    0 -0.92361357964E+02  0.64268361169E+01  0.35507500901E+03  0.36694711702E+03  0.00000000000E+00 0. -1.
         -2    1    5    5    0  502  0.21405206605E+02  0.28386861806E+01  0.31295558079E+02  0.38021743313E+02  0.00000000000E+00 0.  1.
         -3    1    6    6    0  503 -0.72357827638E+02 -0.58646730701E+02  0.69233746018E+03  0.69857444343E+03  0.00000000000E+00 0.  1.
<mgrwt>
<rscale>  0 0.22102534E+04</rscale>
<asrwt>0</asrwt>
<pdfrwt beam="1">  1        2 0.44691462E+00 0.22102534E+04</pdfrwt>
<pdfrwt beam="2">  1       -2 0.64680424E-01 0.22102534E+04</pdfrwt>
<totfact> 0.40236615E+00</totfact>
</mgrwt>
</event>
<event>
12    1  0.4403484E-008  0.2102286E+04  0.7818608E-02  0.8560237E-01
          2   -1    0    0  501    0  0.00000000000E+00  0.00000000000E+00  0.19997300826E+04  0.19997300826E+04  0.00000000000E+00 0.  1.
         -2   -1    0    0    0  501 -0.00000000000E+00 -0.00000000000E+00 -0.55252546979E+03  0.55252546979E+03  0.00000000000E+00 0. -1.
         23    2    1    2    0    0 -0.54785877084E+03  0.49553331035E+03  0.17739106976E+03  0.76517276798E+03  0.91210080442E+02 0.  0.
        254    2    1    2    0    0  0.54785877084E+03 -0.49553331035E+03  0.12698135430E+04  0.17870827844E+04  0.10176128683E+04 0.  0.
         23    2    4    4    0    0  0.41764345631E+03  0.64279490507E+02  0.10990986489E+04  0.11807878363E+04  0.87659368387E+02 0.  0.
         23    2    4    4    0    0  0.13021531453E+03 -0.55981280086E+03  0.17071489414E+03  0.60629494807E+03  0.90019935783E+02 0.  0.
         11    1    3    3    0    0 -0.35271356132E+03  0.35653470808E+03  0.15303312572E+03  0.52435006625E+03  0.00000000000E+00 0. -1.
        -11    1    3    3    0    0 -0.19514520952E+03  0.13899860227E+03  0.24357944033E+02  0.24082270173E+03  0.00000000000E+00 0.  1.
          3    1    6    6  502    0  0.48999103549E+01 -0.19034680233E+03  0.37723107548E+02  0.19411065690E+03  0.00000000000E+00 0. -1.
          3    1    5    5  503    0  0.96914582576E+02 -0.20656381770E+02  0.22577137142E+03  0.24656000198E+03  0.00000000000E+00 0. -1.
         -3    1    5    5    0  503  0.32072887374E+03  0.84935872277E+02  0.87332727747E+03  0.93422783432E+03  0.00000000000E+00 0.  1.
         -3    1    6    6    0  502  0.12531540418E+03 -0.36946599852E+03  0.13299178659E+03  0.41218429117E+03  0.00000000000E+00 0.  1.
<mgrwt>
<rscale>  0 0.21022862E+04</rscale>
<asrwt>0</asrwt>
<pdfrwt beam="1">  1        2 0.30765078E+00 0.21022862E+04</pdfrwt>
<pdfrwt beam="2">  1       -2 0.85003919E-01 0.21022862E+04</pdfrwt>
<totfact> 0.74184427E+00</totfact>
</mgrwt>
</event>
<event>
12    1  0.4403484E-008  0.1826467E+04  0.7818608E-02  0.8692350E-01
         -2   -1    0    0    0  501 -0.00000000000E+00  0.00000000000E+00  0.19316240519E+04  0.19316240519E+04  0.00000000000E+00 0. -1.
          2   -1    0    0  501    0  0.00000000000E+00 -0.00000000000E+00 -0.43175850487E+03  0.43175850487E+03  0.00000000000E+00 0.  1.
         23    2    1    2    0    0  0.32454923251E+03  0.30566823882E+03  0.12937735930E+04  0.13714938210E+04  0.91541873317E+02 0.  0.
        254    2    1    2    0    0 -0.32454923251E+03 -0.30566823882E+03  0.20609195401E+03  0.99188873575E+03  0.86174479636E+03 0.  0.
         23    2    4    4    0    0 -0.73921397737E+02 -0.42775920492E+01 -0.31368841667E+03  0.33477581228E+03  0.90508291854E+02 0.  0.
         23    2    4    4    0    0 -0.25062783477E+03 -0.30139064677E+03  0.51978037068E+03  0.65711292348E+03  0.89303566171E+02 0.  0.
         11    1    3    3    0    0  0.26743361984E+03  0.24447713033E+03  0.11428188228E+04  0.11988847610E+04  0.00000000000E+00 0. -1.
        -11    1    3    3    0    0  0.57115612672E+02  0.61191108486E+02  0.15095477015E+03  0.17260906002E+03  0.00000000000E+00 0.  1.
          2    1    5    5  502    0 -0.92000812811E+01  0.22185544993E+01 -0.22284515003E+03  0.22304601402E+03  0.00000000000E+00 0. -1.
          1    1    6    6  503    0 -0.23548903646E+03 -0.26931134640E+03  0.50454911251E+03  0.61850909010E+03  0.00000000000E+00 0. -1.
         -2    1    5    5    0  502 -0.64721316456E+02 -0.64961465485E+01 -0.90843266644E+02  0.11172979826E+03  0.00000000000E+00 0.  1.
         -1    1    6    6    0  503 -0.15138798316E+02 -0.32079300364E+02  0.15231258171E+02  0.38603833382E+02  0.00000000000E+00 0.  1.
<mgrwt>
<rscale>  0 0.18264667E+04</rscale>
<asrwt>0</asrwt>
<pdfrwt beam="1">  1        2 0.66424386E-01 0.18264667E+04</pdfrwt>
<pdfrwt beam="2">  1       -2 0.29717293E+00 0.18264667E+04</pdfrwt>
<totfact> 0.22754054E+00</totfact>
</mgrwt>
</event>
<event>
12    1  0.4403484E-008  0.1590538E+04  0.7818608E-02  0.8826382E-01
          1   -1    0    0  501    0  0.00000000000E+00  0.00000000000E+00  0.29368686407E+03  0.29368686407E+03  0.00000000000E+00 0. -1.
         -1   -1    0    0    0  501 -0.00000000000E+00 -0.00000000000E+00 -0.21534939069E+04  0.21534939069E+04  0.00000000000E+00 0.  1.
         23    2    1    2    0    0 -0.15962981610E+03  0.14862951917E+03  0.11702619045E+03  0.26292803911E+03  0.88677011337E+02 0.  0.
        254    2    1    2    0    0  0.15962981610E+03 -0.14862951917E+03 -0.19768332333E+04  0.21842527319E+04  0.90306032594E+03 0.  0.
         23    2    4    4    0    0  0.27466775915E+03 -0.10853442426E+03 -0.13728615539E+03  0.33797083755E+03  0.90303374288E+02 0.  0.
         23    2    4    4    0    0 -0.11503794305E+03 -0.40095094914E+02 -0.18395470779E+04  0.18462818943E+04  0.99910142025E+02 0.  0.
         13    1    3    3    0    0 -0.93716110601E+01  0.12428182496E+02 -0.14448879304E+02  0.21238100837E+02  0.00000000000E+00 0.  1.
        -13    1    3    3    0    0 -0.15025820504E+03  0.13620133668E+03  0.13147506975E+03  0.24168993827E+03  0.00000000000E+00 0. -1.
          2    1    5    5  502    0  0.14250570278E+03 -0.45710867061E+02 -0.21134229668E+02  0.15114236453E+03  0.00000000000E+00 0.  1.
          3    1    6    6  503    0 -0.23781838787E+02  0.31415373180E+02 -0.34441681906E+03  0.34666330463E+03  0.00000000000E+00 0. -1.
         -2    1    5    5    0  502  0.13216205638E+03 -0.62823557196E+02 -0.11615192572E+03  0.18682847302E+03  0.00000000000E+00 0. -1.
         -3    1    6    6    0  503 -0.91256104265E+02 -0.71510468094E+02 -0.14951302589E+04  0.14996185897E+04  0.00000000000E+00 0.  1.
<mgrwt>
<rscale>  0 0.15905381E+04</rscale>
<asrwt>0</asrwt>
<pdfrwt beam="1">  1        1 0.45182594E-01 0.15905381E+04</pdfrwt>
<pdfrwt beam="2">  1       -1 0.33130676E+00 0.15905381E+04</pdfrwt>
<totfact> 0.17926388E+00</totfact>
</mgrwt>
</event>
<event>
12    1  0.4403484E-008  0.2541962E+04  0.7818608E-02  0.8388187E-01
         -2   -1    0    0    0  501 -0.00000000000E+00  0.00000000000E+00  0.15961768443E+04  0.15961768443E+04  0.00000000000E+00 0.  1.
          2   -1    0    0  501    0  0.00000000000E+00 -0.00000000000E+00 -0.10120390584E+04  0.10120390584E+04  0.00000000000E+00 0. -1.
         23    2    1    2    0    0  0.58752447651E+03  0.24556386911E+03  0.11933803760E+04  0.13556857230E+04  0.90776832280E+02 0.  0.
        254    2    1    2    0    0 -0.58752447651E+03 -0.24556386911E+03 -0.60924259012E+03  0.12525301798E+04  0.89003859090E+03 0.  0.
         23    2    4    4    0    0 -0.74947215221E+03  0.34525385265E+02 -0.45534499643E+03  0.88259994807E+03  0.93504509958E+02 0.  0.
         23    2    4    4    0    0  0.16194767570E+03 -0.28008925437E+03 -0.15389759369E+03  0.36993023169E+03  0.92124192799E+02 0.  0.
         11    1    3    3    0    0  0.31095517643E+03  0.15741190950E+03  0.57143966713E+03  0.66933916976E+03  0.00000000000E+00 0.  1.
        -11    1    3    3    0    0  0.27656930008E+03  0.88151959604E+02  0.62194070888E+03  0.68634655320E+03  0.00000000000E+00 0. -1.
          2    1    6    6  502    0  0.10327316970E+03 -0.11215452340E+03 -0.10605493589E+03  0.18571923467E+03  0.00000000000E+00 0. -1.
          2    1    5    5  503    0 -0.27937421142E+03  0.21183807861E+00 -0.11959331958E+03  0.30389563499E+03  0.00000000000E+00 0. -1.
         -2    1    5    5    0  503 -0.47009794080E+03  0.34313547186E+02 -0.33575167685E+03  0.57870431307E+03  0.00000000000E+00 0.  1.
         -2    1    6    6    0  502  0.58674506006E+02 -0.16793473097E+03 -0.47842657800E+02  0.18421099703E+03  0.00000000000E+00 0.  1.
<mgrwt>
<rscale>  0 0.25419625E+04</rscale>
<asrwt>0</asrwt>
<pdfrwt beam="1">  1        2 0.15569832E+00 0.25419625E+04</pdfrwt>
<pdfrwt beam="2">  1       -2 0.24556567E+00 0.25419625E+04</pdfrwt>
<totfact> 0.15049009E+00</totfact>
</mgrwt>
</event>
<event>
12    1  0.4602068E-008  0.2331487E+04  0.7818608E-02  0.8465609E-01
          4   -1    0    0  501    0  0.00000000000E+00  0.00000000000E+00  0.12228758719E+04  0.12228758719E+04  0.00000000000E+00 0.  1.
         -4   -1    0    0    0  501 -0.00000000000E+00 -0.00000000000E+00 -0.11112807758E+04  0.11112807758E+04  0.00000000000E+00 0. -1.
         23    2    1    2    0    0  0.60038045678E+03 -0.25266019684E+03  0.78807064827E+03  0.10264374838E+04  0.90690096236E+02 0.  0.
        254    2    1    2    0    0 -0.60038045678E+03  0.25266019684E+03 -0.67647555222E+03  0.13077191639E+04  0.91006393785E+03 0.  0.
         23    2    4    4    0    0 -0.67828047506E+02  0.44853956519E+03 -0.63068600379E+02  0.46706912812E+03  0.91583494809E+02 0.  0.
         23    2    4    4    0    0 -0.53255240928E+03 -0.19587936835E+03 -0.61340695184E+03  0.84065003580E+03  0.91889055618E+02 0.  0.
         11    1    3    3    0    0  0.55719312070E+03 -0.24713382725E+03  0.76158584649E+03  0.97547542455E+03  0.00000000000E+00 0.  1.
        -11    1    3    3    0    0  0.43187336082E+02 -0.55263695837E+01  0.26484801778E+02  0.50962059258E+02  0.00000000000E+00 0. -1.
          3    1    5    5  502    0 -0.22564574095E+02  0.37980808349E+03 -0.50336340901E+02  0.38379302691E+03  0.00000000000E+00 0. -1.
          3    1    6    6  503    0 -0.42198990179E+03 -0.19247373225E+03 -0.48267775106E+03  0.66940229025E+03  0.00000000000E+00 0. -1.
         -3    1    5    5    0  502 -0.45263473410E+02  0.68731481700E+02 -0.12732259479E+02  0.83276101214E+02  0.00000000000E+00 0.  1.
         -3    1    6    6    0  503 -0.11056250749E+03 -0.34056361076E+01 -0.13072920078E+03  0.17124774555E+03  0.00000000000E+00 0.  1.
<mgrwt>
<rscale>  0 0.23314875E+04</rscale>
<asrwt>0</asrwt>
<pdfrwt beam="1">  1        4 0.18813475E+00 0.23314875E+04</pdfrwt>
<pdfrwt beam="2">  1       -4 0.17096627E+00 0.23314875E+04</pdfrwt>
<totfact> 0.59410844E-02</totfact>
</mgrwt>
</event>
<event>
12    1  0.4403484E-008  0.3269578E+04  0.7818608E-02  0.8170680E-01
          2   -1    0    0  501    0  0.00000000000E+00  0.00000000000E+00  0.47798888940E+04  0.47798888940E+04  0.00000000000E+00 0. -1.
         -2   -1    0    0    0  501 -0.00000000000E+00 -0.00000000000E+00 -0.55912062178E+03  0.55912062178E+03  0.00000000000E+00 0.  1.
         23    2    1    2    0    0  0.96817587772E+03  0.10800692234E+04  0.12643815249E+04  0.19263318308E+04  0.90441274703E+02 0.  0.
        254    2    1    2    0    0 -0.96817587772E+03 -0.10800692234E+04  0.29563867473E+04  0.34126776849E+04  0.89567422888E+03 0.  0.
         23    2    4    4    0    0 -0.56751678248E+03 -0.28989831211E+02  0.10654522878E+04  0.12106504149E+04  0.87006555881E+02 0.  0.
         23    2    4    4    0    0 -0.40065909524E+03 -0.10510793922E+04  0.18909344594E+04  0.22020272700E+04  0.89416825661E+02 0.  0.
         13    1    3    3    0    0  0.32291504748E+03  0.34931572144E+03  0.36000623296E+03  0.59657362405E+03  0.00000000000E+00 0.  1.
        -13    1    3    3    0    0  0.64526083024E+03  0.73075350200E+03  0.90437529195E+03  0.13297582068E+04  0.00000000000E+00 0. -1.
          4    1    5    5  502    0 -0.32143155019E+03  0.22723472984E+02  0.55962301008E+03  0.64576505874E+03  0.00000000000E+00 0.  1.
          1    1    6    6  503    0 -0.40695580278E+01 -0.96108138720E+01  0.41393366144E+02  0.42688872163E+02  0.00000000000E+00 0. -1.
         -4    1    5    5    0  502 -0.24608523230E+03 -0.51713304195E+02  0.50582927776E+03  0.56488535618E+03  0.00000000000E+00 0. -1.
         -1    1    6    6    0  503 -0.39658953721E+03 -0.10414685784E+04  0.18495410933E+04  0.21593383979E+04  0.00000000000E+00 0.  1.
<mgrwt>
<rscale>  0 0.32695776E+04</rscale>
<asrwt>0</asrwt>
<pdfrwt beam="1">  1        2 0.73536749E+00 0.32695776E+04</pdfrwt>
<pdfrwt beam="2">  1       -2 0.86018560E-01 0.32695776E+04</pdfrwt>
<totfact> 0.61316474E-02</totfact>
</mgrwt>
</event>
<event>
12    1  0.4403484E-008  0.1849517E+04  0.7818608E-02  0.8680401E-01
          1   -1    0    0  501    0  0.00000000000E+00  0.00000000000E+00  0.13330097646E+04  0.13330097646E+04  0.00000000000E+00 0. -1.
         -1   -1    0    0    0  501 -0.00000000000E+00 -0.00000000000E+00 -0.64153940314E+03  0.64153940314E+03  0.00000000000E+00 0.  1.
         23    2    1    2    0    0  0.38469451230E+03 -0.21027538193E+03 -0.31912212746E+03  0.55014354915E+03  0.92808342285E+02 0.  0.
        254    2    1    2    0    0 -0.38469451230E+03  0.21027538193E+03  0.10105924889E+04  0.14244056186E+04  0.90301084359E+03 0.  0.
         23    2    4    4    0    0  0.26053157362E+03  0.10408632098E+03  0.53228518193E+03  0.60897579229E+03  0.93879378071E+02 0.  0.
         23    2    4    4    0    0 -0.64522608592E+03  0.10618906095E+03  0.47830730702E+03  0.81542982633E+03  0.92493800414E+02 0.  0.
         13    1    3    3    0    0  0.33577292012E+03 -0.21485705257E+03 -0.27699105602E+03  0.48541842986E+03  0.00000000000E+00 0.  1.
        -13    1    3    3    0    0  0.48921592171E+02  0.45816706447E+01 -0.42131071440E+02  0.64725119290E+02  0.00000000000E+00 0. -1.
          1    1    5    5  502    0  0.25884138206E+03  0.11439676682E+03  0.49426999417E+03  0.56955097091E+03  0.00000000000E+00 0. -1.
          1    1    6    6  503    0 -0.53953401710E+03  0.56637121856E+02  0.41172121537E+03  0.68104264064E+03  0.00000000000E+00 0. -1.
         -1    1    5    5    0  502  0.16901915614E+01 -0.10310445835E+02  0.38015187759E+02  0.39424821384E+02  0.00000000000E+00 0.  1.
         -1    1    6    6    0  503 -0.10569206882E+03  0.49551939090E+02  0.66586091645E+02  0.13438718569E+03  0.00000000000E+00 0.  1.
<mgrwt>
<rscale>  0 0.18495170E+04</rscale>
<asrwt>0</asrwt>
<pdfrwt beam="1">  1        1 0.20507842E+00 0.18495170E+04</pdfrwt>
<pdfrwt beam="2">  1       -1 0.98698370E-01 0.18495170E+04</pdfrwt>
<totfact> 0.79069306E+00</totfact>
</mgrwt>
</event>
<event>
12    1  0.4403484E-008  0.2118860E+04  0.7818608E-02  0.8552980E-01
          2   -1    0    0  501    0  0.00000000000E+00  0.00000000000E+00  0.19449226092E+04  0.19449226092E+04  0.00000000000E+00 0. -1.
         -2   -1    0    0    0  501 -0.00000000000E+00 -0.00000000000E+00 -0.57708840310E+03  0.57708840310E+03  0.00000000000E+00 0.  1.
         23    2    1    2    0    0 -0.64442502048E+03 -0.42698071662E+03  0.10238229690E+04  0.12861494921E+04  0.91492648692E+02 0.  0.
        254    2    1    2    0    0  0.64442502048E+03  0.42698071662E+03  0.34401123703E+03  0.12358615201E+04  0.90078511666E+03 0.  0.
         23    2    4    4    0    0  0.53490703789E+03  0.50533702939E+03 -0.11322912663E+03  0.75017881436E+03  0.91958501151E+02 0.  0.
         23    2    4    4    0    0  0.10951798259E+03 -0.78356312774E+02  0.45724036366E+03  0.48568270579E+03  0.93193563521E+02 0.  0.
         11    1    3    3    0    0 -0.75444188641E+02 -0.18483159727E+02  0.91343574231E+02  0.11990455098E+03  0.00000000000E+00 0.  1.
        -11    1    3    3    0    0 -0.56898083184E+03 -0.40849755689E+03  0.93247939482E+03  0.11662449411E+04  0.00000000000E+00 0. -1.
          1    1    5    5  502    0  0.39307114008E+03  0.36659620778E+03 -0.41085504050E+02  0.53906003318E+03  0.00000000000E+00 0. -1.
          3    1    6    6  503    0 -0.14935932893E+02 -0.66473440044E+01  0.87674574420E+02  0.89185762728E+02  0.00000000000E+00 0.  1.
         -1    1    5    5    0  502  0.14183589781E+03  0.13874082161E+03 -0.72143622581E+02  0.21111878118E+03  0.00000000000E+00 0.  1.
         -3    1    6    6    0  503  0.12445391548E+03 -0.71708968769E+02  0.36956578924E+03  0.39649694306E+03  0.00000000000E+00 0. -1.
<mgrwt>
<rscale>  0 0.21188603E+04</rscale>
<asrwt>0</asrwt>
<pdfrwt beam="1">  1        2 0.29921886E+00 0.21188603E+04</pdfrwt>
<pdfrwt beam="2">  1       -2 0.88782832E-01 0.21188603E+04</pdfrwt>
<totfact> 0.71934412E+00</totfact>
</mgrwt>
</event>
<event>
12    1  0.4403484E-008  0.1100174E+04  0.7818608E-02  0.9205022E-01
          2   -1    0    0  501    0  0.00000000000E+00  0.00000000000E+00  0.14542869581E+04  0.14542869581E+04  0.00000000000E+00 0. -1.
         -2   -1    0    0    0  501 -0.00000000000E+00 -0.00000000000E+00 -0.20807160482E+03  0.20807160482E+03  0.00000000000E+00 0.  1.
         23    2    1    2    0    0  0.49617379993E+02 -0.14362424418E+03  0.94908029142E+02  0.20136137041E+03  0.91918766224E+02 0.  0.
        254    2    1    2    0    0 -0.49617379993E+02  0.14362424418E+03  0.11513073241E+04  0.14609971925E+04  0.88651815206E+03 0.  0.
         23    2    4    4    0    0 -0.14228952180E+03 -0.15511269250E+03  0.11083101251E+04  0.11319280870E+04  0.92755621074E+02 0.  0.
         23    2    4    4    0    0  0.92672141811E+02  0.29873693669E+03  0.42997198955E+02  0.32906910547E+03  0.92767633615E+02 0.  0.
         11    1    3    3    0    0  0.18133254728E+02 -0.50097349975E+01 -0.13025700170E+02  0.22881897577E+02  0.00000000000E+00 0. -1.
        -11    1    3    3    0    0  0.31484125265E+02 -0.13861450919E+03  0.10793372931E+03  0.17847947284E+03  0.00000000000E+00 0.  1.
          2    1    5    5  502    0 -0.93827190854E+01 -0.88517979136E+01  0.10967396743E+02  0.16931436296E+02  0.00000000000E+00 0. -1.
          3    1    6    6  503    0  0.61712288566E+02  0.78983587011E+02  0.37679104753E+02  0.10708187761E+03  0.00000000000E+00 0. -1.
         -2    1    5    5    0  502 -0.13290680272E+03 -0.14626089459E+03  0.10973427284E+04  0.11149966507E+04  0.00000000000E+00 0.  1.
         -3    1    6    6    0  503  0.30959853244E+02  0.21975334967E+03  0.53180942029E+01  0.22198722786E+03  0.00000000000E+00 0.  1.
<mgrwt>
<rscale>  0 0.11001742E+04</rscale>
<asrwt>0</asrwt>
<pdfrwt beam="1">  1        2 0.22373645E+00 0.11001742E+04</pdfrwt>
<pdfrwt beam="2">  1       -2 0.32011017E-01 0.11001742E+04</pdfrwt>
<totfact> 0.12134349E+02</totfact>
</mgrwt>
</event>
<event>
12    1  0.4403484E-008  0.1360826E+04  0.7818608E-02  0.8982673E-01
         -2   -1    0    0    0  501 -0.00000000000E+00  0.00000000000E+00  0.49308666382E+03  0.49308666382E+03  0.00000000000E+00 0.  1.
          2   -1    0    0  501    0  0.00000000000E+00 -0.00000000000E+00 -0.93890554241E+03  0.93890554241E+03  0.00000000000E+00 0. -1.
         23    2    1    2    0    0  0.37229878032E+03  0.53559328816E+02 -0.17348681333E+03  0.42453076864E+03  0.93025349184E+02 0.  0.
        254    2    1    2    0    0 -0.37229878032E+03 -0.53559328816E+02 -0.27233206526E+03  0.10074614376E+04  0.89405749868E+03 0.  0.
         23    2    4    4    0    0 -0.43662942522E+03  0.26416380922E+03  0.74581947743E+02  0.52381863559E+03  0.91628177954E+02 0.  0.
         23    2    4    4    0    0  0.64330644897E+02 -0.31772313804E+03 -0.34691401300E+03  0.48364280201E+03  0.92057608049E+02 0.  0.
         13    1    3    3    0    0  0.27189556612E+03  0.33474647191E+02 -0.16932490550E+03  0.32205383789E+03  0.00000000000E+00 0.  1.
        -13    1    3    3    0    0  0.10040321420E+03  0.20084681625E+02 -0.41619078280E+01  0.10247693075E+03  0.00000000000E+00 0. -1.
          2    1    5    5  502    0 -0.30703549629E+03  0.21331529804E+03  0.87628337916E+02  0.38399601295E+03  0.00000000000E+00 0.  1.
          4    1    6    6  503    0  0.49590304172E+02 -0.66305369083E+02 -0.11165640859E+03  0.13900630855E+03  0.00000000000E+00 0. -1.
         -2    1    5    5    0  502 -0.12959392893E+03  0.50848511183E+02 -0.13046390173E+02  0.13982262264E+03  0.00000000000E+00 0. -1.
         -4    1    6    6    0  503  0.14740340725E+02 -0.25141776895E+03 -0.23525760442E+03  0.34463649346E+03  0.00000000000E+00 0.  1.
<mgrwt>
<rscale>  0 0.13608259E+04</rscale>
<asrwt>0</asrwt>
<pdfrwt beam="1">  1        2 0.14444701E+00 0.13608259E+04</pdfrwt>
<pdfrwt beam="2">  1       -2 0.75859487E-01 0.13608259E+04</pdfrwt>
<totfact> 0.41971877E+01</totfact>
</mgrwt>
</event>
<event>
12    1  0.4403484E-008  0.1794731E+04  0.7818608E-02  0.8709106E-01
          2   -1    0    0  501    0  0.00000000000E+00  0.00000000000E+00  0.13916029104E+04  0.13916029104E+04  0.00000000000E+00 0. -1.
         -2   -1    0    0    0  501 -0.00000000000E+00 -0.00000000000E+00 -0.57866020213E+03  0.57866020213E+03  0.00000000000E+00 0.  1.
         23    2    1    2    0    0  0.11395172884E+03 -0.56688139313E+03 -0.63783252472E+02  0.58938867159E+03  0.94716379362E+02 0.  0.
        254    2    1    2    0    0 -0.11395172884E+03  0.56688139313E+03  0.87672596076E+03  0.13808744410E+04  0.89656360679E+03 0.  0.
         23    2    4    4    0    0 -0.49618165075E+03  0.26977058446E+03  0.42336965818E+03  0.71185496885E+03  0.92321343258E+02 0.  0.
         23    2    4    4    0    0  0.38222992191E+03  0.29711080867E+03  0.45335630257E+03  0.66901947210E+03  0.87638867723E+02 0.  0.
         13    1    3    3    0    0  0.81971077432E+02 -0.26828963895E+03  0.79313923606E+01  0.28064478418E+03  0.00000000000E+00 0. -1.
        -13    1    3    3    0    0  0.31980651413E+02 -0.29859175418E+03 -0.71714644833E+02  0.30874388741E+03  0.00000000000E+00 0.  1.
          2    1    5    5  502    0 -0.47797622600E+03  0.23487406319E+03  0.40028812184E+03  0.66622644699E+03  0.00000000000E+00 0. -1.
          3    1    6    6  503    0  0.38115051881E+03  0.28093241964E+03  0.42451949806E+03  0.63593674735E+03  0.00000000000E+00 0. -1.
         -2    1    5    5    0  502 -0.18205424754E+02  0.34896521273E+02  0.23081536350E+02  0.45628521866E+02  0.00000000000E+00 0.  1.
         -3    1    6    6    0  503  0.10794031021E+01  0.16178389026E+02  0.28836804515E+02  0.33082724754E+02  0.00000000000E+00 0.  1.
<mgrwt>
<rscale>  0 0.17947314E+04</rscale>
<asrwt>0</asrwt>
<pdfrwt beam="1">  1        2 0.21409275E+00 0.17947314E+04</pdfrwt>
<pdfrwt beam="2">  1       -2 0.89024647E-01 0.17947314E+04</pdfrwt>
<totfact> 0.14977451E+01</totfact>
</mgrwt>
</event>
<event>
12    1  0.4403484E-008  0.1275110E+04  0.7818608E-02  0.9049540E-01
         -2   -1    0    0    0  501 -0.00000000000E+00  0.00000000000E+00  0.33943758576E+03  0.33943758576E+03  0.00000000000E+00 0.  1.
          2   -1    0    0  501    0  0.00000000000E+00 -0.00000000000E+00 -0.11974990053E+04  0.11974990053E+04  0.00000000000E+00 0. -1.
         23    2    1    2    0    0 -0.29258654446E+03 -0.94543181150E+01 -0.14414924031E+03  0.33884051179E+03  0.91310562458E+02 0.  0.
        254    2    1    2    0    0  0.29258654446E+03  0.94543181150E+01 -0.71391217924E+03  0.11980960793E+04  0.91655187817E+03 0.  0.
         23    2    4    4    0    0  0.20513813458E+03  0.45623724959E+01 -0.92489883916E+03  0.95209336475E+03  0.94559203747E+02 0.  0.
         23    2    4    4    0    0  0.87448409879E+02  0.48919456192E+01  0.21098665992E+03  0.24600271453E+03  0.91273267540E+02 0.  0.
         13    1    3    3    0    0 -0.21490832142E+03 -0.17308032831E+02 -0.14660736104E+03  0.26072758375E+03  0.00000000000E+00 0.  1.
        -13    1    3    3    0    0 -0.77678223042E+02  0.78537147160E+01  0.24581207279E+01  0.78112928042E+02  0.00000000000E+00 0. -1.
          2    1    6    6  502    0  0.10766826730E+02  0.36375327536E+02  0.10371815325E+03  0.11043796596E+03  0.00000000000E+00 0.  1.
          2    1    5    5  503    0  0.11501611350E+03 -0.23393345439E+02 -0.34135164340E+03  0.36096661816E+03  0.00000000000E+00 0.  1.
         -2    1    5    5    0  503  0.90122021087E+02  0.27955717935E+02 -0.58354719577E+03  0.59112674659E+03  0.00000000000E+00 0. -1.
         -2    1    6    6    0  502  0.76681583149E+02 -0.31483381917E+02  0.10726850667E+03  0.13556474857E+03  0.00000000000E+00 0. -1.
<mgrwt>
<rscale>  0 0.12751097E+04</rscale>
<asrwt>0</asrwt>
<pdfrwt beam="1">  1        2 0.18423062E+00 0.12751097E+04</pdfrwt>
<pdfrwt beam="2">  1       -2 0.52221167E-01 0.12751097E+04</pdfrwt>
<totfact> 0.64580826E+01</totfact>
</mgrwt>
</event>
<event>
12    1  0.4403484E-008  0.1405870E+04  0.7818608E-02  0.8949581E-01
          2   -1    0    0  501    0  0.00000000000E+00  0.00000000000E+00  0.65456825567E+03  0.65456825567E+03  0.00000000000E+00 0. -1.
         -2   -1    0    0    0  501 -0.00000000000E+00 -0.00000000000E+00 -0.75487537671E+03  0.75487537671E+03  0.00000000000E+00 0.  1.
         23    2    1    2    0    0  0.27735404095E+03 -0.22678637099E+03 -0.23340268979E+03  0.43703919812E+03  0.90383200854E+02 0.  0.
        254    2    1    2    0    0 -0.27735404095E+03  0.22678637099E+03  0.13309556875E+03  0.97240443425E+03  0.89414687341E+03 0.  0.
         23    2    4    4    0    0 -0.26847028396E+03  0.49763908902E+03 -0.12653736489E+03  0.58644560300E+03  0.90475324128E+02 0.  0.
         23    2    4    4    0    0 -0.88837569903E+01 -0.27085271803E+03  0.25963293364E+03  0.38595883125E+03  0.90082424417E+02 0.  0.
         11    1    3    3    0    0  0.16473734717E+03 -0.77307317356E+02 -0.12479519694E+03  0.22065506124E+03  0.00000000000E+00 0. -1.
        -11    1    3    3    0    0  0.11261669378E+03 -0.14947905363E+03 -0.10860749285E+03  0.21638413689E+03  0.00000000000E+00 0.  1.
          2    1    5    5  502    0 -0.57040417959E+02  0.19650835053E+03 -0.49574510273E+02  0.21053924380E+03  0.00000000000E+00 0. -1.
          4    1    6    6  503    0 -0.33167695386E+02 -0.23383835251E+03  0.18852030167E+03  0.30219261285E+03  0.00000000000E+00 0. -1.
         -2    1    5    5    0  502 -0.21142986600E+03  0.30113073848E+03 -0.76962854614E+02  0.37590635920E+03  0.00000000000E+00 0.  1.
         -4    1    6    6    0  503  0.24283938395E+02 -0.37014365518E+02  0.71112631974E+02  0.83766218400E+02  0.00000000000E+00 0.  1.
<mgrwt>
<rscale>  0 0.14058698E+04</rscale>
<asrwt>0</asrwt>
<pdfrwt beam="1">  1        2 0.10070281E+00 0.14058698E+04</pdfrwt>
<pdfrwt beam="2">  1       -2 0.11613467E+00 0.14058698E+04</pdfrwt>
<totfact> 0.24961325E+01</totfact>
</mgrwt>
</event>
<event>
12    1  0.4403484E-008  0.2121563E+04  0.7818608E-02  0.8551804E-01
          1   -1    0    0  501    0  0.00000000000E+00  0.00000000000E+00  0.14610320633E+04  0.14610320633E+04  0.00000000000E+00 0. -1.
         -1   -1    0    0    0  501 -0.00000000000E+00 -0.00000000000E+00 -0.77018000545E+03  0.77018000545E+03  0.00000000000E+00 0.  1.
         23    2    1    2    0    0 -0.32949089686E+02 -0.26469807528E+03 -0.58410894812E+03  0.64861542985E+03  0.91476767522E+02 0.  0.
        254    2    1    2    0    0  0.32949089686E+02  0.26469807528E+03  0.12749610060E+04  0.15825966389E+04  0.89885251357E+03 0.  0.
         23    2    4    4    0    0 -0.39100773012E+03  0.29799158314E+03  0.73657243909E+03  0.89038768111E+03  0.92548560212E+02 0.  0.
         23    2    4    4    0    0  0.42395681981E+03 -0.33293507857E+02  0.53838856687E+03  0.69220895779E+03  0.91886612639E+02 0.  0.
         11    1    3    3    0    0  0.15553452618E+02 -0.10592536499E+03 -0.31203316233E+03  0.32988905291E+03  0.00000000000E+00 0.  1.
        -11    1    3    3    0    0 -0.48502542304E+02 -0.15877271029E+03 -0.27207578579E+03  0.31872637694E+03  0.00000000000E+00 0. -1.
          2    1    5    5  502    0 -0.22749688068E+03  0.22008480347E+03  0.51107487093E+03  0.60115694717E+03  0.00000000000E+00 0. -1.
          4    1    6    6  503    0  0.28679691523E+03 -0.53281596490E+02  0.41068771305E+03  0.50374179572E+03  0.00000000000E+00 0. -1.
         -2    1    5    5    0  502 -0.16351084945E+03  0.77906779662E+02  0.22549756816E+03  0.28923073393E+03  0.00000000000E+00 0.  1.
         -4    1    6    6    0  503  0.13715990458E+03  0.19988088633E+02  0.12770085383E+03  0.18846716207E+03  0.00000000000E+00 0.  1.
<mgrwt>
<rscale>  0 0.21215633E+04</rscale>
<asrwt>0</asrwt>
<pdfrwt beam="1">  1        1 0.22477416E+00 0.21215633E+04</pdfrwt>
<pdfrwt beam="2">  1       -1 0.11848923E+00 0.21215633E+04</pdfrwt>
<totfact> 0.40816920E+00</totfact>
</mgrwt>
</event>
<event>
12    1  0.4403484E-008  0.2572576E+04  0.7818608E-02  0.8377577E-01
          2   -1    0    0  501    0  0.00000000000E+00  0.00000000000E+00  0.20202332606E+04  0.20202332606E+04  0.00000000000E+00 0.  1.
         -2   -1    0    0    0  501 -0.00000000000E+00 -0.00000000000E+00 -0.81898308780E+03  0.81898308780E+03  0.00000000000E+00 0. -1.
         23    2    1    2    0    0  0.62068213311E+03 -0.66128116859E+02  0.15760339735E+04  0.16972949058E+04  0.85484930791E+02 0.  0.
        254    2    1    2    0    0 -0.62068213311E+03  0.66128116859E+02 -0.37478380079E+03  0.11419214425E+04  0.87971725308E+03 0.  0.
         23    2    4    4    0    0 -0.22151459247E+03 -0.39109977879E+03 -0.22002910565E+03  0.50887148194E+03  0.92247634932E+02 0.  0.
         23    2    4    4    0    0 -0.39916754064E+03  0.45722789565E+03 -0.15475469514E+03  0.63304996059E+03  0.91712392142E+02 0.  0.
         11    1    3    3    0    0  0.47343642280E+02 -0.18968042387E+02  0.84931605125E+02  0.99068585562E+02  0.00000000000E+00 0. -1.
        -11    1    3    3    0    0  0.57333849083E+03 -0.47160074472E+02  0.14911023684E+04  0.15982263203E+04  0.00000000000E+00 0.  1.
          2    1    5    5  502    0 -0.17050317832E+03 -0.36157415263E+03 -0.19598114537E+03  0.44521434276E+03  0.00000000000E+00 0. -1.
          4    1    6    6  503    0 -0.23618915766E+03  0.32955790482E+03 -0.82423653336E+02  0.41374797819E+03  0.00000000000E+00 0.  1.
         -2    1    5    5    0  502 -0.51011414151E+02 -0.29525626164E+02 -0.24047960284E+02  0.63657139174E+02  0.00000000000E+00 0.  1.
         -4    1    6    6    0  503 -0.16297838297E+03  0.12766999084E+03 -0.72331041805E+02  0.21930198240E+03  0.00000000000E+00 0. -1.
<mgrwt>
<rscale>  0 0.25725760E+04</rscale>
<asrwt>0</asrwt>
<pdfrwt beam="1">  1        2 0.31080512E+00 0.25725760E+04</pdfrwt>
<pdfrwt beam="2">  1       -2 0.12599740E+00 0.25725760E+04</pdfrwt>
<totfact> 0.27126680E+00</totfact>
</mgrwt>
</event>
<event>
12    1  0.4403484E-008  0.1652679E+04  0.7818608E-02  0.8788823E-01
          2   -1    0    0  501    0  0.00000000000E+00  0.00000000000E+00  0.29530960717E+04  0.29530960717E+04  0.00000000000E+00 0. -1.
         -2   -1    0    0    0  501 -0.00000000000E+00 -0.00000000000E+00 -0.23122746714E+03  0.23122746714E+03  0.00000000000E+00 0.  1.
         23    2    1    2    0    0  0.36036667820E+03 -0.37136145999E+03  0.47444240596E+03  0.70779608537E+03  0.90034577657E+02 0.  0.
        254    2    1    2    0    0 -0.36036667820E+03  0.37136145999E+03  0.22474261986E+04  0.24765274535E+04  0.90249112622E+03 0.  0.
         23    2    4    4    0    0 -0.50383544148E+03 -0.72142727476E+02  0.79940549380E+03  0.95268335232E+03  0.97476669274E+02 0.  0.
         23    2    4    4    0    0  0.14346876328E+03  0.44350418747E+03  0.14480207048E+04  0.15238441012E+04  0.89764317718E+02 0.  0.
         11    1    3    3    0    0  0.26286990774E+03 -0.20987785612E+03  0.29381827660E+03  0.44663014066E+03  0.00000000000E+00 0.  1.
        -11    1    3    3    0    0  0.97496770458E+02 -0.16148360387E+03  0.18062412936E+03  0.26116594471E+03  0.00000000000E+00 0. -1.
          2    1    5    5  502    0 -0.45215767108E+01  0.94804088644E+01  0.73203398342E+01  0.12802741248E+02  0.00000000000E+00 0. -1.
          3    1    6    6  503    0  0.43872657728E+02  0.11415946899E+03  0.26609688925E+03  0.29285619155E+03  0.00000000000E+00 0. -1.
         -2    1    5    5    0  502 -0.49931386477E+03 -0.81623136340E+02  0.79208515396E+03  0.93988061107E+03  0.00000000000E+00 0.  1.
         -3    1    6    6    0  503  0.99596105551E+02  0.32934471848E+03  0.11819238156E+04  0.12309879096E+04  0.00000000000E+00 0.  1.
<mgrwt>
<rscale>  0 0.16526789E+04</rscale>
<asrwt>0</asrwt>
<pdfrwt beam="1">  1        2 0.45432245E+00 0.16526789E+04</pdfrwt>
<pdfrwt beam="2">  1       -2 0.35573459E-01 0.16526789E+04</pdfrwt>
<totfact> 0.13275420E+01</totfact>
</mgrwt>
</event>
<event>
12    1  0.4403484E-008  0.1634887E+04  0.7818608E-02  0.8799398E-01
          2   -1    0    0  501    0  0.00000000000E+00  0.00000000000E+00  0.28568434800E+04  0.28568434800E+04  0.00000000000E+00 0.  1.
         -2   -1    0    0    0  501 -0.00000000000E+00 -0.00000000000E+00 -0.23389925411E+03  0.23389925411E+03  0.00000000000E+00 0. -1.
         23    2    1    2    0    0 -0.14208625561E+03  0.15015940368E+03 -0.53376180115E+02  0.23175482351E+03  0.90138399545E+02 0.  0.
        254    2    1    2    0    0  0.14208625561E+03 -0.15015940368E+03  0.26763204060E+04  0.28589879106E+04  0.98406534683E+03 0.  0.
         23    2    4    4    0    0  0.35268976616E+03 -0.39546187369E+03  0.87652910967E+03  0.10281414525E+04  0.89394638862E+02 0.  0.
         23    2    4    4    0    0 -0.21060351056E+03  0.24530247001E+03  0.17997912963E+04  0.18308464581E+04  0.90680221101E+02 0.  0.
         13    1    3    3    0    0 -0.12405019001E+03  0.15351270314E+03 -0.26393010253E+02  0.19912606725E+03  0.00000000000E+00 0. -1.
        -13    1    3    3    0    0 -0.18036065597E+02 -0.33532994650E+01 -0.26983169863E+02  0.32628756265E+02  0.00000000000E+00 0.  1.
          2    1    5    5  502    0  0.24703371188E+02 -0.32386943703E+02  0.30763354255E+02  0.51044633758E+02  0.00000000000E+00 0. -1.
          3    1    6    6  503    0 -0.13326594194E+02  0.46086182388E+02  0.42923276811E+03  0.43190543356E+03  0.00000000000E+00 0. -1.
         -2    1    5    5    0  502  0.32798639498E+03 -0.36307492999E+03  0.84576575542E+03  0.97709681870E+03  0.00000000000E+00 0.  1.
         -3    1    6    6    0  503 -0.19727691636E+03  0.19921628763E+03  0.13705585282E+04  0.13989410246E+04  0.00000000000E+00 0.  1.
<mgrwt>
<rscale>  0 0.16348866E+04</rscale>
<asrwt>0</asrwt>
<pdfrwt beam="1">  1        2 0.43951436E+00 0.16348866E+04</pdfrwt>
<pdfrwt beam="2">  1       -2 0.35984503E-01 0.16348866E+04</pdfrwt>
<totfact> 0.14898043E+01</totfact>
</mgrwt>
</event>
<event>
12    1  0.4403484E-008  0.1559192E+04  0.7818608E-02  0.8846018E-01
         -2   -1    0    0    0  501 -0.00000000000E+00  0.00000000000E+00  0.79407567428E+03  0.79407567428E+03  0.00000000000E+00 0.  1.
          2   -1    0    0  501    0  0.00000000000E+00 -0.00000000000E+00 -0.76538035176E+03  0.76538035176E+03  0.00000000000E+00 0. -1.
         23    2    1    2    0    0  0.86888899404E+02  0.47214363438E+03  0.20216033183E+03  0.52889095827E+03  0.91583588301E+02 0.  0.
        254    2    1    2    0    0 -0.86888899404E+02 -0.47214363438E+03 -0.17346500931E+03  0.10305650678E+04  0.89526809232E+03 0.  0.
         23    2    4    4    0    0  0.52586896123E+02  0.24390830865E+03 -0.12528697141E+03  0.29368475279E+03  0.91089319592E+02 0.  0.
         23    2    4    4    0    0 -0.13947579553E+03 -0.71605194304E+03 -0.48178037906E+02  0.73688031498E+03  0.92128131449E+02 0.  0.
         11    1    3    3    0    0  0.26675921521E+01  0.10650238353E+03  0.91085974010E+01  0.10692446068E+03  0.00000000000E+00 0. -1.
        -11    1    3    3    0    0  0.84221307252E+02  0.36564125085E+03  0.19305173443E+03  0.42196649759E+03  0.00000000000E+00 0.  1.
          4    1    5    5  502    0 -0.23037365556E+02  0.27468319851E+02 -0.10949607296E+02  0.37484966415E+02  0.00000000000E+00 0. -1.
          1    1    6    6  503    0 -0.38059516048E+02 -0.42543809374E+03 -0.16539524277E+02  0.42745719579E+03  0.00000000000E+00 0. -1.
         -4    1    5    5    0  502  0.75624261679E+02  0.21643998880E+03 -0.11433736411E+03  0.25619978638E+03  0.00000000000E+00 0.  1.
         -1    1    6    6    0  503 -0.10141627948E+03 -0.29061384930E+03 -0.31638513629E+02  0.30942311919E+03  0.00000000000E+00 0.  1.
<mgrwt>
<rscale>  0 0.15591920E+04</rscale>
<asrwt>0</asrwt>
<pdfrwt beam="1">  1        2 0.11775082E+00 0.15591920E+04</pdfrwt>
<pdfrwt beam="2">  1       -2 0.12216549E+00 0.15591920E+04</pdfrwt>
<totfact> 0.17837878E+01</totfact>
</mgrwt>
</event>
<event>
12    1  0.4403484E-008  0.1455685E+04  0.7818608E-02  0.8914469E-01
          1   -1    0    0  501    0  0.00000000000E+00  0.00000000000E+00  0.41316999751E+03  0.41316999751E+03  0.00000000000E+00 0. -1.
         -1   -1    0    0    0  501 -0.00000000000E+00 -0.00000000000E+00 -0.12821711456E+04  0.12821711456E+04  0.00000000000E+00 0.  1.
         23    2    1    2    0    0 -0.39732806511E+03  0.68981228054E+02 -0.44976266094E+03  0.61151398807E+03  0.95052118778E+02 0.  0.
        254    2    1    2    0    0  0.39732806511E+03 -0.68981228054E+02 -0.41923848717E+03  0.10838271551E+04  0.91449023603E+03 0.  0.
         23    2    4    4    0    0  0.32265716621E+03 -0.12132195821E+03 -0.69433934046E+03  0.78050488371E+03  0.90852018915E+02 0.  0.
         23    2    4    4    0    0  0.74670898895E+02  0.52340730153E+02  0.27510085329E+03  0.30332227135E+03  0.89490924929E+02 0.  0.
         13    1    3    3    0    0 -0.38312618195E+03  0.47150189406E+02 -0.43499319272E+03  0.58157363194E+03  0.00000000000E+00 0.  1.
        -13    1    3    3    0    0 -0.14201883160E+02  0.21831038648E+02 -0.14769468221E+02  0.29940356132E+02  0.00000000000E+00 0. -1.
          4    1    5    5  502    0  0.19276025595E+03 -0.44443501100E+02 -0.47192872723E+03  0.51171130987E+03  0.00000000000E+00 0. -1.
          1    1    6    6  503    0  0.90929506381E+02  0.22774533344E+02  0.21093917232E+03  0.23082935022E+03  0.00000000000E+00 0. -1.
         -4    1    5    5    0  502  0.12989691026E+03 -0.76878457107E+02 -0.22241061323E+03  0.26879357384E+03  0.00000000000E+00 0.  1.
         -1    1    6    6    0  503 -0.16258607486E+02  0.29566196810E+02  0.64161680962E+02  0.72492921137E+02  0.00000000000E+00 0.  1.
<mgrwt>
<rscale>  0 0.14556849E+04</rscale>
<asrwt>0</asrwt>
<pdfrwt beam="1">  1        1 0.63564614E-01 0.14556849E+04</pdfrwt>
<pdfrwt beam="2">  1       -1 0.19725710E+00 0.14556849E+04</pdfrwt>
<totfact> 0.87682135E+00</totfact>
</mgrwt>
</event>
<event>
12    1  0.4403484E-008  0.1262816E+04  0.7818608E-02  0.9059583E-01
         -1   -1    0    0    0  501 -0.00000000000E+00  0.00000000000E+00  0.41335219259E+03  0.41335219259E+03  0.00000000000E+00 0.  1.
          1   -1    0    0  501    0  0.00000000000E+00 -0.00000000000E+00 -0.96449500812E+03  0.96449500812E+03  0.00000000000E+00 0. -1.
         23    2    1    2    0    0 -0.21474917655E+03  0.16267446436E+03 -0.30861505298E+03  0.42011591993E+03  0.93134016684E+02 0.  0.
        254    2    1    2    0    0  0.21474917655E+03 -0.16267446436E+03 -0.24252776255E+03  0.95773128078E+03  0.88648141570E+03 0.  0.
         23    2    4    4    0    0 -0.27106820143E+03  0.10121761195E+03  0.76255666042E+02  0.31382557027E+03  0.94596972235E+02 0.  0.
         23    2    4    4    0    0  0.48581737798E+03 -0.26389207631E+03 -0.31878342859E+03  0.64390571051E+03  0.85639576089E+02 0.  0.
         13    1    3    3    0    0 -0.70729964999E+01 -0.10787326678E+02 -0.61859668122E+01  0.14305938688E+02  0.00000000000E+00 0. -1.
        -13    1    3    3    0    0 -0.20767618005E+03  0.17346179104E+03 -0.30242908617E+03  0.40580998124E+03  0.00000000000E+00 0.  1.
          4    1    5    5  502    0 -0.23901094142E+03  0.50839574824E+02  0.67200934081E+02  0.25343018373E+03  0.00000000000E+00 0. -1.
          3    1    6    6  503    0  0.47914943119E+03 -0.24399604773E+03 -0.31289915712E+03  0.62211263550E+03  0.00000000000E+00 0. -1.
         -4    1    5    5    0  502 -0.32057260015E+02  0.50378037125E+02  0.90547319614E+01  0.60395386539E+02  0.00000000000E+00 0.  1.
         -3    1    6    6    0  503  0.66679467862E+01 -0.19896028578E+02 -0.58842714704E+01  0.21793075007E+02  0.00000000000E+00 0.  1.
<mgrwt>
<rscale>  0 0.12628161E+04</rscale>
<asrwt>0</asrwt>
<pdfrwt beam="1">  1        1 0.14838384E+00 0.12628161E+04</pdfrwt>
<pdfrwt beam="2">  1       -1 0.63592646E-01 0.12628161E+04</pdfrwt>
<totfact> 0.39880945E+01</totfact>
</mgrwt>
</event>
<event>
12    1  0.4403484E-008  0.3303601E+04  0.7818608E-02  0.8161980E-01
          2   -1    0    0  501    0  0.00000000000E+00  0.00000000000E+00  0.23991490616E+04  0.23991490616E+04  0.00000000000E+00 0. -1.
         -2   -1    0    0    0  501 -0.00000000000E+00 -0.00000000000E+00 -0.11372552351E+04  0.11372552351E+04  0.00000000000E+00 0.  1.
         23    2    1    2    0    0 -0.46212463903E+03 -0.32689138163E+03 -0.93264030661E+03  0.10946403941E+04  0.89456656738E+02 0.  0.
        254    2    1    2    0    0  0.46212463903E+03  0.32689138163E+03  0.21945341332E+04  0.24417639027E+04  0.90874294353E+03 0.  0.
         23    2    4    4    0    0 -0.93775350433E+02  0.47120704361E+03  0.10190861356E+04  0.11303138713E+04  0.90790977220E+02 0.  0.
         23    2    4    4    0    0  0.55589998946E+03 -0.14431566198E+03  0.11754479976E+04  0.13114500314E+04  0.91495252877E+02 0.  0.
         13    1    3    3    0    0 -0.22073439196E+03 -0.15153144167E+03 -0.52671689504E+03  0.59086050564E+03  0.00000000000E+00 0.  1.
        -13    1    3    3    0    0 -0.24139024707E+03 -0.17535993996E+03 -0.40592341157E+03  0.50377988843E+03  0.00000000000E+00 0. -1.
          4    1    5    5  502    0 -0.25258940868E+02  0.21083307012E+02  0.54352553907E+02  0.63535187452E+02  0.00000000000E+00 0. -1.
          3    1    6    6  503    0  0.19707274760E+03 -0.96639870779E+02  0.43216942441E+03  0.48471367205E+03  0.00000000000E+00 0. -1.
         -4    1    5    5    0  502 -0.68516409565E+02  0.45012373660E+03  0.96473358169E+03  0.10667786838E+04  0.00000000000E+00 0.  1.
         -3    1    6    6    0  503  0.35882724186E+03 -0.47675791201E+02  0.74327857314E+03  0.82673635934E+03  0.00000000000E+00 0.  1.
<mgrwt>
<rscale>  0 0.33036010E+04</rscale>
<asrwt>0</asrwt>
<pdfrwt beam="1">  1        2 0.36909985E+00 0.33036010E+04</pdfrwt>
<pdfrwt beam="2">  1       -2 0.17496234E+00 0.33036010E+04</pdfrwt>
<totfact> 0.65326093E-01</totfact>
</mgrwt>
</event>
<event>
12    1  0.4403484E-008  0.1912772E+04  0.7818608E-02  0.8648525E-01
          2   -1    0    0  501    0  0.00000000000E+00  0.00000000000E+00  0.76123606604E+03  0.76123606604E+03  0.00000000000E+00 0. -1.
         -2   -1    0    0    0  501 -0.00000000000E+00 -0.00000000000E+00 -0.12015641733E+04  0.12015641733E+04  0.00000000000E+00 0.  1.
         23    2    1    2    0    0 -0.54610920080E+03  0.49506267635E+03 -0.13380909199E+03  0.75524284057E+03  0.95731721045E+02 0.  0.
        254    2    1    2    0    0  0.54610920080E+03 -0.49506267635E+03 -0.30651901527E+03  0.12075573988E+04  0.90604561249E+03 0.  0.
         23    2    4    4    0    0  0.76834388718E+02  0.78682804191E+02  0.24181073736E+03  0.28153417293E+03  0.93244575518E+02 0.  0.
         23    2    4    4    0    0  0.46927481208E+03 -0.57374548055E+03 -0.54832975263E+03  0.92602322585E+03  0.86317851541E+02 0.  0.
         11    1    3    3    0    0 -0.22733586334E+03  0.22070969536E+03 -0.10452550182E+03  0.33364643700E+03  0.00000000000E+00 0. -1.
        -11    1    3    3    0    0 -0.31877333746E+03  0.27435298099E+03 -0.29283590166E+02  0.42159640357E+03  0.00000000000E+00 0.  1.
          4    1    5    5  502    0  0.76204045877E+02  0.93751728396E+02  0.23644970001E+03  0.26552759522E+03  0.00000000000E+00 0.  1.
          3    1    6    6  503    0  0.11427033618E+03 -0.10247233375E+03 -0.82351659718E+02  0.17418405430E+03  0.00000000000E+00 0. -1.
         -4    1    5    5    0  502  0.63034284067E+00 -0.15068924205E+02  0.53610373419E+01  0.16006577716E+02  0.00000000000E+00 0. -1.
         -3    1    6    6    0  503  0.35500447590E+03 -0.47127314680E+03 -0.46597809291E+03  0.75183917155E+03  0.00000000000E+00 0.  1.
<mgrwt>
<rscale>  0 0.19127718E+04</rscale>
<asrwt>0</asrwt>
<pdfrwt beam="1">  1        2 0.11711324E+00 0.19127718E+04</pdfrwt>
<pdfrwt beam="2">  1       -2 0.18485603E+00 0.19127718E+04</pdfrwt>
<totfact> 0.57753520E+00</totfact>
</mgrwt>
</event>
<event>
12    1  0.4403484E-008  0.1196360E+04  0.7818608E-02  0.9116049E-01
         -2   -1    0    0    0  501 -0.00000000000E+00  0.00000000000E+00  0.27815970595E+03  0.27815970595E+03  0.00000000000E+00 0.  1.
          2   -1    0    0  501    0  0.00000000000E+00 -0.00000000000E+00 -0.12863799131E+04  0.12863799131E+04  0.00000000000E+00 0. -1.
         23    2    1    2    0    0 -0.90429560427E+02 -0.22651989660E+03 -0.28351446882E+03  0.38480339818E+03  0.90578321160E+02 0.  0.
        254    2    1    2    0    0  0.90429560427E+02  0.22651989660E+03 -0.72470573836E+03  0.11797362209E+04  0.89838208728E+03 0.  0.
         23    2    4    4    0    0 -0.32799360434E+03  0.25600629820E+03 -0.12669505969E+03  0.44344156733E+03  0.86427751772E+02 0.  0.
         23    2    4    4    0    0  0.41842316477E+03 -0.29486401607E+02 -0.59801067866E+03  0.73629465357E+03  0.92550809759E+02 0.  0.
         13    1    3    3    0    0 -0.39795533774E+01 -0.30930946454E+02 -0.19594940886E+01  0.31247398463E+02  0.00000000000E+00 0.  1.
        -13    1    3    3    0    0 -0.86450007049E+02 -0.19558895014E+03 -0.28155497473E+03  0.35355599971E+03  0.00000000000E+00 0. -1.
          2    1    5    5  502    0 -0.11946438115E+03  0.14137977854E+03 -0.76313487383E+02  0.20020921183E+03  0.00000000000E+00 0. -1.
          4    1    6    6  503    0  0.30426597709E+03 -0.56703935056E+02 -0.46869932548E+03  0.56166910078E+03  0.00000000000E+00 0. -1.
         -2    1    5    5    0  502 -0.20852922319E+03  0.11462651966E+03 -0.50381572309E+02  0.24323235550E+03  0.00000000000E+00 0.  1.
         -4    1    6    6    0  503  0.11415718768E+03  0.27217533449E+02 -0.12931135319E+03  0.17462555279E+03  0.00000000000E+00 0.  1.
<mgrwt>
<rscale>  0 0.11963596E+04</rscale>
<asrwt>0</asrwt>
<pdfrwt beam="1">  1        2 0.19790460E+00 0.11963596E+04</pdfrwt>
<pdfrwt beam="2">  1       -2 0.42793801E-01 0.11963596E+04</pdfrwt>
<totfact> 0.85981756E+01</totfact>
</mgrwt>
</event>
<event>
12    1  0.4403484E-008  0.1020596E+04  0.7818608E-02  0.9286240E-01
          2   -1    0    0  501    0  0.00000000000E+00  0.00000000000E+00  0.49352645256E+03  0.49352645256E+03  0.00000000000E+00 0. -1.
         -2   -1    0    0    0  501 -0.00000000000E+00 -0.00000000000E+00 -0.52763942706E+03  0.52763942706E+03  0.00000000000E+00 0.  1.
         23    2    1    2    0    0  0.50242183299E+01  0.41133074140E+02  0.26115685125E+02  0.10328732499E+03  0.90934426570E+02 0.  0.
        254    2    1    2    0    0 -0.50242183299E+01 -0.41133074140E+02 -0.60228659618E+02  0.91787855463E+03  0.91496250035E+03 0.  0.
         23    2    4    4    0    0  0.34091037360E+03 -0.30571700894E+03 -0.59075164882E+02  0.47036610156E+03  0.89842206183E+02 0.  0.
         23    2    4    4    0    0 -0.34593459193E+03  0.26458393480E+03 -0.11534947367E+01  0.44751245307E+03  0.10291095500E+03 0.  0.
         11    1    3    3    0    0  0.12051598073E+02 -0.30628630274E+01  0.50717486464E+02  0.52219589995E+02  0.00000000000E+00 0. -1.
        -11    1    3    3    0    0 -0.70273797431E+01  0.44195937167E+02 -0.24601801339E+02  0.51067734993E+02  0.00000000000E+00 0.  1.
          4    1    5    5  502    0  0.11278990129E+03 -0.91227489973E+02  0.22483803672E+02  0.14679760961E+03  0.00000000000E+00 0.  1.
          3    1    6    6  503    0 -0.13440296673E+03  0.55240796172E+02  0.29678421797E+02  0.14831221038E+03  0.00000000000E+00 0. -1.
         -4    1    5    5    0  502  0.22812047230E+03 -0.21448951897E+03 -0.81558968554E+02  0.32356849195E+03  0.00000000000E+00 0. -1.
         -3    1    6    6    0  503 -0.21153162519E+03  0.20934313863E+03 -0.30831916534E+02  0.29920024269E+03  0.00000000000E+00 0.  1.
<mgrwt>
<rscale>  0 0.10205959E+04</rscale>
<asrwt>0</asrwt>
<pdfrwt beam="1">  1        2 0.75927147E-01 0.10205959E+04</pdfrwt>
<pdfrwt beam="2">  1       -2 0.81175296E-01 0.10205959E+04</pdfrwt>
<totfact> 0.83460152E+01</totfact>
</mgrwt>
</event>
<event>
12    1  0.4403484E-008  0.1551312E+04  0.7818608E-02  0.8851030E-01
          2   -1    0    0  501    0  0.00000000000E+00  0.00000000000E+00  0.42644099824E+03  0.42644099824E+03  0.00000000000E+00 0. -1.
         -2   -1    0    0    0  501 -0.00000000000E+00 -0.00000000000E+00 -0.14108452457E+04  0.14108452457E+04  0.00000000000E+00 0.  1.
         23    2    1    2    0    0  0.22518598448E+03  0.34654038085E+03 -0.68572813284E+03  0.80300194733E+03  0.61563723711E+02 0.  0.
        254    2    1    2    0    0 -0.22518598448E+03 -0.34654038085E+03 -0.29867611466E+03  0.10342842967E+04  0.89985422246E+03 0.  0.
         23    2    4    4    0    0 -0.33941506671E+03 -0.59761121934E+03 -0.25809974369E+03  0.73976871274E+03  0.91107154882E+02 0.  0.
         23    2    4    4    0    0  0.11422908223E+03  0.25107083849E+03 -0.40576370971E+02  0.29451558391E+03  0.94911211770E+02 0.  0.
         11    1    3    3    0    0  0.21628860764E+03  0.29825222057E+03 -0.59463742675E+03  0.69952042012E+03  0.00000000000E+00 0.  1.
        -11    1    3    3    0    0  0.88973768458E+01  0.48288160286E+02 -0.91090706087E+02  0.10348152721E+03  0.00000000000E+00 0. -1.
          1    1    5    5  502    0 -0.46270803957E+02 -0.15704212931E+03 -0.50601664095E+02  0.17135853082E+03  0.00000000000E+00 0. -1.
          1    1    6    6  503    0  0.28209696572E+02  0.17316733356E+03 -0.19025032635E+02  0.17647850934E+03  0.00000000000E+00 0. -1.
         -1    1    5    5    0  502 -0.29314426275E+03 -0.44056909004E+03 -0.20749807959E+03  0.56841018193E+03  0.00000000000E+00 0.  1.
         -1    1    6    6    0  503  0.86019385657E+02  0.77903504930E+02 -0.21551338335E+02  0.11803707457E+03  0.00000000000E+00 0.  1.
<mgrwt>
<rscale>  0 0.15513120E+04</rscale>
<asrwt>0</asrwt>
<pdfrwt beam="1">  1        2 0.65606308E-01 0.15513120E+04</pdfrwt>
<pdfrwt beam="2">  1       -2 0.21705311E+00 0.15513120E+04</pdfrwt>
<totfact> 0.73395024E+00</totfact>
</mgrwt>
</event>
<event>
12    1  0.4403484E-008  0.2221021E+04  0.7818608E-02  0.8509729E-01
         -2   -1    0    0    0  501 -0.00000000000E+00  0.00000000000E+00  0.59684508994E+03  0.59684508994E+03  0.00000000000E+00 0.  1.
          2   -1    0    0  501    0  0.00000000000E+00 -0.00000000000E+00 -0.20662536797E+04  0.20662536797E+04  0.00000000000E+00 0. -1.
         23    2    1    2    0    0  0.65439103759E+03  0.61836223840E+03 -0.35419683409E+03  0.97179435982E+03  0.91265505803E+02 0.  0.
        254    2    1    2    0    0 -0.65439103759E+03 -0.61836223840E+03 -0.11152117556E+04  0.16913044098E+04  0.89789412444E+03 0.  0.
         23    2    4    4    0    0 -0.17299091487E+03  0.91421378998E+02 -0.70262024747E+03  0.73516680088E+03  0.92256640881E+02 0.  0.
         23    2    4    4    0    0 -0.48140012272E+03 -0.70978361740E+03 -0.41259150817E+03  0.95613760892E+03  0.91806932709E+02 0.  0.
         13    1    3    3    0    0  0.49064234744E+03  0.46994914803E+03 -0.30831786900E+03  0.74608446116E+03  0.00000000000E+00 0.  1.
        -13    1    3    3    0    0  0.16374869015E+03  0.14841309036E+03 -0.45878965095E+02  0.22570989866E+03  0.00000000000E+00 0. -1.
          2    1    5    5  502    0 -0.84310174258E+02  0.66934873318E+02 -0.51590727333E+03  0.52701878280E+03  0.00000000000E+00 0. -1.
          4    1    6    6  503    0 -0.41077058674E+03 -0.54666256655E+03 -0.34570612345E+03  0.76621482652E+03  0.00000000000E+00 0. -1.
         -2    1    5    5    0  502 -0.88680740613E+02  0.24486505680E+02 -0.18671297415E+03  0.20814801808E+03  0.00000000000E+00 0.  1.
         -4    1    6    6    0  503 -0.70629535978E+02 -0.16312105085E+03 -0.66885384725E+02  0.18992278240E+03  0.00000000000E+00 0.  1.
<mgrwt>
<rscale>  0 0.22210208E+04</rscale>
<asrwt>0</asrwt>
<pdfrwt beam="1">  1        2 0.31788518E+00 0.22210208E+04</pdfrwt>
<pdfrwt beam="2">  1       -2 0.91822321E-01 0.22210208E+04</pdfrwt>
<totfact> 0.56485615E+00</totfact>
</mgrwt>
</event>
<event>
12    1  0.4403484E-008  0.2855627E+04  0.7818608E-02  0.8286203E-01
          1   -1    0    0  501    0  0.00000000000E+00  0.00000000000E+00  0.30598635879E+04  0.30598635879E+04  0.00000000000E+00 0. -1.
         -1   -1    0    0    0  501 -0.00000000000E+00 -0.00000000000E+00 -0.66625576383E+03  0.66625576383E+03  0.00000000000E+00 0.  1.
         23    2    1    2    0    0  0.48226748018E+03 -0.63844022683E+03  0.23836149233E+04  0.25159984629E+04  0.91871199820E+02 0.  0.
        254    2    1    2    0    0 -0.48226748018E+03  0.63844022683E+03  0.99929008536E+01  0.12101208889E+04  0.90780221519E+03 0.  0.
         23    2    4    4    0    0 -0.63703673009E+03  0.28653322243E+03  0.25048934079E+03  0.74748979998E+03  0.89883303135E+02 0.  0.
         23    2    4    4    0    0  0.15476924992E+03  0.35190700440E+03 -0.24049643993E+03  0.46263108887E+03  0.91634744001E+02 0.  0.
         11    1    3    3    0    0  0.15564828327E+03 -0.15640491400E+03  0.57071585890E+03  0.61188681699E+03  0.00000000000E+00 0.  1.
        -11    1    3    3    0    0  0.32661919691E+03 -0.48203531282E+03  0.18128990644E+04  0.19041116459E+04  0.00000000000E+00 0. -1.
          3    1    6    6  502    0  0.80268423433E+02  0.18632568136E+03 -0.73029987719E+02  0.21562388189E+03  0.00000000000E+00 0. -1.
          3    1    5    5  503    0 -0.48691627048E+03  0.19533359725E+03  0.15248130927E+03  0.54634532884E+03  0.00000000000E+00 0. -1.
         -3    1    5    5    0  503 -0.15012045962E+03  0.91199625176E+02  0.98008031513E+02  0.20114447114E+03  0.00000000000E+00 0.  1.
         -3    1    6    6    0  502  0.74500826484E+02  0.16558132304E+03 -0.16746645221E+03  0.24700720699E+03  0.00000000000E+00 0.  1.
<mgrwt>
<rscale>  0 0.28556273E+04</rscale>
<asrwt>0</asrwt>
<pdfrwt beam="1">  1        1 0.47074824E+00 0.28556273E+04</pdfrwt>
<pdfrwt beam="2">  1       -1 0.10250089E+00 0.28556273E+04</pdfrwt>
<totfact> 0.41887117E-01</totfact>
</mgrwt>
</event>
<event>
12    1  0.4403484E-008  0.1435652E+04  0.7818608E-02  0.8928408E-01
         -2   -1    0    0    0  501 -0.00000000000E+00  0.00000000000E+00  0.28017987000E+03  0.28017987000E+03  0.00000000000E+00 0.  1.
          2   -1    0    0  501    0  0.00000000000E+00 -0.00000000000E+00 -0.18390841992E+04  0.18390841992E+04  0.00000000000E+00 0. -1.
         23    2    1    2    0    0  0.31210180191E+03  0.25203260881E+03 -0.66401697178E+03  0.78107282641E+03  0.90709705587E+02 0.  0.
        254    2    1    2    0    0 -0.31210180191E+03 -0.25203260881E+03 -0.89488735740E+03  0.13381912428E+04  0.91049681446E+03 0.  0.
         23    2    4    4    0    0 -0.47824488005E+03 -0.42870414610E+03 -0.85905387257E+03  0.10764755066E+04  0.91217049720E+02 0.  0.
         23    2    4    4    0    0  0.16614307814E+03  0.17667153729E+03 -0.35833484834E+02  0.26171573618E+03  0.91622777881E+02 0.  0.
         11    1    3    3    0    0  0.44089197900E+02  0.82821706256E+02 -0.13591570744E+03  0.16515559914E+03  0.00000000000E+00 0.  1.
        -11    1    3    3    0    0  0.26801260401E+03  0.16921090255E+03 -0.52810126434E+03  0.61591722727E+03  0.00000000000E+00 0. -1.
          4    1    5    5  502    0 -0.76557905779E+02 -0.40386779425E+02 -0.15662763903E+03  0.17895368730E+03  0.00000000000E+00 0. -1.
          3    1    6    6  503    0  0.49690283188E+02  0.15657348605E+02  0.19198088001E+02  0.55523358972E+02  0.00000000000E+00 0. -1.
         -4    1    5    5    0  502 -0.40168697427E+03 -0.38831736668E+03 -0.70242623354E+03  0.89752181930E+03  0.00000000000E+00 0.  1.
         -3    1    6    6    0  503  0.11645279495E+03  0.16101418869E+03 -0.55031572835E+02  0.20619237721E+03  0.00000000000E+00 0.  1.
<mgrwt>
<rscale>  0 0.14356523E+04</rscale>
<asrwt>0</asrwt>
<pdfrwt beam="1">  1        2 0.28293603E+00 0.14356523E+04</pdfrwt>
<pdfrwt beam="2">  1       -2 0.43104595E-01 0.14356523E+04</pdfrwt>
<totfact> 0.40667280E+01</totfact>
</mgrwt>
</event>
<event>
12    1  0.4403484E-008  0.1638029E+04  0.7818608E-02  0.8797520E-01
          2   -1    0    0  501    0  0.00000000000E+00  0.00000000000E+00  0.39410535263E+03  0.39410535263E+03  0.00000000000E+00 0. -1.
         -2   -1    0    0    0  501 -0.00000000000E+00 -0.00000000000E+00 -0.17020446728E+04  0.17020446728E+04  0.00000000000E+00 0.  1.
         23    2    1    2    0    0 -0.33126805043E+03  0.42092591532E+03 -0.68815323339E+03  0.87677516431E+03  0.90899222757E+02 0.  0.
        254    2    1    2    0    0  0.33126805043E+03 -0.42092591532E+03 -0.61978608676E+03  0.12193748611E+04  0.90322926831E+03 0.  0.
         23    2    4    4    0    0  0.59476381672E+03 -0.47206578743E+03 -0.47565835470E+03  0.90082330945E+03  0.92960524495E+02 0.  0.
         23    2    4    4    0    0 -0.26349576629E+03  0.51139872113E+02 -0.14412773207E+03  0.31855155166E+03  0.93042906988E+02 0.  0.
         11    1    3    3    0    0 -0.32924348592E+03  0.42275634445E+03 -0.68988994869E+03  0.87354011991E+03  0.00000000000E+00 0.  1.
        -11    1    3    3    0    0 -0.20245645113E+01 -0.18304291301E+01  0.17367152937E+01  0.32350444003E+01  0.00000000000E+00 0. -1.
          4    1    5    5  502    0  0.17324872544E+02 -0.12665473778E+02 -0.35909043944E+02  0.41833298599E+02  0.00000000000E+00 0. -1.
          1    1    6    6  503    0  0.73073103263E+01 -0.27306256860E+01 -0.58597190274E+01  0.97565059279E+01  0.00000000000E+00 0. -1.
         -4    1    5    5    0  502  0.57743894418E+03 -0.45940031365E+03 -0.43974931075E+03  0.85899001085E+03  0.00000000000E+00 0.  1.
         -1    1    6    6    0  503 -0.27080307661E+03  0.53870497799E+02 -0.13826801304E+03  0.30879504573E+03  0.00000000000E+00 0.  1.
<mgrwt>
<rscale>  0 0.16380292E+04</rscale>
<asrwt>0</asrwt>
<pdfrwt beam="1">  1        2 0.60631593E-01 0.16380292E+04</pdfrwt>
<pdfrwt beam="2">  1       -2 0.26185302E+00 0.16380292E+04</pdfrwt>
<totfact> 0.42054824E+00</totfact>
</mgrwt>
</event>
<event>
12    1  0.4403484E-008  0.1232333E+04  0.7818608E-02  0.9085017E-01
          2   -1    0    0  501    0  0.00000000000E+00  0.00000000000E+00  0.13658858742E+04  0.13658858742E+04  0.00000000000E+00 0. -1.
         -2   -1    0    0    0  501 -0.00000000000E+00 -0.00000000000E+00 -0.27795943302E+03  0.27795943302E+03  0.00000000000E+00 0.  1.
         23    2    1    2    0    0  0.28756195972E+02  0.68311091297E+02 -0.10274300503E+03  0.15611484059E+03  0.91227158069E+02 0.  0.
        254    2    1    2    0    0 -0.28756195972E+02 -0.68311091297E+02  0.11906694462E+04  0.14877304666E+04  0.88890656830E+03 0.  0.
         23    2    4    4    0    0 -0.20521382574E+03 -0.34331350556E+03  0.23430494353E+03  0.47230553170E+03  0.90536353688E+02 0.  0.
         23    2    4    4    0    0  0.17645762977E+03  0.27500241426E+03  0.95636450265E+03  0.10154249349E+04  0.98443453432E+02 0.  0.
         11    1    3    3    0    0 -0.20668097602E+02  0.29975391122E+02 -0.68769138397E+00  0.36416579340E+02  0.00000000000E+00 0. -1.
        -11    1    3    3    0    0  0.49424293573E+02  0.38335700175E+02 -0.10205531365E+03  0.11969826125E+03  0.00000000000E+00 0.  1.
          1    1    5    5  502    0 -0.13549434139E+03 -0.29223541491E+03  0.16747800769E+03  0.36305528138E+03  0.00000000000E+00 0. -1.
          3    1    6    6  503    0  0.13730031890E+03  0.23972869952E+03  0.67814947980E+03  0.73226220980E+03  0.00000000000E+00 0. -1.
         -1    1    5    5    0  502 -0.69719484346E+02 -0.51078090652E+02  0.66826935843E+02  0.10925025033E+03  0.00000000000E+00 0.  1.
         -3    1    6    6    0  503  0.39157310871E+02  0.35273714747E+02  0.27821502285E+03  0.28316272510E+03  0.00000000000E+00 0.  1.
<mgrwt>
<rscale>  0 0.12323325E+04</rscale>
<asrwt>0</asrwt>
<pdfrwt beam="1">  1        2 0.21013628E+00 0.12323325E+04</pdfrwt>
<pdfrwt beam="2">  1       -2 0.42762990E-01 0.12323325E+04</pdfrwt>
<totfact> 0.77240457E+01</totfact>
</mgrwt>
</event>
<event>
12    1  0.4403484E-008  0.1263590E+04  0.7818608E-02  0.9058947E-01
          2   -1    0    0  501    0  0.00000000000E+00  0.00000000000E+00  0.12389141062E+04  0.12389141062E+04  0.00000000000E+00 0. -1.
         -2   -1    0    0    0  501 -0.00000000000E+00 -0.00000000000E+00 -0.32218954142E+03  0.32218954142E+03  0.00000000000E+00 0.  1.
         23    2    1    2    0    0  0.61098158790E+02  0.99968399916E+02 -0.12324701162E+03  0.19093674533E+03  0.86835182136E+02 0.  0.
        254    2    1    2    0    0 -0.61098158790E+02 -0.99968399916E+02  0.10399715764E+04  0.13701669023E+04  0.88435840837E+03 0.  0.
         23    2    4    4    0    0 -0.43457239761E+03 -0.14973716951E+03  0.37330739257E+03  0.59900775210E+03  0.90429469933E+02 0.  0.
         23    2    4    4    0    0  0.37347423882E+03  0.49768769594E+02  0.66666418385E+03  0.77115915022E+03  0.91023971810E+02 0.  0.
         13    1    3    3    0    0  0.32017171736E+02  0.39185024275E+02 -0.14766406158E+00  0.50602245188E+02  0.00000000000E+00 0. -1.
        -13    1    3    3    0    0  0.29080987054E+02  0.60783375641E+02 -0.12309934756E+03  0.14033450015E+03  0.00000000000E+00 0.  1.
          1    1    5    5  502    0 -0.37171608405E+03 -0.15214373247E+03  0.34716248980E+03  0.53088827148E+03  0.00000000000E+00 0. -1.
          3    1    6    6  503    0  0.34319116948E+03  0.37573478364E+02  0.64615885950E+03  0.73260713674E+03  0.00000000000E+00 0. -1.
         -1    1    5    5    0  502 -0.62856313558E+02  0.24065629568E+01  0.26144902778E+02  0.68119480626E+02  0.00000000000E+00 0.  1.
         -3    1    6    6    0  503  0.30283069336E+02  0.12195291231E+02  0.20505324353E+02  0.38552013481E+02  0.00000000000E+00 0.  1.
<mgrwt>
<rscale>  0 0.12635904E+04</rscale>
<asrwt>0</asrwt>
<pdfrwt beam="1">  1        2 0.19060217E+00 0.12635904E+04</pdfrwt>
<pdfrwt beam="2">  1       -2 0.49567622E-01 0.12635904E+04</pdfrwt>
<totfact> 0.67945962E+01</totfact>
</mgrwt>
</event>
<event>
12    1  0.6563005E-008  0.2282533E+04  0.7818608E-02  0.8484840E-01
          1   -1    0    0  501    0  0.00000000000E+00  0.00000000000E+00  0.18816621284E+04  0.18816621284E+04  0.00000000000E+00 0. -1.
         -1   -1    0    0    0  501 -0.00000000000E+00 -0.00000000000E+00 -0.69220153217E+03  0.69220153217E+03  0.00000000000E+00 0.  1.
         23    2    1    2    0    0 -0.47692953879E+03  0.12230397000E+03  0.14333371470E+04  0.15182283720E+04  0.90232845343E+02 0.  0.
        254    2    1    2    0    0  0.47692953879E+03 -0.12230397000E+03 -0.24387655077E+03  0.10556352886E+04  0.90137120239E+03 0.  0.
         23    2    4    4    0    0  0.21513464844E+03  0.72961446905E+02  0.31709411963E+03  0.40026076756E+03  0.89742474037E+02 0.  0.
         23    2    4    4    0    0  0.26179489035E+03 -0.19526541691E+03 -0.56097067040E+03  0.65537452106E+03  0.90346677611E+02 0.  0.
         11    1    3    3    0    0 -0.45065411693E+03  0.13626844411E+03  0.13482445953E+04  0.14280832296E+04  0.00000000000E+00 0. -1.
        -11    1    3    3    0    0 -0.26275421858E+02 -0.13964474109E+02  0.85092551743E+02  0.90145142371E+02  0.00000000000E+00 0.  1.
          1    1    5    5  502    0  0.20823366106E+03  0.62195654715E+02  0.32030867944E+03  0.38707519578E+03  0.00000000000E+00 0. -1.
          1    1    6    6  503    0  0.14714307424E+03 -0.16166277126E+03 -0.38369778982E+03  0.44159928648E+03  0.00000000000E+00 0. -1.
         -1    1    5    5    0  502  0.69009873803E+01  0.10765792191E+02 -0.32145598085E+01  0.13185571777E+02  0.00000000000E+00 0.  1.
         -1    1    6    6    0  503  0.11465181610E+03 -0.33602645652E+02 -0.17727288058E+03  0.21377523458E+03  0.00000000000E+00 0.  1.
<mgrwt>
<rscale>  0 0.22825332E+04</rscale>
<asrwt>0</asrwt>
<pdfrwt beam="1">  1        1 0.28948648E+00 0.22825332E+04</pdfrwt>
<pdfrwt beam="2">  1       -1 0.10649254E+00 0.22825332E+04</pdfrwt>
<totfact> 0.26731312E+00</totfact>
</mgrwt>
</event>
<event>
12    1  0.4403484E-008  0.1875934E+04  0.7818608E-02  0.8666929E-01
         -1   -1    0    0    0  501 -0.00000000000E+00  0.00000000000E+00  0.41924120555E+03  0.41924120555E+03  0.00000000000E+00 0.  1.
          1   -1    0    0  501    0  0.00000000000E+00 -0.00000000000E+00 -0.20985104795E+04  0.20985104795E+04  0.00000000000E+00 0. -1.
         23    2    1    2    0    0  0.22141217846E+03  0.66320766592E+03 -0.45792944291E+03  0.84064483378E+03  0.90092180369E+02 0.  0.
        254    2    1    2    0    0 -0.22141217846E+03 -0.66320766592E+03 -0.12213398310E+04  0.16771068512E+04  0.91222181885E+03 0.  0.
         23    2    4    4    0    0 -0.46513830764E+03 -0.63034198831E+03 -0.11655202113E+04  0.14073893497E+04  0.92858770837E+02 0.  0.
         23    2    4    4    0    0  0.24372612918E+03 -0.32865677616E+02 -0.55819619690E+02  0.26971750150E+03  0.95651042154E+02 0.  0.
         13    1    3    3    0    0  0.17748475258E+03  0.59354071175E+03 -0.42816659353E+03  0.75307240403E+03  0.00000000000E+00 0. -1.
        -13    1    3    3    0    0  0.43927425879E+02  0.69666954175E+02 -0.29762849386E+02  0.87572429748E+02  0.00000000000E+00 0.  1.
          1    1    5    5  502    0 -0.78827931291E+01 -0.29571990635E+01 -0.20069353666E+01  0.86551281552E+01  0.00000000000E+00 0. -1.
          3    1    6    6  503    0  0.78611769325E+01 -0.19029230418E+02  0.12096381321E+02  0.23879534211E+02  0.00000000000E+00 0. -1.
         -1    1    5    5    0  502 -0.45725551451E+03 -0.62738478925E+03 -0.11635132760E+04  0.13987342216E+04  0.00000000000E+00 0.  1.
         -3    1    6    6    0  503  0.23586495225E+03 -0.13836447198E+02 -0.67916001011E+02  0.24583796729E+03  0.00000000000E+00 0.  1.
<mgrwt>
<rscale>  0 0.18759340E+04</rscale>
<asrwt>0</asrwt>
<pdfrwt beam="1">  1        1 0.32284777E+00 0.18759340E+04</pdfrwt>
<pdfrwt beam="2">  1       -1 0.64498646E-01 0.18759340E+04</pdfrwt>
<totfact> 0.58380453E+00</totfact>
</mgrwt>
</event>
<event>
12    1  0.4403484E-008  0.1384680E+04  0.7818608E-02  0.8964984E-01
          2   -1    0    0  501    0  0.00000000000E+00  0.00000000000E+00  0.16209059733E+04  0.16209059733E+04  0.00000000000E+00 0.  1.
         -2   -1    0    0    0  501 -0.00000000000E+00 -0.00000000000E+00 -0.29572003471E+03  0.29572003471E+03  0.00000000000E+00 0. -1.
         23    2    1    2    0    0 -0.19601621467E+03  0.24697512435E+03  0.79048501060E+02  0.33725287488E+03  0.89843016633E+02 0.  0.
        254    2    1    2    0    0  0.19601621467E+03 -0.24697512435E+03  0.12461374375E+04  0.15793731331E+04  0.91768290381E+03 0.  0.
         23    2    4    4    0    0 -0.29942671915E+03 -0.30911928677E+03  0.74380326277E+03  0.86437727971E+03  0.93239982639E+02 0.  0.
         23    2    4    4    0    0  0.49544293382E+03  0.62144162426E+02  0.50233417471E+03  0.71499585337E+03  0.97743796019E+02 0.  0.
         13    1    3    3    0    0 -0.31468493238E+02  0.10606421105E+03  0.36307317596E+02  0.11643927277E+03  0.00000000000E+00 0.  1.
        -13    1    3    3    0    0 -0.16454772143E+03  0.14091091330E+03  0.42741183464E+02  0.22081360212E+03  0.00000000000E+00 0. -1.
          1    1    6    6  502    0  0.23089366763E+03  0.77625183274E+02  0.23041253255E+03  0.33530208765E+03  0.00000000000E+00 0. -1.
          1    1    5    5  503    0 -0.10255797336E+02 -0.23957885692E+01  0.13746536183E+01  0.10621245428E+02  0.00000000000E+00 0. -1.
         -1    1    5    5    0  503 -0.28917092182E+03 -0.30672349820E+03  0.74242860915E+03  0.85375603428E+03  0.00000000000E+00 0.  1.
         -1    1    6    6    0  502  0.26454926619E+03 -0.15481020848E+02  0.27192164216E+03  0.37969376572E+03  0.00000000000E+00 0.  1.
<mgrwt>
<rscale>  0 0.13846796E+04</rscale>
<asrwt>0</asrwt>
<pdfrwt beam="1">  1        2 0.24937014E+00 0.13846796E+04</pdfrwt>
<pdfrwt beam="2">  1       -2 0.45495391E-01 0.13846796E+04</pdfrwt>
<totfact> 0.48450177E+01</totfact>
</mgrwt>
</event>
<event>
12    1  0.4403484E-008  0.1284741E+04  0.7818608E-02  0.9041754E-01
          2   -1    0    0  501    0  0.00000000000E+00  0.00000000000E+00  0.15531418576E+04  0.15531418576E+04  0.00000000000E+00 0. -1.
         -2   -1    0    0    0  501 -0.00000000000E+00 -0.00000000000E+00 -0.26568061860E+03  0.26568061860E+03  0.00000000000E+00 0.  1.
         23    2    1    2    0    0 -0.13810916772E+03  0.13763663983E+03 -0.22253241172E+02  0.21920984661E+03  0.97671711754E+02 0.  0.
        254    2    1    2    0    0  0.13810916772E+03 -0.13763663983E+03  0.13097144802E+04  0.15996126296E+04  0.89743554551E+03 0.  0.
         23    2    4    4    0    0  0.14290123555E+03 -0.42255514825E+03  0.29476628126E+03  0.54150074224E+03  0.85803711117E+02 0.  0.
         23    2    4    4    0    0 -0.47920678366E+01  0.28491850842E+03  0.10149481990E+04  0.10581118874E+04  0.90991204627E+02 0.  0.
         13    1    3    3    0    0 -0.22321837963E+02  0.80687144927E+01 -0.37923607564E+02  0.44738893753E+02  0.00000000000E+00 0. -1.
        -13    1    3    3    0    0 -0.11578732976E+03  0.12956792534E+03  0.15670366392E+02  0.17447095286E+03  0.00000000000E+00 0.  1.
          4    1    5    5  502    0  0.11894299667E+02 -0.10338164816E+03  0.10460584743E+03  0.14755210218E+03  0.00000000000E+00 0. -1.
          4    1    6    6  503    0  0.22954460884E+02  0.18187831718E+03  0.50829188927E+03  0.54033996172E+03  0.00000000000E+00 0. -1.
         -4    1    5    5    0  502  0.13100693589E+03 -0.31917350009E+03  0.19016043383E+03  0.39394864006E+03  0.00000000000E+00 0.  1.
         -4    1    6    6    0  503 -0.27746528720E+02  0.10304019123E+03  0.50665630969E+03  0.51777192567E+03  0.00000000000E+00 0.  1.
<mgrwt>
<rscale>  0 0.12847407E+04</rscale>
<asrwt>0</asrwt>
<pdfrwt beam="1">  1        2 0.23894490E+00 0.12847407E+04</pdfrwt>
<pdfrwt beam="2">  1       -2 0.40873942E-01 0.12847407E+04</pdfrwt>
<totfact> 0.65870875E+01</totfact>
</mgrwt>
</event>
<event>
12    1  0.4407187E-008  0.1683547E+04  0.7818608E-02  0.8770804E-01
          2   -1    0    0  501    0  0.00000000000E+00  0.00000000000E+00  0.21336029347E+04  0.21336029347E+04  0.00000000000E+00 0. -1.
         -2   -1    0    0    0  501 -0.00000000000E+00 -0.00000000000E+00 -0.33210605842E+03  0.33210605842E+03  0.00000000000E+00 0.  1.
         23    2    1    2    0    0  0.33479629402E+02 -0.41917314778E+03  0.12732273229E+04  0.13439450767E+04  0.90848996767E+02 0.  0.
        254    2    1    2    0    0 -0.33479629402E+02  0.41917314778E+03  0.52826955346E+03  0.11217639164E+04  0.89580050773E+03 0.  0.
         23    2    4    4    0    0 -0.23084337018E+03  0.10585269748E+03 -0.17672115705E+03  0.32006172093E+03  0.81949269278E+02 0.  0.
         23    2    4    4    0    0  0.19736374078E+03  0.31332045029E+03  0.70499071051E+03  0.80170219548E+03  0.92694970650E+02 0.  0.
         11    1    3    3    0    0  0.46596449433E+02 -0.15672366520E+03  0.57921639795E+03  0.60185145342E+03  0.00000000000E+00 0.  1.
        -11    1    3    3    0    0 -0.13116820031E+02 -0.26244948258E+03  0.69401092491E+03  0.74209362331E+03  0.00000000000E+00 0. -1.
          3    1    6    6  502    0  0.16792148553E+03  0.30926030311E+03  0.65476646513E+03  0.74334291161E+03  0.00000000000E+00 0. -1.
          3    1    5    5  503    0 -0.14989114568E+03  0.71642895746E+02 -0.15990101201E+03  0.23058272638E+03  0.00000000000E+00 0. -1.
         -3    1    5    5    0  503 -0.80952224505E+02  0.34209801738E+02 -0.16820145045E+02  0.89478994556E+02  0.00000000000E+00 0.  1.
         -3    1    6    6    0  502  0.29442255256E+02  0.40601471799E+01  0.50224245379E+02  0.58359283868E+02  0.00000000000E+00 0.  1.
<mgrwt>
<rscale>  0 0.16835468E+04</rscale>
<asrwt>0</asrwt>
<pdfrwt beam="1">  1        2 0.32824660E+00 0.16835468E+04</pdfrwt>
<pdfrwt beam="2">  1       -2 0.51093241E-01 0.16835468E+04</pdfrwt>
<totfact> 0.19416236E+01</totfact>
</mgrwt>
</event>
<event>
12    1  0.4403484E-008  0.1351158E+04  0.7818608E-02  0.8989952E-01
          1   -1    0    0  501    0  0.00000000000E+00  0.00000000000E+00  0.21506564552E+04  0.21506564552E+04  0.00000000000E+00 0. -1.
         -1   -1    0    0    0  501 -0.00000000000E+00 -0.00000000000E+00 -0.21221761030E+03  0.21221761030E+03  0.00000000000E+00 0.  1.
         23    2    1    2    0    0  0.22105879338E+03 -0.30553918634E+03  0.54829118623E+03  0.67166209709E+03  0.91025069353E+02 0.  0.
        254    2    1    2    0    0 -0.22105879338E+03  0.30553918634E+03  0.13901476586E+04  0.16912119684E+04  0.88626532405E+03 0.  0.
         23    2    4    4    0    0  0.23903567668E+03 -0.10972366893E+03  0.18751642568E+03  0.33537436979E+03  0.90200996479E+02 0.  0.
         23    2    4    4    0    0 -0.46009447006E+03  0.41526285527E+03  0.12026312329E+04  0.13558375986E+04  0.88563823829E+02 0.  0.
         13    1    3    3    0    0  0.16166893239E+03 -0.19703307991E+03  0.43369602752E+03  0.50304186959E+03  0.00000000000E+00 0. -1.
        -13    1    3    3    0    0  0.59389860988E+02 -0.10850610643E+03  0.11459515871E+03  0.16862022750E+03  0.00000000000E+00 0.  1.
          1    1    5    5  502    0  0.12561349784E+03 -0.95836591754E+02  0.74589843059E+02  0.17471991257E+03  0.00000000000E+00 0.  1.
          1    1    6    6  503    0 -0.13011842192E+03  0.13171781545E+03  0.27866768268E+03  0.33456847431E+03  0.00000000000E+00 0. -1.
         -1    1    5    5    0  502  0.11342217883E+03 -0.13887077171E+02  0.11292658262E+03  0.16065445722E+03  0.00000000000E+00 0. -1.
         -1    1    6    6    0  503 -0.32997604814E+03  0.28354503982E+03  0.92396355026E+03  0.10212691243E+04  0.00000000000E+00 0.  1.
<mgrwt>
<rscale>  0 0.13511583E+04</rscale>
<asrwt>0</asrwt>
<pdfrwt beam="1">  1        1 0.33087021E+00 0.13511583E+04</pdfrwt>
<pdfrwt beam="2">  1       -1 0.32648865E-01 0.13511583E+04</pdfrwt>
<totfact> 0.20279091E+01</totfact>
</mgrwt>
</event>
<event>
12    1  0.4403484E-008  0.1240775E+04  0.7818608E-02  0.9077896E-01
          1   -1    0    0  501    0  0.00000000000E+00  0.00000000000E+00  0.12377433851E+04  0.12377433851E+04  0.00000000000E+00 0. -1.
         -1   -1    0    0    0  501 -0.00000000000E+00 -0.00000000000E+00 -0.31095355449E+03  0.31095355449E+03  0.00000000000E+00 0.  1.
         23    2    1    2    0    0  0.25676252720E+03  0.11691996858E+03  0.25322057997E+03  0.38701814874E+03  0.77878821930E+02 0.  0.
        254    2    1    2    0    0 -0.25676252720E+03 -0.11691996858E+03  0.67356925062E+03  0.11616787908E+04  0.90344053665E+03 0.  0.
         23    2    4    4    0    0  0.24080013671E+03  0.15873308113E+03  0.39908313288E+02  0.30519226439E+03  0.91480860795E+02 0.  0.
         23    2    4    4    0    0 -0.49756266391E+03 -0.27565304971E+03  0.63366093734E+03  0.85648652644E+03  0.92139992119E+02 0.  0.
         13    1    3    3    0    0  0.22562651912E+03  0.70930887736E+02  0.21470509655E+03  0.31943198877E+03  0.00000000000E+00 0. -1.
        -13    1    3    3    0    0  0.31136008076E+02  0.45989080842E+02  0.38515483421E+02  0.67586159964E+02  0.00000000000E+00 0.  1.
          1    1    5    5  502    0  0.58887981541E+02  0.62284811680E+02  0.49661023950E+02  0.99062654092E+02  0.00000000000E+00 0. -1.
          3    1    6    6  503    0 -0.23517929541E+03 -0.10910050726E+03  0.22641516626E+03  0.34420349967E+03  0.00000000000E+00 0. -1.
         -1    1    5    5    0  502  0.18191215516E+03  0.96448269449E+02 -0.97527106617E+01  0.20612961030E+03  0.00000000000E+00 0.  1.
         -3    1    6    6    0  503 -0.26238336850E+03 -0.16655254245E+03  0.40724577108E+03  0.51228302678E+03  0.00000000000E+00 0.  1.
<mgrwt>
<rscale>  0 0.12407751E+04</rscale>
<asrwt>0</asrwt>
<pdfrwt beam="1">  1        1 0.19042206E+00 0.12407751E+04</pdfrwt>
<pdfrwt beam="2">  1       -1 0.47839009E-01 0.12407751E+04</pdfrwt>
<totfact> 0.43191804E+01</totfact>
</mgrwt>
</event>
<event>
12    1  0.4403484E-008  0.2217526E+04  0.7818608E-02  0.8511169E-01
         -2   -1    0    0    0  501 -0.00000000000E+00  0.00000000000E+00  0.16931488671E+04  0.16931488671E+04  0.00000000000E+00 0.  1.
          2   -1    0    0  501    0  0.00000000000E+00 -0.00000000000E+00 -0.72607612390E+03  0.72607612390E+03  0.00000000000E+00 0. -1.
         23    2    1    2    0    0 -0.54330152108E+03  0.60496124301E+03  0.88255600072E+03  0.12036128875E+04  0.92866787799E+02 0.  0.
        254    2    1    2    0    0  0.54330152108E+03 -0.60496124301E+03  0.84516742465E+02  0.12156121035E+04  0.89967497352E+03 0.  0.
         23    2    4    4    0    0  0.53635536735E+03 -0.78235175404E+03  0.21590280474E+03  0.97739021075E+03  0.94478864554E+02 0.  0.
         23    2    4    4    0    0  0.69461537266E+01  0.17739051103E+03 -0.13138606228E+03  0.23822189271E+03  0.89284547094E+02 0.  0.
         11    1    3    3    0    0 -0.59508518733E+02  0.86982212367E+02  0.15894262093E+03  0.19070900822E+03  0.00000000000E+00 0. -1.
        -11    1    3    3    0    0 -0.48379300235E+03  0.51797903064E+03  0.72361337979E+03  0.10129038793E+04  0.00000000000E+00 0.  1.
          4    1    5    5  502    0  0.13026252801E+03 -0.24177048088E+03  0.94654154348E+02  0.29048356332E+03  0.00000000000E+00 0. -1.
          3    1    6    6  503    0  0.35264052987E+01 -0.99000752762E+01 -0.12619614733E+02  0.16422597262E+02  0.00000000000E+00 0. -1.
         -4    1    5    5    0  502  0.40609283935E+03 -0.54058127316E+03  0.12124865039E+03  0.68690664743E+03  0.00000000000E+00 0.  1.
         -3    1    6    6    0  503  0.34197484279E+01  0.18729058631E+03 -0.11876644754E+03  0.22179929545E+03  0.00000000000E+00 0.  1.
<mgrwt>
<rscale>  0 0.22175256E+04</rscale>
<asrwt>0</asrwt>
<pdfrwt beam="1">  1        2 0.11170402E+00 0.22175256E+04</pdfrwt>
<pdfrwt beam="2">  1       -2 0.26048444E+00 0.22175256E+04</pdfrwt>
<totfact> 0.19775935E+00</totfact>
</mgrwt>
</event>
<event>
12    1  0.4403484E-008  0.1882941E+04  0.7818608E-02  0.8663394E-01
         -1   -1    0    0    0  501 -0.00000000000E+00  0.00000000000E+00  0.10906532387E+04  0.10906532387E+04  0.00000000000E+00 0.  1.
          1   -1    0    0  501    0  0.00000000000E+00 -0.00000000000E+00 -0.81269369205E+03  0.81269369205E+03  0.00000000000E+00 0. -1.
         23    2    1    2    0    0  0.29759339949E+03 -0.64430842954E+03  0.89189844730E+02  0.72128307270E+03  0.92732188399E+02 0.  0.
        254    2    1    2    0    0 -0.29759339949E+03  0.64430842954E+03  0.18876970195E+03  0.11820638581E+04  0.92625362640E+03 0.  0.
         23    2    4    4    0    0 -0.14009909153E+03  0.81113355305E+03 -0.61687119370E+02  0.83069926525E+03  0.93223238915E+02 0.  0.
         23    2    4    4    0    0 -0.15749430796E+03 -0.16682512351E+03  0.25045682132E+03  0.35136459283E+03  0.89963208431E+02 0.  0.
         13    1    3    3    0    0  0.20839550849E+03 -0.38407441812E+03  0.19040563654E+02  0.43738357272E+03  0.00000000000E+00 0.  1.
        -13    1    3    3    0    0  0.89197890994E+02 -0.26023401141E+03  0.70149281077E+02  0.28389949998E+03  0.00000000000E+00 0. -1.
          2    1    5    5  502    0 -0.18366141377E+01  0.26544740782E+03 -0.16931023964E+02  0.26599315601E+03  0.00000000000E+00 0. -1.
          1    1    6    6  503    0 -0.46649006544E+01  0.63587356060E+01 -0.30120011684E+01  0.84419765257E+01  0.00000000000E+00 0. -1.
         -2    1    5    5    0  502 -0.13826247739E+03  0.54568614523E+03 -0.44756095406E+02  0.56470610925E+03  0.00000000000E+00 0.  1.
         -1    1    6    6    0  503 -0.15282940731E+03 -0.17318385911E+03  0.25346882249E+03  0.34292261630E+03  0.00000000000E+00 0.  1.
<mgrwt>
<rscale>  0 0.18829413E+04</rscale>
<asrwt>0</asrwt>
<pdfrwt beam="1">  1        1 0.12502980E+00 0.18829413E+04</pdfrwt>
<pdfrwt beam="2">  1       -1 0.16779281E+00 0.18829413E+04</pdfrwt>
<totfact> 0.51594949E+00</totfact>
</mgrwt>
</event>
<event>
12    1  0.4403484E-008  0.1168992E+04  0.7818608E-02  0.9140439E-01
          2   -1    0    0  501    0  0.00000000000E+00  0.00000000000E+00  0.33492330662E+04  0.33492330662E+04  0.00000000000E+00 0. -1.
         -2   -1    0    0    0  501 -0.00000000000E+00 -0.00000000000E+00 -0.10200408498E+03  0.10200408498E+03  0.00000000000E+00 0.  1.
         23    2    1    2    0    0  0.14467470382E+03  0.32314392381E+02  0.14261918587E+04  0.14367805978E+04  0.91325124788E+02 0.  0.
        254    2    1    2    0    0 -0.14467470382E+03 -0.32314392381E+02  0.18210371225E+04  0.20144565533E+04  0.84845978931E+03 0.  0.
         23    2    4    4    0    0 -0.20108129504E+03 -0.41136476625E+03  0.10498939015E+04  0.11483889690E+04  0.82857476945E+02 0.  0.
         23    2    4    4    0    0  0.56406591222E+02  0.37905037387E+03  0.77114322095E+03  0.86606758438E+03  0.92467854089E+02 0.  0.
         11    1    3    3    0    0  0.14715816178E+02 -0.14569871958E+02  0.57165945592E+02  0.60801165697E+02  0.00000000000E+00 0.  1.
        -11    1    3    3    0    0  0.12995888764E+03  0.46884264339E+02  0.13690259131E+04  0.13759794321E+04  0.00000000000E+00 0. -1.
          2    1    5    5  502    0 -0.15027970324E+03 -0.27098734458E+03  0.79112235857E+03  0.84964269923E+03  0.00000000000E+00 0. -1.
          1    1    6    6  503    0  0.76776836810E+02  0.21728381029E+03  0.42544502485E+03  0.48384956965E+03  0.00000000000E+00 0. -1.
         -2    1    5    5    0  502 -0.50801591807E+02 -0.14037742167E+03  0.25877154294E+03  0.29874626973E+03  0.00000000000E+00 0.  1.
         -1    1    6    6    0  503 -0.20370245588E+02  0.16176656358E+03  0.34569819610E+03  0.38221801473E+03  0.00000000000E+00 0.  1.
<mgrwt>
<rscale>  0 0.11689918E+04</rscale>
<asrwt>0</asrwt>
<pdfrwt beam="1">  1        2 0.51526654E+00 0.11689918E+04</pdfrwt>
<pdfrwt beam="2">  1       -2 0.15692939E-01 0.11689918E+04</pdfrwt>
<totfact> 0.33983063E+01</totfact>
</mgrwt>
</event>
<event>
12    1  0.4403484E-008  0.2032485E+04  0.7818608E-02  0.8591582E-01
         -2   -1    0    0    0  501 -0.00000000000E+00  0.00000000000E+00  0.12192661439E+04  0.12192661439E+04  0.00000000000E+00 0. -1.
          2   -1    0    0  501    0  0.00000000000E+00 -0.00000000000E+00 -0.84702519621E+03  0.84702519621E+03  0.00000000000E+00 0.  1.
         23    2    1    2    0    0  0.43406940443E+03  0.42742895240E+03  0.68793213814E+03  0.92317293877E+03  0.88802539230E+02 0.  0.
        254    2    1    2    0    0 -0.43406940443E+03 -0.42742895240E+03 -0.31569119048E+03  0.11431184013E+04  0.91430136960E+03 0.  0.
         23    2    4    4    0    0 -0.57821952213E+03 -0.55689330901E+03 -0.41563969420E+03  0.90850137373E+03  0.90279661488E+02 0.  0.
         23    2    4    4    0    0  0.14415011770E+03  0.12946435661E+03  0.99948503717E+02  0.23461702758E+03  0.86690081147E+02 0.  0.
         13    1    3    3    0    0  0.25606258717E+03  0.25913516384E+03  0.47484599728E+03  0.59849628472E+03  0.00000000000E+00 0. -1.
        -13    1    3    3    0    0  0.17800681726E+03  0.16829378856E+03  0.21308614086E+03  0.32467665405E+03  0.00000000000E+00 0.  1.
          2    1    5    5  502    0 -0.28066491838E+03 -0.21158742794E+03 -0.19745186452E+03  0.40314919679E+03  0.00000000000E+00 0. -1.
          1    1    6    6  503    0  0.74507483848E+02  0.12813647373E+02  0.26065996672E+02  0.79968686940E+02  0.00000000000E+00 0. -1.
         -2    1    5    5    0  502 -0.29755460376E+03 -0.34530588107E+03 -0.21818782969E+03  0.50535217694E+03  0.00000000000E+00 0.  1.
         -1    1    6    6    0  503  0.69642633854E+02  0.11665070924E+03  0.73882507045E+02  0.15464834064E+03  0.00000000000E+00 0.  1.
<mgrwt>
<rscale>  0 0.20324853E+04</rscale>
<asrwt>0</asrwt>
<pdfrwt beam="1">  1        2 0.13031157E+00 0.20324853E+04</pdfrwt>
<pdfrwt beam="2">  1       -2 0.18757941E+00 0.20324853E+04</pdfrwt>
<totfact> 0.47536213E+00</totfact>
</mgrwt>
</event>
<event>
12    1  0.4403484E-008  0.1907205E+04  0.7818608E-02  0.8651279E-01
          2   -1    0    0  501    0  0.00000000000E+00  0.00000000000E+00  0.15670381373E+04  0.15670381373E+04  0.00000000000E+00 0.  1.
         -2   -1    0    0    0  501 -0.00000000000E+00 -0.00000000000E+00 -0.58030321736E+03  0.58030321736E+03  0.00000000000E+00 0. -1.
         23    2    1    2    0    0  0.52501470153E+03 -0.51266790483E+03  0.34385392248E+03  0.81530380152E+03  0.89531845193E+02 0.  0.
        254    2    1    2    0    0 -0.52501470153E+03  0.51266790483E+03  0.64288099746E+03  0.13320375531E+04  0.90695052159E+03 0.  0.
         23    2    4    4    0    0  0.14395022382E+03  0.19483264805E+03  0.51210734392E+03  0.57444869618E+03  0.95162729911E+02 0.  0.
         23    2    4    4    0    0 -0.66896492535E+03  0.31783525678E+03  0.13077365354E+03  0.75758885696E+03  0.91136194368E+02 0.  0.
         11    1    3    3    0    0  0.18415535101E+03 -0.16226902115E+03  0.71191366866E+02  0.25556337619E+03  0.00000000000E+00 0. -1.
        -11    1    3    3    0    0  0.34085935052E+03 -0.35039888368E+03  0.27266255562E+03  0.55974042533E+03  0.00000000000E+00 0.  1.
          2    1    5    5  502    0  0.10316168580E+03  0.66490623483E+02  0.28688638638E+03  0.31203707331E+03  0.00000000000E+00 0. -1.
          4    1    6    6  503    0 -0.41246798623E+03  0.15911674693E+03  0.47294132617E+02  0.44461749155E+03  0.00000000000E+00 0. -1.
         -2    1    5    5    0  502  0.40788538020E+02  0.12834202457E+03  0.22522095754E+03  0.26241162287E+03  0.00000000000E+00 0.  1.
         -4    1    6    6    0  503 -0.25649693912E+03  0.15871850985E+03  0.83479520925E+02  0.31297136540E+03  0.00000000000E+00 0.  1.
<mgrwt>
<rscale>  0 0.19072045E+04</rscale>
<asrwt>0</asrwt>
<pdfrwt beam="1">  1        2 0.24108279E+00 0.19072045E+04</pdfrwt>
<pdfrwt beam="2">  1       -2 0.89277419E-01 0.19072045E+04</pdfrwt>
<totfact> 0.11727469E+01</totfact>
</mgrwt>
</event>
<event>
12    1  0.4403484E-008  0.2171863E+04  0.7818608E-02  0.8530232E-01
         -2   -1    0    0    0  501 -0.00000000000E+00  0.00000000000E+00  0.41566655353E+03  0.41566655353E+03  0.00000000000E+00 0. -1.
          2   -1    0    0  501    0  0.00000000000E+00 -0.00000000000E+00 -0.28370017806E+04  0.28370017806E+04  0.00000000000E+00 0.  1.
         23    2    1    2    0    0 -0.39430701198E+03 -0.75951221433E+03 -0.14069856311E+04  0.16502091575E+04  0.10604185054E+03 0.  0.
        254    2    1    2    0    0  0.39430701198E+03  0.75951221433E+03 -0.10143495960E+04  0.16024591766E+04  0.89812776730E+03 0.  0.
         23    2    4    4    0    0  0.34144808626E+03  0.56598117174E+02 -0.77283384043E+03  0.85173478323E+03  0.91596143843E+02 0.  0.
         23    2    4    4    0    0  0.52858925717E+02  0.70291409715E+03 -0.24151575555E+03  0.75072439337E+03  0.91514810927E+02 0.  0.
         11    1    3    3    0    0 -0.31296263487E+03 -0.66353708275E+03 -0.11500807309E+04  0.13641527622E+04  0.00000000000E+00 0.  1.
        -11    1    3    3    0    0 -0.81344377104E+02 -0.95975131580E+02 -0.25690490016E+03  0.28605639530E+03  0.00000000000E+00 0. -1.
          2    1    5    5  502    0  0.27114917355E+03  0.65594710602E+01 -0.56638578897E+03  0.62797911026E+03  0.00000000000E+00 0.  1.
          1    1    6    6  503    0 -0.21318748811E+01  0.48920122234E+03 -0.14850473060E+03  0.51124948493E+03  0.00000000000E+00 0.  1.
         -2    1    5    5    0  502  0.70298912716E+02  0.50038646113E+02 -0.20644805146E+03  0.22375567296E+03  0.00000000000E+00 0. -1.
         -1    1    6    6    0  503  0.54990800598E+02  0.21371287482E+03 -0.93011024949E+02  0.23947490844E+03  0.00000000000E+00 0. -1.
<mgrwt>
<rscale>  0 0.21718626E+04</rscale>
<asrwt>0</asrwt>
<pdfrwt beam="1">  1        2 0.43646180E+00 0.21718626E+04</pdfrwt>
<pdfrwt beam="2">  1       -2 0.63948703E-01 0.21718626E+04</pdfrwt>
<totfact> 0.45523110E+00</totfact>
</mgrwt>
</event>
<event>
12    1  0.4403484E-008  0.1496958E+04  0.7818608E-02  0.8886479E-01
          2   -1    0    0  501    0  0.00000000000E+00  0.00000000000E+00  0.16818785221E+04  0.16818785221E+04  0.00000000000E+00 0. -1.
         -2   -1    0    0    0  501 -0.00000000000E+00 -0.00000000000E+00 -0.33309220579E+03  0.33309220579E+03  0.00000000000E+00 0.  1.
         23    2    1    2    0    0  0.84410401950E+02  0.17889732438E+03 -0.14326430839E+03  0.25993362616E+03  0.88946384543E+02 0.  0.
        254    2    1    2    0    0 -0.84410401950E+02 -0.17889732438E+03  0.14920506247E+04  0.17550371017E+04  0.90266870621E+03 0.  0.
         23    2    4    4    0    0  0.25392479537E+03 -0.32201232886E+03  0.12157063037E+04  0.12863519658E+04  0.92681289595E+02 0.  0.
         23    2    4    4    0    0 -0.33833519732E+03  0.14311500448E+03  0.27634432100E+03  0.46868513593E+03  0.91361713179E+02 0.  0.
         11    1    3    3    0    0  0.78950197924E+02  0.18931845088E+03 -0.13517750558E+03  0.24565741920E+03  0.00000000000E+00 0.  1.
        -11    1    3    3    0    0  0.54602040256E+01 -0.10421126496E+02 -0.80868028071E+01  0.14276206957E+02  0.00000000000E+00 0. -1.
          1    1    5    5  502    0  0.19923007758E+03 -0.19404466273E+03  0.73306261783E+03  0.78404512409E+03  0.00000000000E+00 0. -1.
          3    1    6    6  503    0 -0.31819499744E+03  0.14563307689E+03  0.23183743640E+03  0.41976856290E+03  0.00000000000E+00 0. -1.
         -1    1    5    5    0  502  0.54694717791E+02 -0.12796766613E+03  0.48264368585E+03  0.50230684170E+03  0.00000000000E+00 0.  1.
         -3    1    6    6    0  503 -0.20140199880E+02 -0.25180724109E+01  0.44506884601E+02  0.48916573028E+02  0.00000000000E+00 0.  1.
<mgrwt>
<rscale>  0 0.14969578E+04</rscale>
<asrwt>0</asrwt>
<pdfrwt beam="1">  1        2 0.25875054E+00 0.14969578E+04</pdfrwt>
<pdfrwt beam="2">  1       -2 0.51244956E-01 0.14969578E+04</pdfrwt>
<totfact> 0.34900573E+01</totfact>
</mgrwt>
</event>
<event>
12    1  0.4403484E-008  0.1281910E+04  0.7818608E-02  0.9044035E-01
          1   -1    0    0  501    0  0.00000000000E+00  0.00000000000E+00  0.41902840889E+04  0.41902840889E+04  0.00000000000E+00 0. -1.
         -1   -1    0    0    0  501 -0.00000000000E+00 -0.00000000000E+00 -0.98041801285E+02  0.98041801285E+02  0.00000000000E+00 0.  1.
         23    2    1    2    0    0 -0.10484624109E+03  0.28010813916E+03  0.97691510746E+03  0.10256811265E+04  0.90583343888E+02 0.  0.
        254    2    1    2    0    0  0.10484624109E+03 -0.28010813916E+03  0.31153271802E+04  0.32626447637E+04  0.92202717458E+03 0.  0.
         23    2    4    4    0    0  0.37972092912E+03  0.35554185389E+02  0.23757576378E+04  0.24079022429E+04  0.91196346764E+02 0.  0.
         23    2    4    4    0    0 -0.27487468802E+03 -0.31566232455E+03  0.73956954233E+03  0.85474252076E+03  0.91776203866E+02 0.  0.
         13    1    3    3    0    0 -0.11069097227E+03  0.26986144220E+03  0.85886052758E+03  0.90703864039E+03  0.00000000000E+00 0. -1.
        -13    1    3    3    0    0  0.58447311722E+01  0.10246696967E+02  0.11805457988E+03  0.11864248611E+03  0.00000000000E+00 0.  1.
          4    1    6    6  502    0 -0.96291150819E+02 -0.11634143133E+03  0.18372885793E+03  0.23783104845E+03  0.00000000000E+00 0. -1.
          4    1    5    5  503    0  0.17093638809E+03  0.22160754407E+02  0.80305987164E+03  0.82134980687E+03  0.00000000000E+00 0.  1.
         -4    1    5    5    0  503  0.20878454103E+03  0.13393430982E+02  0.15726977662E+04  0.15865524361E+04  0.00000000000E+00 0. -1.
         -4    1    6    6    0  502 -0.17858353721E+03 -0.19932089322E+03  0.55584068440E+03  0.61691147231E+03  0.00000000000E+00 0.  1.
<mgrwt>
<rscale>  0 0.12819095E+04</rscale>
<asrwt>0</asrwt>
<pdfrwt beam="1">  1        1 0.64465895E+00 0.12819095E+04</pdfrwt>
<pdfrwt beam="2">  1       -1 0.15083357E-01 0.12819095E+04</pdfrwt>
<totfact> 0.21438293E+00</totfact>
</mgrwt>
</event>
<event>
12    1  0.4403484E-008  0.2090198E+04  0.7818608E-02  0.8565573E-01
          2   -1    0    0  501    0  0.00000000000E+00  0.00000000000E+00  0.10421964330E+04  0.10421964330E+04  0.00000000000E+00 0. -1.
         -2   -1    0    0    0  501 -0.00000000000E+00 -0.00000000000E+00 -0.10480101044E+04  0.10480101044E+04  0.00000000000E+00 0.  1.
         23    2    1    2    0    0 -0.58694978139E+03  0.37742023010E+03 -0.47854511620E+03  0.84953055281E+03  0.75767116598E+02 0.  0.
        254    2    1    2    0    0  0.58694978139E+03 -0.37742023010E+03  0.47273144474E+03  0.12406759846E+04  0.91040969020E+03 0.  0.
         23    2    4    4    0    0  0.44914554859E+02 -0.29665920279E+03  0.59298973984E+03  0.67081915052E+03  0.91309919046E+02 0.  0.
         23    2    4    4    0    0  0.54203522653E+03 -0.80761027305E+02 -0.12025829510E+03  0.56985683410E+03  0.99750807008E+02 0.  0.
         11    1    3    3    0    0 -0.29529262600E+02  0.97686433167E+01 -0.39926385621E+02  0.50611461258E+02  0.00000000000E+00 0. -1.
        -11    1    3    3    0    0 -0.55742051879E+03  0.36765158678E+03 -0.43861873058E+03  0.79891909155E+03  0.00000000000E+00 0.  1.
          4    1    5    5  502    0  0.22174540497E+01 -0.17136539996E+03  0.41507893548E+03  0.44906741151E+03  0.00000000000E+00 0. -1.
          1    1    6    6  503    0  0.22405240378E+03 -0.82995381283E+02 -0.56996119541E+02  0.24563442470E+03  0.00000000000E+00 0. -1.
         -4    1    5    5    0  502  0.42697100809E+02 -0.12529380284E+03  0.17791080436E+03  0.22175173901E+03  0.00000000000E+00 0.  1.
         -1    1    6    6    0  503  0.31798282275E+03  0.22343539780E+01 -0.63262175557E+02  0.32422240940E+03  0.00000000000E+00 0.  1.
<mgrwt>
<rscale>  0 0.20901985E+04</rscale>
<asrwt>0</asrwt>
<pdfrwt beam="1">  1        2 0.16033791E+00 0.20901985E+04</pdfrwt>
<pdfrwt beam="2">  1       -2 0.16123232E+00 0.20901985E+04</pdfrwt>
<totfact> 0.53855998E+00</totfact>
</mgrwt>
</event>
<event>
12    1  0.4403484E-008  0.1418088E+04  0.7818608E-02  0.8940829E-01
         -2   -1    0    0    0  501 -0.00000000000E+00  0.00000000000E+00  0.21925341785E+03  0.21925341785E+03  0.00000000000E+00 0.  1.
          2   -1    0    0  501    0  0.00000000000E+00 -0.00000000000E+00 -0.22929777618E+04  0.22929777618E+04  0.00000000000E+00 0. -1.
         23    2    1    2    0    0 -0.28939148400E+03  0.13500883045E+03 -0.13473949806E+03  0.35875267113E+03  0.92595525796E+02 0.  0.
        254    2    1    2    0    0  0.28939148400E+03 -0.13500883045E+03 -0.19389848459E+04  0.21534785085E+04  0.88081362318E+03 0.  0.
         23    2    4    4    0    0  0.99378886813E+02  0.33554682286E+03 -0.11895533876E+04  0.12434376178E+04  0.92908632840E+02 0.  0.
         23    2    4    4    0    0  0.19001259718E+03 -0.47055565331E+03 -0.74943145835E+03  0.91004089073E+03  0.94865705569E+02 0.  0.
         13    1    3    3    0    0 -0.20033777058E+03  0.12203995471E+03 -0.60939172280E+02  0.24236863573E+03  0.00000000000E+00 0.  1.
        -13    1    3    3    0    0 -0.89053713419E+02  0.12968875737E+02 -0.73800325783E+02  0.11638403541E+03  0.00000000000E+00 0. -1.
          2    1    6    6  502    0  0.16835422797E+03 -0.36828638094E+03 -0.53010223706E+03  0.66707299915E+03  0.00000000000E+00 0. -1.
          2    1    5    5  503    0 -0.55913354966E+01  0.59400484966E+02 -0.30724085700E+03  0.31298023077E+03  0.00000000000E+00 0. -1.
         -2    1    5    5    0  503  0.10497022231E+03  0.27614633789E+03 -0.88231253056E+03  0.93045738704E+03  0.00000000000E+00 0.  1.
         -2    1    6    6    0  502  0.21658369209E+02 -0.10226927237E+03 -0.21932922129E+03  0.24296789158E+03  0.00000000000E+00 0.  1.
<mgrwt>
<rscale>  0 0.14180877E+04</rscale>
<asrwt>0</asrwt>
<pdfrwt beam="1">  1        2 0.35276584E+00 0.14180877E+04</pdfrwt>
<pdfrwt beam="2">  1       -2 0.33731292E-01 0.14180877E+04</pdfrwt>
<totfact> 0.36633485E+01</totfact>
</mgrwt>
</event>
<event>
12    1  0.4403484E-008  0.1346448E+04  0.7818608E-02  0.8993521E-01
         -2   -1    0    0    0  501 -0.00000000000E+00  0.00000000000E+00  0.25261869896E+03  0.25261869896E+03  0.00000000000E+00 0.  1.
          2   -1    0    0  501    0  0.00000000000E+00 -0.00000000000E+00 -0.17941287517E+04  0.17941287517E+04  0.00000000000E+00 0. -1.
         23    2    1    2    0    0  0.21582002816E+03 -0.10113824552E+03 -0.95085739948E+03  0.98480091462E+03  0.94317644264E+02 0.  0.
        254    2    1    2    0    0 -0.21582002816E+03  0.10113824552E+03 -0.59065265321E+03  0.10619465360E+04  0.84973681767E+03 0.  0.
         23    2    4    4    0    0  0.31481121408E+03 -0.21169717383E+02 -0.24924895859E+03  0.41285201955E+03  0.93634871955E+02 0.  0.
         23    2    4    4    0    0 -0.53063124224E+03  0.12230796291E+03 -0.34140369462E+03  0.64909451645E+03  0.90765938221E+02 0.  0.
         13    1    3    3    0    0  0.13226263839E+03 -0.30536818046E+02 -0.66532566796E+03  0.67903177187E+03  0.00000000000E+00 0. -1.
        -13    1    3    3    0    0  0.83557389777E+02 -0.70601427477E+02 -0.28553173153E+03  0.30576914275E+03  0.00000000000E+00 0.  1.
          1    1    5    5  502    0  0.58358352371E+02  0.15399166965E+02 -0.91309053612E+02  0.10945398534E+03  0.00000000000E+00 0. -1.
          3    1    6    6  503    0 -0.83524828011E+02  0.85664228359E+01 -0.18516487675E+02  0.85980467609E+02  0.00000000000E+00 0. -1.
         -1    1    5    5    0  502  0.25645286171E+03 -0.36568884348E+02 -0.15793990497E+03  0.30339803421E+03  0.00000000000E+00 0.  1.
         -3    1    6    6    0  503 -0.44710641423E+03  0.11374154007E+03 -0.32288720695E+03  0.56311404884E+03  0.00000000000E+00 0.  1.
<mgrwt>
<rscale>  0 0.13464479E+04</rscale>
<asrwt>0</asrwt>
<pdfrwt beam="1">  1        2 0.27601982E+00 0.13464479E+04</pdfrwt>
<pdfrwt beam="2">  1       -2 0.38864413E-01 0.13464479E+04</pdfrwt>
<totfact> 0.53148975E+01</totfact>
</mgrwt>
</event>
<event>
12    1  0.4403484E-008  0.1381328E+04  0.7818608E-02  0.8967446E-01
         -2   -1    0    0    0  501 -0.00000000000E+00  0.00000000000E+00  0.15938458193E+03  0.15938458193E+03  0.00000000000E+00 0. -1.
          2   -1    0    0  501    0  0.00000000000E+00 -0.00000000000E+00 -0.29928664155E+04  0.29928664155E+04  0.00000000000E+00 0.  1.
         23    2    1    2    0    0  0.24986705031E+03 -0.13680194312E+03 -0.14313242754E+04  0.14621718761E+04  0.90050537800E+02 0.  0.
        254    2    1    2    0    0 -0.24986705031E+03  0.13680194312E+03 -0.14021575581E+04  0.16900791213E+04  0.89954060720E+03 0.  0.
         23    2    4    4    0    0 -0.77317903028E+02 -0.33270877172E+03 -0.25732030826E+03  0.43737417088E+03  0.91701905134E+02 0.  0.
         23    2    4    4    0    0 -0.17254914728E+03  0.46951071484E+03 -0.11448372499E+04  0.12527049504E+04  0.91672485264E+02 0.  0.
         11    1    3    3    0    0  0.16048557366E+03 -0.11050410144E+03 -0.11331351833E+04  0.11497661151E+04  0.00000000000E+00 0.  1.
        -11    1    3    3    0    0  0.89381476657E+02 -0.26297841677E+02 -0.29818909214E+03  0.31240576102E+03  0.00000000000E+00 0. -1.
          4    1    5    5  502    0 -0.28984211483E+02 -0.22249382873E+03 -0.21226656774E+03  0.30887001169E+03  0.00000000000E+00 0. -1.
          1    1    6    6  503    0  0.14924264340E+01 -0.37261375350E+01 -0.58080050360E+01  0.70600538304E+01  0.00000000000E+00 0. -1.
         -4    1    5    5    0  502 -0.48333691545E+02 -0.11021494299E+03 -0.45053740521E+02  0.12850415920E+03  0.00000000000E+00 0.  1.
         -1    1    6    6    0  503 -0.17404157372E+03  0.47323685237E+03 -0.11390292449E+04  0.12456448966E+04  0.00000000000E+00 0.  1.
<mgrwt>
<rscale>  0 0.13813280E+04</rscale>
<asrwt>0</asrwt>
<pdfrwt beam="1">  1        2 0.46044094E+00 0.13813280E+04</pdfrwt>
<pdfrwt beam="2">  1       -2 0.24520708E-01 0.13813280E+04</pdfrwt>
<totfact> 0.25716835E+01</totfact>
</mgrwt>
</event>
<event>
12    1  0.4403484E-008  0.2361539E+04  0.7818608E-02  0.8454045E-01
          1   -1    0    0  501    0  0.00000000000E+00  0.00000000000E+00  0.19239392555E+04  0.19239392555E+04  0.00000000000E+00 0. -1.
         -1   -1    0    0    0  501 -0.00000000000E+00 -0.00000000000E+00 -0.72466751116E+03  0.72466751116E+03  0.00000000000E+00 0.  1.
         23    2    1    2    0    0  0.83457287414E+03  0.32127970246E+03  0.10472341940E+04  0.13801446339E+04  0.91472531176E+02 0.  0.
        254    2    1    2    0    0 -0.83457287414E+03 -0.32127970246E+03  0.15203755031E+03  0.12684621327E+04  0.88665000762E+03 0.  0.
         23    2    4    4    0    0 -0.54359496801E+03  0.16340548362E+03  0.33678158663E+03  0.66664383925E+03  0.93783420653E+02 0.  0.
         23    2    4    4    0    0 -0.29097790613E+03 -0.48468518608E+03 -0.18474403632E+03  0.60181829349E+03  0.92016454842E+02 0.  0.
         11    1    3    3    0    0  0.61568208697E+03  0.19857657608E+03  0.78453254401E+03  0.10168522023E+04  0.00000000000E+00 0.  1.
        -11    1    3    3    0    0  0.21889078717E+03  0.12270312638E+03  0.26270165001E+03  0.36329243158E+03  0.00000000000E+00 0. -1.
          1    1    6    6  502    0 -0.16870601524E+03 -0.26745812922E+03 -0.15047934818E+03  0.35019937848E+03  0.00000000000E+00 0. -1.
          1    1    5    5  503    0 -0.33503439025E+03  0.54703088630E+02  0.18318573030E+03  0.38574276706E+03  0.00000000000E+00 0. -1.
         -1    1    5    5    0  503 -0.20856057776E+03  0.10870239499E+03  0.15359585634E+03  0.28090107219E+03  0.00000000000E+00 0.  1.
         -1    1    6    6    0  502 -0.12227189089E+03 -0.21722705686E+03 -0.34264688143E+02  0.25161891501E+03  0.00000000000E+00 0.  1.
<mgrwt>
<rscale>  0 0.23615387E+04</rscale>
<asrwt>0</asrwt>
<pdfrwt beam="1">  1        1 0.29599065E+00 0.23615387E+04</pdfrwt>
<pdfrwt beam="2">  1       -1 0.11148731E+00 0.23615387E+04</pdfrwt>
<totfact> 0.22303071E+00</totfact>
</mgrwt>
</event>
<event>
12    1  0.4403484E-008  0.2378773E+04  0.7818608E-02  0.8447494E-01
         -1   -1    0    0    0  501 -0.00000000000E+00  0.00000000000E+00  0.10297232708E+04  0.10297232708E+04  0.00000000000E+00 0.  1.
          1   -1    0    0  501    0  0.00000000000E+00 -0.00000000000E+00 -0.13738060888E+04  0.13738060888E+04  0.00000000000E+00 0. -1.
         23    2    1    2    0    0  0.85480577104E+03 -0.51568082899E+03 -0.34271838605E+03  0.10580755043E+04  0.73812309843E+02 0.  0.
        254    2    1    2    0    0 -0.85480577104E+03  0.51568082899E+03 -0.13644320098E+01  0.13454538553E+04  0.90201141422E+03 0.  0.
         23    2    4    4    0    0 -0.75379947686E+03  0.73387056573E+03 -0.11957815921E+03  0.10627646601E+04  0.91597641824E+02 0.  0.
         23    2    4    4    0    0 -0.10100629418E+03 -0.21818973675E+03  0.11821372720E+03  0.28268919518E+03  0.90164644338E+02 0.  0.
         13    1    3    3    0    0  0.20956292228E+03 -0.10969949441E+03 -0.52010777815E+02  0.24218942685E+03  0.00000000000E+00 0.  1.
        -13    1    3    3    0    0  0.64524284876E+03 -0.40598133457E+03 -0.29070760824E+03  0.81588607746E+03  0.00000000000E+00 0. -1.
          4    1    5    5  502    0 -0.35860988162E+03  0.37749391350E+03 -0.17840053742E+02  0.52098077646E+03  0.00000000000E+00 0. -1.
          3    1    6    6  503    0 -0.71529403245E+02 -0.20798367124E+03  0.12159187450E+03  0.25131304578E+03  0.00000000000E+00 0. -1.
         -4    1    5    5    0  502 -0.39518959524E+03  0.35637665223E+03 -0.10173810546E+03  0.54178388362E+03  0.00000000000E+00 0.  1.
         -3    1    6    6    0  503 -0.29476890933E+02 -0.10206065505E+02 -0.33781473086E+01  0.31376149404E+02  0.00000000000E+00 0.  1.
<mgrwt>
<rscale>  0 0.23787729E+04</rscale>
<asrwt>0</asrwt>
<pdfrwt beam="1">  1        1 0.21135478E+00 0.23787729E+04</pdfrwt>
<pdfrwt beam="2">  1       -1 0.15841896E+00 0.23787729E+04</pdfrwt>
<totfact> 0.21623804E+00</totfact>
</mgrwt>
</event>
<event>
12    1  0.4403484E-008  0.2354961E+04  0.7818608E-02  0.8456561E-01
         -1   -1    0    0    0  501 -0.00000000000E+00  0.00000000000E+00  0.38063938347E+03  0.38063938347E+03  0.00000000000E+00 0.  1.
          1   -1    0    0  501    0  0.00000000000E+00 -0.00000000000E+00 -0.36424504224E+04  0.36424504224E+04  0.00000000000E+00 0. -1.
         23    2    1    2    0    0 -0.74308253907E+03  0.20821619177E+03 -0.25722382093E+04  0.26870840733E+04  0.92118236699E+02 0.  0.
        254    2    1    2    0    0  0.74308253907E+03 -0.20821619177E+03 -0.68957282967E+03  0.13360057325E+04  0.84491123058E+03 0.  0.
         23    2    4    4    0    0  0.20455128742E+03  0.12751989132E+03 -0.64315238336E+03  0.69315628341E+03  0.93370729559E+02 0.  0.
         23    2    4    4    0    0  0.53853125165E+03 -0.33573608309E+03 -0.46420446310E+02  0.64284944913E+03  0.91465457519E+02 0.  0.
         11    1    3    3    0    0 -0.11729948366E+03  0.65117695879E+02 -0.50069736879E+03  0.51836023989E+03  0.00000000000E+00 0.  1.
        -11    1    3    3    0    0 -0.62578305542E+03  0.14309849589E+03 -0.20715408405E+04  0.21687238334E+04  0.00000000000E+00 0. -1.
          1    1    5    5  502    0  0.16953949626E+03  0.79687493935E+02 -0.56380071633E+03  0.59410856349E+03  0.00000000000E+00 0. -1.
          3    1    6    6  503    0  0.37589152702E+03 -0.23991238538E+03  0.93081705110E+01  0.44602582300E+03  0.00000000000E+00 0. -1.
         -1    1    5    5    0  502  0.35011791168E+02  0.47832397382E+02 -0.79351667029E+02  0.99047719916E+02  0.00000000000E+00 0.  1.
         -3    1    6    6    0  503  0.16263972463E+03 -0.95823697710E+02 -0.55728616821E+02  0.19682362613E+03  0.00000000000E+00 0.  1.
<mgrwt>
<rscale>  0 0.23549608E+04</rscale>
<asrwt>0</asrwt>
<pdfrwt beam="1">  1        1 0.56037700E+00 0.23549608E+04</pdfrwt>
<pdfrwt beam="2">  1       -1 0.58559904E-01 0.23549608E+04</pdfrwt>
<totfact> 0.51219486E-01</totfact>
</mgrwt>
</event>
<event>
12    1  0.4403484E-008  0.1781873E+04  0.7818608E-02  0.8715999E-01
          1   -1    0    0  501    0  0.00000000000E+00  0.00000000000E+00  0.95895106545E+03  0.95895106545E+03  0.00000000000E+00 0. -1.
         -1   -1    0    0    0  501 -0.00000000000E+00 -0.00000000000E+00 -0.82774634453E+03  0.82774634453E+03  0.00000000000E+00 0.  1.
         23    2    1    2    0    0  0.22284164431E+03 -0.22182192869E+03  0.62786683992E+03  0.70836848631E+03  0.93304754602E+02 0.  0.
        254    2    1    2    0    0 -0.22284164431E+03  0.22182192869E+03 -0.49666211901E+03  0.10783289237E+04  0.90402247797E+03 0.  0.
         23    2    4    4    0    0 -0.55884758924E+03  0.52918480868E+02 -0.32785911762E+03  0.65652751896E+03  0.91792093995E+02 0.  0.
         23    2    4    4    0    0  0.33600594493E+03  0.16890344783E+03 -0.16880300139E+03  0.42180140471E+03  0.89406946179E+02 0.  0.
         13    1    3    3    0    0  0.65680903679E+01 -0.53546065843E+02  0.10431666065E+03  0.11744056654E+03  0.00000000000E+00 0.  1.
        -13    1    3    3    0    0  0.21627355395E+03 -0.16827586285E+03  0.52355017927E+03  0.59092791977E+03  0.00000000000E+00 0. -1.
          2    1    5    5  502    0 -0.47307681024E+03  0.38653348864E+02 -0.31235006389E+03  0.56820622329E+03  0.00000000000E+00 0.  1.
          3    1    6    6  503    0  0.38954533294E+02 -0.96676169905E+00  0.26552562003E+01  0.39056890274E+02  0.00000000000E+00 0. -1.
         -2    1    5    5    0  502 -0.85770779001E+02  0.14265132003E+02 -0.15509053730E+02  0.88321295672E+02  0.00000000000E+00 0. -1.
         -3    1    6    6    0  503  0.29705141164E+03  0.16987020952E+03 -0.17145825759E+03  0.38274451444E+03  0.00000000000E+00 0.  1.
<mgrwt>
<rscale>  0 0.17818734E+04</rscale>
<asrwt>0</asrwt>
<pdfrwt beam="1">  1        1 0.14753093E+00 0.17818734E+04</pdfrwt>
<pdfrwt beam="2">  1       -1 0.12734559E+00 0.17818734E+04</pdfrwt>
<totfact> 0.82325872E+00</totfact>
</mgrwt>
</event>
<event>
12    1  0.4403484E-008  0.1275340E+04  0.7818608E-02  0.9049353E-01
          1   -1    0    0  501    0  0.00000000000E+00  0.00000000000E+00  0.46782042751E+03  0.46782042751E+03  0.00000000000E+00 0. -1.
         -1   -1    0    0    0  501 -0.00000000000E+00 -0.00000000000E+00 -0.86918621983E+03  0.86918621983E+03  0.00000000000E+00 0.  1.
         23    2    1    2    0    0 -0.32158681950E+03  0.16962120002E+02 -0.13446696750E+03  0.36110257682E+03  0.92778821079E+02 0.  0.
        254    2    1    2    0    0  0.32158681950E+03 -0.16962120002E+02 -0.26689882482E+03  0.97590407052E+03  0.88173010394E+03 0.  0.
         23    2    4    4    0    0  0.97195994566E+02 -0.12550261213E+03  0.29912754888E+03  0.35057018565E+03  0.90687361616E+02 0.  0.
         23    2    4    4    0    0  0.22439082494E+03  0.10854049213E+03 -0.56602637369E+03  0.62533388488E+03  0.92327304262E+02 0.  0.
         11    1    3    3    0    0 -0.32065442669E+03  0.54082755085E+01 -0.13778421586E+03  0.34904584361E+03  0.00000000000E+00 0. -1.
        -11    1    3    3    0    0 -0.93239280736E+00  0.11553844494E+02  0.33172483528E+01  0.12056733205E+02  0.00000000000E+00 0.  1.
          2    1    5    5  502    0  0.61012738426E+02 -0.97030602803E+02  0.12133284481E+03  0.16691060889E+03  0.00000000000E+00 0. -1.
          4    1    6    6  503    0  0.16132015562E+03  0.11797834857E+03 -0.46106163560E+03  0.50251459199E+03  0.00000000000E+00 0. -1.
         -2    1    5    5    0  502  0.36183256141E+02 -0.28472009328E+02  0.17779470407E+03  0.18365957676E+03  0.00000000000E+00 0.  1.
         -4    1    6    6    0  503  0.63070669318E+02 -0.94378564428E+01 -0.10496473809E+03  0.12281929289E+03  0.00000000000E+00 0.  1.
<mgrwt>
<rscale>  0 0.12753401E+04</rscale>
<asrwt>0</asrwt>
<pdfrwt beam="1">  1        1 0.71972375E-01 0.12753401E+04</pdfrwt>
<pdfrwt beam="2">  1       -1 0.13372095E+00 0.12753401E+04</pdfrwt>
<totfact> 0.22570327E+01</totfact>
</mgrwt>
</event>
<event>
12    1  0.4403484E-008  0.2001656E+04  0.7818608E-02  0.8605847E-01
         -3   -1    0    0    0  501 -0.00000000000E+00  0.00000000000E+00  0.54371436481E+03  0.54371436481E+03  0.00000000000E+00 0.  1.
          3   -1    0    0  501    0  0.00000000000E+00 -0.00000000000E+00 -0.18422481614E+04  0.18422481614E+04  0.00000000000E+00 0. -1.
         23    2    1    2    0    0 -0.25180594589E+03 -0.23384625883E+03 -0.13761280880E+04  0.14212447941E+04  0.90099629150E+02 0.  0.
        254    2    1    2    0    0  0.25180594589E+03  0.23384625883E+03  0.77594291336E+02  0.96471773213E+03  0.89809193376E+03 0.  0.
         23    2    4    4    0    0 -0.26257726643E+03  0.13214689867E+03  0.26037163712E+03  0.40316955604E+03  0.91338260456E+02 0.  0.
         23    2    4    4    0    0  0.51438321232E+03  0.10169936016E+03 -0.18277734579E+03  0.56154817609E+03  0.83641777669E+02 0.  0.
         11    1    3    3    0    0 -0.11998325375E+03 -0.10777623216E+03 -0.82807734614E+03  0.84363723755E+03  0.00000000000E+00 0. -1.
        -11    1    3    3    0    0 -0.13182269213E+03 -0.12607002666E+03 -0.54805074183E+03  0.57760755657E+03  0.00000000000E+00 0.  1.
          4    1    5    5  502    0 -0.68363397403E+01  0.18628623058E+02  0.47869293467E+02  0.51819208746E+02  0.00000000000E+00 0. -1.
          1    1    6    6  503    0  0.15618702425E+03  0.34950138671E+02 -0.16053499846E+02  0.16085276993E+03  0.00000000000E+00 0. -1.
         -4    1    5    5    0  502 -0.25574092669E+03  0.11351827561E+03  0.21250234366E+03  0.35135034729E+03  0.00000000000E+00 0.  1.
         -1    1    6    6    0  503  0.35819618807E+03  0.66749221485E+02 -0.16672384594E+03  0.40069540616E+03  0.00000000000E+00 0.  1.
<mgrwt>
<rscale>  0 0.20016561E+04</rscale>
<asrwt>0</asrwt>
<pdfrwt beam="1">  1        3 0.28342280E+00 0.20016561E+04</pdfrwt>
<pdfrwt beam="2">  1       -3 0.83648363E-01 0.20016561E+04</pdfrwt>
<totfact> 0.15283326E-01</totfact>
</mgrwt>
</event>
<event>
12    1  0.4403484E-008  0.2066611E+04  0.7818608E-02  0.8576096E-01
         -2   -1    0    0    0  501 -0.00000000000E+00  0.00000000000E+00  0.11329935106E+04  0.11329935106E+04  0.00000000000E+00 0.  1.
          2   -1    0    0  501    0  0.00000000000E+00 -0.00000000000E+00 -0.94238879117E+03  0.94238879117E+03  0.00000000000E+00 0. -1.
         23    2    1    2    0    0 -0.41072525705E+03 -0.34034876927E+03  0.71314599422E+03  0.89512218529E+03  0.90188669016E+02 0.  0.
        254    2    1    2    0    0  0.41072525705E+03  0.34034876927E+03 -0.52254127474E+03  0.11802601165E+04  0.91401971386E+03 0.  0.
         23    2    4    4    0    0  0.27817071184E+03 -0.10470539809E+03 -0.62312144507E+03  0.69636253558E+03  0.91094897398E+02 0.  0.
         23    2    4    4    0    0  0.13255454520E+03  0.44505416735E+03  0.10058017033E+03  0.48389758094E+03  0.91632848074E+02 0.  0.
         11    1    3    3    0    0 -0.56925476267E+02 -0.84493952702E+02  0.10328251666E+03  0.14507589786E+03  0.00000000000E+00 0. -1.
        -11    1    3    3    0    0 -0.35379978078E+03 -0.25585481656E+03  0.60986347756E+03  0.75004628744E+03  0.00000000000E+00 0.  1.
          2    1    5    5  502    0  0.49982316805E+02 -0.60091704145E+02 -0.16781119311E+03  0.18512115339E+03  0.00000000000E+00 0. -1.
          3    1    6    6  503    0  0.30166025367E+02  0.13457500884E+03 -0.11252816533E+02  0.13837285851E+03  0.00000000000E+00 0. -1.
         -2    1    5    5    0  502  0.22818839504E+03 -0.44613693940E+02 -0.45531025196E+03  0.51124138219E+03  0.00000000000E+00 0.  1.
         -3    1    6    6    0  503  0.10238851984E+03  0.31047915851E+03  0.11183298686E+03  0.34552472244E+03  0.00000000000E+00 0.  1.
<mgrwt>
<rscale>  0 0.20666111E+04</rscale>
<asrwt>0</asrwt>
<pdfrwt beam="1">  1        2 0.14498289E+00 0.20666111E+04</pdfrwt>
<pdfrwt beam="2">  1       -2 0.17430669E+00 0.20666111E+04</pdfrwt>
<totfact> 0.50415967E+00</totfact>
</mgrwt>
</event>
<event>
12    1  0.4403484E-008  0.1114864E+04  0.7818608E-02  0.9190825E-01
         -1   -1    0    0    0  501 -0.00000000000E+00  0.00000000000E+00  0.73268018948E+02  0.73268018948E+02  0.00000000000E+00 0.  1.
          1   -1    0    0  501    0  0.00000000000E+00 -0.00000000000E+00 -0.42410080241E+04  0.42410080241E+04  0.00000000000E+00 0. -1.
         23    2    1    2    0    0  0.10942427076E+03 -0.64223967662E+02 -0.27221237473E+03  0.31419853199E+03  0.92318749424E+02 0.  0.
        254    2    1    2    0    0 -0.10942427076E+03  0.64223967662E+02 -0.38955276304E+04  0.40000775110E+04  0.89965892761E+03 0.  0.
         23    2    4    4    0    0  0.26134888238E+03  0.22186658665E+03 -0.77267297573E+03  0.85002282103E+03  0.89371406291E+02 0.  0.
         23    2    4    4    0    0 -0.37077315314E+03 -0.15764261899E+03 -0.31228546547E+04  0.31500546900E+04  0.91101204146E+02 0.  0.
         11    1    3    3    0    0  0.80840291291E+02  0.42001624945E+01 -0.16568504292E+03  0.18440262338E+03  0.00000000000E+00 0. -1.
        -11    1    3    3    0    0  0.28583979465E+02 -0.68424130156E+02 -0.10652733180E+03  0.12979590861E+03  0.00000000000E+00 0.  1.
          2    1    5    5  502    0 -0.55835316879E+00  0.27203104614E+02 -0.75608829902E+02  0.80355558726E+02  0.00000000000E+00 0. -1.
          4    1    6    6  503    0 -0.85188302531E+02 -0.80342869266E+02 -0.91803530914E+03  0.92547331261E+03  0.00000000000E+00 0. -1.
         -2    1    5    5    0  502  0.26190723555E+03  0.19466348204E+03 -0.69706414583E+03  0.76966726231E+03  0.00000000000E+00 0.  1.
         -4    1    6    6    0  503 -0.28558485060E+03 -0.77299749727E+02 -0.22048193455E+04  0.22245813774E+04  0.00000000000E+00 0.  1.
<mgrwt>
<rscale>  0 0.11148637E+04</rscale>
<asrwt>0</asrwt>
<pdfrwt beam="1">  1        1 0.65246283E+00 0.11148637E+04</pdfrwt>
<pdfrwt beam="2">  1       -1 0.11272002E-01 0.11148637E+04</pdfrwt>
<totfact> 0.31548921E+00</totfact>
</mgrwt>
</event>
<event>
12    1  0.4403484E-008  0.1602544E+04  0.7818608E-02  0.8818987E-01
          1   -1    0    0  501    0  0.00000000000E+00  0.00000000000E+00  0.63561871456E+03  0.63561871456E+03  0.00000000000E+00 0. -1.
         -1   -1    0    0    0  501 -0.00000000000E+00 -0.00000000000E+00 -0.10100971478E+04  0.10100971478E+04  0.00000000000E+00 0.  1.
         23    2    1    2    0    0  0.31058808456E+03 -0.21466476070E+03  0.27350953732E+03  0.47526907775E+03  0.92343443205E+02 0.  0.
        254    2    1    2    0    0 -0.31058808456E+03  0.21466476070E+03 -0.64798797056E+03  0.11704467846E+04  0.89861635189E+03 0.  0.
         23    2    4    4    0    0 -0.15003232020E+03 -0.33097182422E+03 -0.13485582454E+03  0.39884503863E+03  0.94017157474E+02 0.  0.
         23    2    4    4    0    0 -0.16055576436E+03  0.54563658492E+03 -0.51313214601E+03  0.77160174598E+03  0.92559272143E+02 0.  0.
         11    1    3    3    0    0  0.29184453187E+03 -0.21531161032E+03  0.23421392756E+03  0.43172732619E+03  0.00000000000E+00 0. -1.
        -11    1    3    3    0    0  0.18743552690E+02  0.64684962038E+00  0.39295609762E+02  0.43541751554E+02  0.00000000000E+00 0.  1.
          4    1    5    5  502    0 -0.25372699399E+02 -0.12795544458E+03 -0.84270242076E+02  0.15529920596E+03  0.00000000000E+00 0. -1.
          3    1    6    6  503    0 -0.90730186345E+02  0.31356626673E+03 -0.23224283840E+03  0.40061515989E+03  0.00000000000E+00 0. -1.
         -4    1    5    5    0  502 -0.12465962080E+03 -0.20301637964E+03 -0.50585582469E+02  0.24354583267E+03  0.00000000000E+00 0.  1.
         -3    1    6    6    0  503 -0.69825578013E+02  0.23207031819E+03 -0.28088930761E+03  0.37098658609E+03  0.00000000000E+00 0.  1.
<mgrwt>
<rscale>  0 0.16025438E+04</rscale>
<asrwt>0</asrwt>
<pdfrwt beam="1">  1        1 0.97787497E-01 0.16025438E+04</pdfrwt>
<pdfrwt beam="2">  1       -1 0.15539956E+00 0.16025438E+04</pdfrwt>
<totfact> 0.95701971E+00</totfact>
</mgrwt>
</event>
<event>
12    1  0.4403484E-008  0.2974913E+04  0.7818608E-02  0.8250931E-01
          1   -1    0    0  501    0  0.00000000000E+00  0.00000000000E+00  0.13718888280E+04  0.13718888280E+04  0.00000000000E+00 0. -1.
         -1   -1    0    0    0  501 -0.00000000000E+00 -0.00000000000E+00 -0.16127592460E+04  0.16127592460E+04  0.00000000000E+00 0.  1.
         23    2    1    2    0    0 -0.70879797654E+03 -0.38689431036E+03 -0.11905851012E+04  0.14420063243E+04  0.99033213880E+02 0.  0.
        254    2    1    2    0    0  0.70879797654E+03  0.38689431036E+03  0.94971468314E+03  0.15426417496E+04  0.90868245799E+03 0.  0.
         23    2    4    4    0    0  0.27957214091E+03 -0.28189659641E+03  0.40617980937E+03  0.57517026577E+03  0.90622977478E+02 0.  0.
         23    2    4    4    0    0  0.42922583562E+03  0.66879090676E+03  0.54353487377E+03  0.96747148388E+03  0.95156808359E+02 0.  0.
         11    1    3    3    0    0 -0.16603681660E+02 -0.28397249386E+02 -0.64973025734E+02  0.72825682903E+02  0.00000000000E+00 0. -1.
        -11    1    3    3    0    0 -0.69219429488E+03 -0.35849706097E+03 -0.11256120754E+04  0.13691806414E+04  0.00000000000E+00 0.  1.
          2    1    5    5  502    0  0.16482296391E+00 -0.81800685052E+01  0.35005798261E+02  0.35949222513E+02  0.00000000000E+00 0. -1.
          1    1    6    6  503    0  0.13484305178E+03  0.27022191981E+03  0.16664510030E+03  0.34492480922E+03  0.00000000000E+00 0. -1.
         -2    1    5    5    0  502  0.27940731795E+03 -0.27371652790E+03  0.37117401111E+03  0.53922104326E+03  0.00000000000E+00 0.  1.
         -1    1    6    6    0  503  0.29438278384E+03  0.39856898695E+03  0.37688977347E+03  0.62254667466E+03  0.00000000000E+00 0.  1.
<mgrwt>
<rscale>  0 0.29749127E+04</rscale>
<asrwt>0</asrwt>
<pdfrwt beam="1">  1        1 0.21105982E+00 0.29749127E+04</pdfrwt>
<pdfrwt beam="2">  1       -1 0.24811681E+00 0.29749127E+04</pdfrwt>
<totfact> 0.49191249E-01</totfact>
</mgrwt>
</event>
<event>
12    1  0.4403484E-008  0.1669330E+04  0.7818608E-02  0.8779053E-01
         -1   -1    0    0    0  501 -0.00000000000E+00  0.00000000000E+00  0.42985871976E+03  0.42985871976E+03  0.00000000000E+00 0.  1.
          1   -1    0    0  501    0  0.00000000000E+00 -0.00000000000E+00 -0.16206845806E+04  0.16206845806E+04  0.00000000000E+00 0. -1.
         23    2    1    2    0    0  0.37374777495E+03  0.38731529877E+03 -0.71202878069E+03  0.89775402288E+03  0.96315944280E+02 0.  0.
        254    2    1    2    0    0 -0.37374777495E+03 -0.38731529877E+03 -0.47879708013E+03  0.11527892775E+04  0.89998663008E+03 0.  0.
         23    2    4    4    0    0  0.27553636495E+02 -0.49168125749E+03  0.13736300600E+02  0.50230217903E+03  0.98026176397E+02 0.  0.
         23    2    4    4    0    0 -0.40130141144E+03  0.10436595871E+03 -0.49253338073E+03  0.65048709842E+03  0.92786086855E+02 0.  0.
         11    1    3    3    0    0  0.27823245090E+03  0.24068482260E+03 -0.43061730985E+03  0.56636891520E+03  0.00000000000E+00 0.  1.
        -11    1    3    3    0    0  0.95515324050E+02  0.14663047617E+03 -0.28141147084E+03  0.33138510768E+03  0.00000000000E+00 0. -1.
          2    1    5    5  502    0  0.53876429451E+02 -0.20123338244E+03 -0.17189820228E+02  0.20902878696E+03  0.00000000000E+00 0. -1.
          3    1    6    6  503    0 -0.39434943973E+03  0.84390095112E+02 -0.46076140562E+03  0.61231874190E+03  0.00000000000E+00 0. -1.
         -2    1    5    5    0  502 -0.26322792956E+02 -0.29044787505E+03  0.30926120828E+02  0.29327339207E+03  0.00000000000E+00 0.  1.
         -3    1    6    6    0  503 -0.69519717122E+01  0.19975863603E+02 -0.31771975107E+02  0.38168356522E+02  0.00000000000E+00 0.  1.
<mgrwt>
<rscale>  0 0.16693297E+04</rscale>
<asrwt>0</asrwt>
<pdfrwt beam="1">  1        1 0.24933609E+00 0.16693297E+04</pdfrwt>
<pdfrwt beam="2">  1       -1 0.66132112E-01 0.16693297E+04</pdfrwt>
<totfact> 0.11939009E+01</totfact>
</mgrwt>
</event>
<event>
12    1  0.4403484E-008  0.2013213E+04  0.7818608E-02  0.8600468E-01
         -1   -1    0    0    0  501 -0.00000000000E+00  0.00000000000E+00  0.55734624940E+03  0.55734624940E+03  0.00000000000E+00 0.  1.
          1   -1    0    0  501    0  0.00000000000E+00 -0.00000000000E+00 -0.18180013495E+04  0.18180013495E+04  0.00000000000E+00 0. -1.
         23    2    1    2    0    0 -0.42156968222E+03  0.60023377771E+03 -0.78355741753E+03  0.10771080225E+04  0.90542148658E+02 0.  0.
        254    2    1    2    0    0  0.42156968222E+03 -0.60023377771E+03 -0.47709768257E+03  0.12982395764E+04  0.95906319613E+03 0.  0.
         23    2    4    4    0    0  0.35430987943E+03 -0.31245647077E+03 -0.74624981101E+03  0.88790920232E+03  0.91265734766E+02 0.  0.
         23    2    4    4    0    0  0.67259802791E+02 -0.28777730694E+03  0.26915212844E+03  0.41033037409E+03  0.92674096684E+02 0.  0.
         11    1    3    3    0    0 -0.39401859236E+03  0.58944531956E+03 -0.75915409538E+03  0.10387547239E+04  0.00000000000E+00 0. -1.
        -11    1    3    3    0    0 -0.27551089861E+02  0.10788458153E+02 -0.24403322153E+02  0.38353298606E+02  0.00000000000E+00 0.  1.
          4    1    5    5  502    0  0.25039887507E+03 -0.17183347775E+03 -0.42808423514E+03  0.52486422348E+03  0.00000000000E+00 0. -1.
          1    1    6    6  503    0  0.45629897122E+02 -0.22181366868E+03  0.25204066184E+03  0.33883312463E+03  0.00000000000E+00 0. -1.
         -4    1    5    5    0  502  0.10391100436E+03 -0.14062299302E+03 -0.31816557587E+03  0.36304497884E+03  0.00000000000E+00 0.  1.
         -1    1    6    6    0  503  0.21629905669E+02 -0.65963638255E+02  0.17111466602E+02  0.71497249460E+02  0.00000000000E+00 0.  1.
<mgrwt>
<rscale>  0 0.20132126E+04</rscale>
<asrwt>0</asrwt>
<pdfrwt beam="1">  1        1 0.27969251E+00 0.20132126E+04</pdfrwt>
<pdfrwt beam="2">  1       -1 0.85745578E-01 0.20132126E+04</pdfrwt>
<totfact> 0.49295755E+00</totfact>
</mgrwt>
</event>
<event>
12    1  0.4403484E-008  0.1333790E+04  0.7818608E-02  0.9003190E-01
          2   -1    0    0  501    0  0.00000000000E+00  0.00000000000E+00  0.10783450354E+04  0.10783450354E+04  0.00000000000E+00 0. -1.
         -2   -1    0    0    0  501 -0.00000000000E+00 -0.00000000000E+00 -0.41243679482E+03  0.41243679482E+03  0.00000000000E+00 0.  1.
         23    2    1    2    0    0  0.24295814133E+03 -0.14504797859E+03  0.42475005321E+03  0.52036495691E+03  0.10148648259E+03 0.  0.
        254    2    1    2    0    0 -0.24295814133E+03  0.14504797859E+03  0.24115818736E+03  0.97041687330E+03  0.89637272500E+03 0.  0.
         23    2    4    4    0    0  0.29688501183E+03 -0.10515646240E+03  0.21856891741E+02  0.32893334484E+03  0.92308340883E+02 0.  0.
         23    2    4    4    0    0 -0.53984315316E+03  0.25020444099E+03  0.21930129562E+03  0.64148352846E+03  0.96825444570E+02 0.  0.
         11    1    3    3    0    0  0.17982221195E+03 -0.84668331273E+02  0.36141020061E+03  0.41245858863E+03  0.00000000000E+00 0. -1.
        -11    1    3    3    0    0  0.63135929378E+02 -0.60379647313E+02  0.63339852607E+02  0.10790636828E+03  0.00000000000E+00 0.  1.
          3    1    6    6  502    0 -0.47954073861E+03  0.24936386913E+03  0.18082524354E+03  0.56994686412E+03  0.00000000000E+00 0. -1.
          3    1    5    5  503    0  0.28634664143E+03 -0.99973724335E+02 -0.92961347831E+00  0.30329854731E+03  0.00000000000E+00 0. -1.
         -3    1    5    5    0  503  0.10538370399E+02 -0.51827380693E+01  0.22786505219E+02  0.25634797535E+02  0.00000000000E+00 0.  1.
         -3    1    6    6    0  502 -0.60302414545E+02  0.84057186292E+00  0.38476052079E+02  0.71536664338E+02  0.00000000000E+00 0.  1.
<mgrwt>
<rscale>  0 0.13337903E+04</rscale>
<asrwt>0</asrwt>
<pdfrwt beam="1">  1        2 0.16589924E+00 0.13337903E+04</pdfrwt>
<pdfrwt beam="2">  1       -2 0.63451815E-01 0.13337903E+04</pdfrwt>
<totfact> 0.50526156E+01</totfact>
</mgrwt>
</event>
<event>
12    1  0.4403484E-008  0.2307970E+04  0.7818608E-02  0.8474785E-01
          2   -1    0    0  501    0  0.00000000000E+00  0.00000000000E+00  0.90445496184E+03  0.90445496184E+03  0.00000000000E+00 0.  1.
         -2   -1    0    0    0  501 -0.00000000000E+00 -0.00000000000E+00 -0.14723581428E+04  0.14723581428E+04  0.00000000000E+00 0. -1.
         23    2    1    2    0    0  0.45484197812E+03 -0.57516154288E+02  0.64491256981E+03  0.79633421869E+03  0.89703021696E+02 0.  0.
        254    2    1    2    0    0 -0.45484197812E+03  0.57516154288E+02 -0.12128157508E+04  0.15804788860E+04  0.90377106091E+03 0.  0.
         23    2    4    4    0    0  0.18245168249E+03 -0.22446164481E+03 -0.45005384506E+03  0.54274128522E+03  0.91367350818E+02 0.  0.
         23    2    4    4    0    0 -0.63729366061E+03  0.28197779910E+03 -0.76276190573E+03  0.10377376007E+04  0.97154074137E+02 0.  0.
         11    1    3    3    0    0  0.33260204524E+02 -0.73130100878E+01  0.16237513478E+02  0.37727684337E+02  0.00000000000E+00 0. -1.
        -11    1    3    3    0    0  0.42158177359E+03 -0.50203144200E+02  0.62867505633E+03  0.75860653436E+03  0.00000000000E+00 0.  1.
          1    1    5    5  502    0  0.64802969009E+02 -0.12004862083E+03 -0.27768635833E+03  0.30938779834E+03  0.00000000000E+00 0. -1.
          3    1    6    6  503    0 -0.11036355647E+03  0.56988591334E+02 -0.86328488568E+02  0.15126275839E+03  0.00000000000E+00 0. -1.
         -1    1    5    5    0  502  0.11764871348E+03 -0.10441302398E+03 -0.17236748673E+03  0.23335348689E+03  0.00000000000E+00 0.  1.
         -3    1    6    6    0  503 -0.52693010414E+03  0.22498920777E+03 -0.67643341717E+03  0.88647484235E+03  0.00000000000E+00 0.  1.
<mgrwt>
<rscale>  0 0.23079702E+04</rscale>
<asrwt>0</asrwt>
<pdfrwt beam="1">  1        2 0.13914692E+00 0.23079702E+04</pdfrwt>
<pdfrwt beam="2">  1       -2 0.22651664E+00 0.23079702E+04</pdfrwt>
<totfact> 0.23713467E+00</totfact>
</mgrwt>
</event>
<event>
12    1  0.4403484E-008  0.1798612E+04  0.7818608E-02  0.8707038E-01
          1   -1    0    0  501    0  0.00000000000E+00  0.00000000000E+00  0.72125104596E+03  0.72125104596E+03  0.00000000000E+00 0. -1.
         -1   -1    0    0    0  501 -0.00000000000E+00 -0.00000000000E+00 -0.11213172818E+04  0.11213172818E+04  0.00000000000E+00 0.  1.
         23    2    1    2    0    0  0.33274854431E+03  0.40954260969E+03 -0.57582111255E+03  0.78621315526E+03  0.90080125223E+02 0.  0.
        254    2    1    2    0    0 -0.33274854431E+03 -0.40954260969E+03  0.17575487675E+03  0.10563551725E+04  0.89808113819E+03 0.  0.
         23    2    4    4    0    0  0.49134135762E+02  0.25122276135E+03  0.63478805461E+02  0.27946608293E+03  0.92437512140E+02 0.  0.
         23    2    4    4    0    0 -0.38188268008E+03 -0.66076537104E+03  0.11227607129E+03  0.77688908952E+03  0.92225182703E+02 0.  0.
         13    1    3    3    0    0  0.10779737583E+03  0.91352254899E+02 -0.19964839108E+03  0.24459147322E+03  0.00000000000E+00 0. -1.
        -13    1    3    3    0    0  0.22495116848E+03  0.31819035479E+03 -0.37617272147E+03  0.54162168205E+03  0.00000000000E+00 0.  1.
          4    1    5    5  502    0  0.18324944390E+02  0.95330332655E+01 -0.12628075987E+02  0.24210547562E+02  0.00000000000E+00 0. -1.
          1    1    6    6  503    0 -0.20059231234E+03 -0.33289213102E+03  0.11115035066E+02  0.38881613993E+03  0.00000000000E+00 0. -1.
         -4    1    5    5    0  502  0.30809191372E+02  0.24168972808E+03  0.76106881447E+02  0.25525553537E+03  0.00000000000E+00 0.  1.
         -1    1    6    6    0  503 -0.18129036774E+03 -0.32787324002E+03  0.10116103622E+03  0.38807294959E+03  0.00000000000E+00 0.  1.
<mgrwt>
<rscale>  0 0.17986120E+04</rscale>
<asrwt>0</asrwt>
<pdfrwt beam="1">  1        1 0.11096170E+00 0.17986120E+04</pdfrwt>
<pdfrwt beam="2">  1       -1 0.17251035E+00 0.17986120E+04</pdfrwt>
<totfact> 0.57920407E+00</totfact>
</mgrwt>
</event>
<event>
12    1  0.4403484E-008  0.1518059E+04  0.7818608E-02  0.8872532E-01
          1   -1    0    0  501    0  0.00000000000E+00  0.00000000000E+00  0.21699965955E+04  0.21699965955E+04  0.00000000000E+00 0. -1.
         -1   -1    0    0    0  501 -0.00000000000E+00 -0.00000000000E+00 -0.26549629839E+03  0.26549629839E+03  0.00000000000E+00 0.  1.
         23    2    1    2    0    0 -0.35431012811E+03 -0.31386415377E+03  0.42492226781E+03  0.64266704508E+03  0.91736706130E+02 0.  0.
        254    2    1    2    0    0  0.35431012811E+03  0.31386415377E+03  0.14795780293E+04  0.17928258489E+04  0.89500112039E+03 0.  0.
         23    2    4    4    0    0 -0.14212184990E+03 -0.11130175743E+02  0.10272091564E+04  0.10411506199E+04  0.92268419982E+02 0.  0.
         23    2    4    4    0    0  0.49643197801E+03  0.32499432951E+03  0.45236887298E+03  0.75167522898E+03  0.91170332988E+02 0.  0.
         13    1    3    3    0    0 -0.21253911561E+02 -0.37202968981E+02  0.73275376567E+02  0.84882686508E+02  0.00000000000E+00 0. -1.
        -13    1    3    3    0    0 -0.33305621655E+03 -0.27666118479E+03  0.35164689124E+03  0.55778435858E+03  0.00000000000E+00 0.  1.
          1    1    5    5  502    0 -0.99200525035E+02 -0.25826562908E+02  0.42310703310E+03  0.43534735210E+03  0.00000000000E+00 0. -1.
          3    1    6    6  503    0  0.11947704415E+03  0.10390277023E+03  0.16480149052E+03  0.22853901421E+03  0.00000000000E+00 0. -1.
         -1    1    5    5    0  502 -0.42921324861E+02  0.14696387165E+02  0.60410212326E+03  0.60580326778E+03  0.00000000000E+00 0.  1.
         -3    1    6    6    0  503  0.37695493385E+03  0.22109155928E+03  0.28756738246E+03  0.52313621477E+03  0.00000000000E+00 0.  1.
<mgrwt>
<rscale>  0 0.15180594E+04</rscale>
<asrwt>0</asrwt>
<pdfrwt beam="1">  1        1 0.33384562E+00 0.15180594E+04</pdfrwt>
<pdfrwt beam="2">  1       -1 0.40845586E-01 0.15180594E+04</pdfrwt>
<totfact> 0.12943168E+01</totfact>
</mgrwt>
</event>
<event>
12    1  0.4403484E-008  0.2050952E+04  0.7818608E-02  0.8583163E-01
         -1   -1    0    0    0  501 -0.00000000000E+00  0.00000000000E+00  0.27036881899E+04  0.27036881899E+04  0.00000000000E+00 0.  1.
          1   -1    0    0  501    0  0.00000000000E+00 -0.00000000000E+00 -0.38895056354E+03  0.38895056354E+03  0.00000000000E+00 0. -1.
         23    2    1    2    0    0 -0.15606694891E+03  0.29078358494E+03 -0.20856032822E+03  0.40035542569E+03  0.88741594263E+02 0.  0.
        254    2    1    2    0    0  0.15606694891E+03 -0.29078358494E+03  0.25232979546E+04  0.26922833277E+04  0.87888848185E+03 0.  0.
         23    2    4    4    0    0  0.42371868870E+03 -0.36954465638E+03  0.10980382950E+04  0.12370633571E+04  0.92395194620E+02 0.  0.
         23    2    4    4    0    0 -0.26765173980E+03  0.78761071439E+02  0.14252596596E+04  0.14552199706E+04  0.91974483299E+02 0.  0.
         11    1    3    3    0    0 -0.97511073489E+02  0.18093634731E+03 -0.77670532819E+02  0.21972501655E+03  0.00000000000E+00 0.  1.
        -11    1    3    3    0    0 -0.58555875417E+02  0.10984723763E+03 -0.13088979541E+03  0.18063040913E+03  0.00000000000E+00 0. -1.
          1    1    5    5  502    0  0.28139825334E+03 -0.22312045713E+03  0.78595683190E+03  0.86411565024E+03  0.00000000000E+00 0. -1.
          3    1    6    6  503    0 -0.24133216105E+03  0.53969403375E+02  0.13397232549E+04  0.13623554266E+04  0.00000000000E+00 0. -1.
         -1    1    5    5    0  502  0.14232043536E+03 -0.14642419925E+03  0.31208146311E+03  0.37294770688E+03  0.00000000000E+00 0.  1.
         -3    1    6    6    0  503 -0.26319578744E+02  0.24791668063E+02  0.85536404627E+02  0.92864544079E+02  0.00000000000E+00 0.  1.
<mgrwt>
<rscale>  0 0.20509520E+04</rscale>
<asrwt>0</asrwt>
<pdfrwt beam="1">  1        1 0.59838550E-01 0.20509520E+04</pdfrwt>
<pdfrwt beam="2">  1       -1 0.41595202E+00 0.20509520E+04</pdfrwt>
<totfact> 0.32024715E-01</totfact>
</mgrwt>
</event>
<event>
12    1  0.4403484E-008  0.2398950E+04  0.7818608E-02  0.8439897E-01
          2   -1    0    0  501    0  0.00000000000E+00  0.00000000000E+00  0.11091191863E+04  0.11091191863E+04  0.00000000000E+00 0. -1.
         -2   -1    0    0    0  501 -0.00000000000E+00 -0.00000000000E+00 -0.12971919207E+04  0.12971919207E+04  0.00000000000E+00 0.  1.
         23    2    1    2    0    0  0.63318041727E+03 -0.80685326665E+03 -0.13642850257E+03  0.10383779168E+04  0.87671700307E+02 0.  0.
        254    2    1    2    0    0 -0.63318041727E+03  0.80685326665E+03 -0.51644231763E+02  0.13679331902E+04  0.90368382276E+03 0.  0.
         23    2    4    4    0    0  0.96575202488E+02  0.28540931899E+03 -0.29855182977E+03  0.43327082450E+03  0.88346834670E+02 0.  0.
         23    2    4    4    0    0 -0.72975561976E+03  0.52144394766E+03  0.24690759801E+03  0.93466236573E+03  0.90461709222E+02 0.  0.
         13    1    3    3    0    0  0.60385203921E+03 -0.78283773339E+03 -0.11638549005E+03  0.99549876161E+03  0.00000000000E+00 0. -1.
        -13    1    3    3    0    0  0.29328378061E+02 -0.24015533261E+02 -0.20043012522E+02  0.42879155174E+02  0.00000000000E+00 0.  1.
          2    1    6    6  502    0 -0.34074790284E+03  0.21048047474E+03  0.14754013156E+03  0.42682461733E+03  0.00000000000E+00 0. -1.
          2    1    5    5  503    0  0.19175375236E+02  0.14941707242E+03 -0.10149278900E+03  0.18164234849E+03  0.00000000000E+00 0. -1.
         -2    1    5    5    0  503  0.77399827252E+02  0.13599224657E+03 -0.19705904077E+03  0.25162847600E+03  0.00000000000E+00 0.  1.
         -2    1    6    6    0  502 -0.38900771692E+03  0.31096347292E+03  0.99367466447E+02  0.50783774840E+03  0.00000000000E+00 0.  1.
<mgrwt>
<rscale>  0 0.23989501E+04</rscale>
<asrwt>0</asrwt>
<pdfrwt beam="1">  1        2 0.17063372E+00 0.23989501E+04</pdfrwt>
<pdfrwt beam="2">  1       -2 0.19956799E+00 0.23989501E+04</pdfrwt>
<totfact> 0.25888537E+00</totfact>
</mgrwt>
</event>
<event>
12    1  0.4403484E-008  0.1564843E+04  0.7818608E-02  0.8842442E-01
         -1   -1    0    0    0  501 -0.00000000000E+00  0.00000000000E+00  0.48192154280E+03  0.48192154280E+03  0.00000000000E+00 0.  1.
          1   -1    0    0  501    0  0.00000000000E+00 -0.00000000000E+00 -0.12702962280E+04  0.12702962280E+04  0.00000000000E+00 0. -1.
         23    2    1    2    0    0 -0.50460241276E+03 -0.11322274080E+03 -0.34015250321E+03  0.62586391871E+03  0.92514514063E+02 0.  0.
        254    2    1    2    0    0  0.50460241276E+03  0.11322274080E+03 -0.44822218199E+03  0.11263538521E+04  0.89460991034E+03 0.  0.
         23    2    4    4    0    0  0.46512143907E+02 -0.30228501489E+03  0.55452657758E+02  0.32437388176E+03  0.92756714901E+02 0.  0.
         23    2    4    4    0    0  0.45809026885E+03  0.41550775569E+03 -0.50367483975E+03  0.80197997032E+03  0.83607052077E+02 0.  0.
         11    1    3    3    0    0 -0.50579790999E+03 -0.11460414707E+03 -0.34349368335E+03  0.62205590326E+03  0.00000000000E+00 0.  1.
        -11    1    3    3    0    0  0.11954972283E+01  0.13814062752E+01  0.33411801478E+01  0.38080154543E+01  0.00000000000E+00 0. -1.
          4    1    5    5  502    0  0.73148653561E+02 -0.24785968301E+03  0.37209347711E+02  0.26109324682E+03  0.00000000000E+00 0. -1.
          1    1    6    6  503    0  0.22971101276E+03  0.25165464374E+03 -0.24175079629E+03  0.41778063216E+03  0.00000000000E+00 0. -1.
         -4    1    5    5    0  502 -0.26636509654E+02 -0.54425331881E+02  0.18243310047E+02  0.63280634940E+02  0.00000000000E+00 0.  1.
         -1    1    6    6    0  503  0.22837925609E+03  0.16385311194E+03 -0.26192404345E+03  0.38419933817E+03  0.00000000000E+00 0.  1.
<mgrwt>
<rscale>  0 0.15648426E+04</rscale>
<asrwt>0</asrwt>
<pdfrwt beam="1">  1        1 0.19543019E+00 0.15648426E+04</pdfrwt>
<pdfrwt beam="2">  1       -1 0.74141775E-01 0.15648426E+04</pdfrwt>
<totfact> 0.16744934E+01</totfact>
</mgrwt>
</event>
<event>
12    1  0.4403484E-008  0.1759671E+04  0.7818608E-02  0.8728045E-01
         -2   -1    0    0    0  501 -0.00000000000E+00  0.00000000000E+00  0.64633848339E+03  0.64633848339E+03  0.00000000000E+00 0.  1.
          2   -1    0    0  501    0  0.00000000000E+00 -0.00000000000E+00 -0.11976865842E+04  0.11976865842E+04  0.00000000000E+00 0. -1.
         23    2    1    2    0    0  0.25374170207E+03  0.58778488891E+03 -0.32706725978E+03  0.72513432067E+03  0.94714643026E+02 0.  0.
        254    2    1    2    0    0 -0.25374170207E+03 -0.58778488891E+03 -0.22428084102E+03  0.11188907469E+04  0.88979698856E+03 0.  0.
         23    2    4    4    0    0 -0.29513045182E+03 -0.28295934591E+02  0.23394685565E+03  0.38868505923E+03  0.91881992202E+02 0.  0.
         23    2    4    4    0    0  0.41388749753E+02 -0.55948895432E+03 -0.45822769667E+03  0.73020568767E+03  0.92123860633E+02 0.  0.
         13    1    3    3    0    0  0.78948802660E+02  0.26553215143E+03 -0.17862309519E+03  0.32961560494E+03  0.00000000000E+00 0. -1.
        -13    1    3    3    0    0  0.17479289941E+03  0.32225273748E+03 -0.14844416458E+03  0.39551871573E+03  0.00000000000E+00 0.  1.
          4    1    6    6  502    0  0.51764250106E+02 -0.52724519722E+03 -0.40390454529E+03  0.66618759917E+03  0.00000000000E+00 0. -1.
          4    1    5    5  503    0 -0.19573978086E+03  0.23888840242E+02  0.16346002651E+03  0.25613261949E+03  0.00000000000E+00 0. -1.
         -4    1    5    5    0  503 -0.99390670962E+02 -0.52184774832E+02  0.70486829141E+02  0.13255243974E+03  0.00000000000E+00 0.  1.
         -4    1    6    6    0  502 -0.10375500353E+02 -0.32243757101E+02 -0.54323151379E+02  0.64018088501E+02  0.00000000000E+00 0.  1.
<mgrwt>
<rscale>  0 0.17596715E+04</rscale>
<asrwt>0</asrwt>
<pdfrwt beam="1">  1        2 0.18425947E+00 0.17596715E+04</pdfrwt>
<pdfrwt beam="2">  1       -2 0.99436690E-01 0.17596715E+04</pdfrwt>
<totfact> 0.15067784E+01</totfact>
</mgrwt>
</event>
<event>
12    1  0.4403484E-008  0.2408722E+04  0.7818608E-02  0.8436245E-01
         -2   -1    0    0    0  501 -0.00000000000E+00  0.00000000000E+00  0.94617265113E+03  0.94617265113E+03  0.00000000000E+00 0.  1.
          2   -1    0    0  501    0  0.00000000000E+00 -0.00000000000E+00 -0.15330032516E+04  0.15330032516E+04  0.00000000000E+00 0. -1.
         23    2    1    2    0    0  0.63765543834E+03  0.64522570083E+03 -0.76306344913E+03  0.11889586638E+04  0.91848864040E+02 0.  0.
        254    2    1    2    0    0 -0.63765543834E+03 -0.64522570083E+03  0.17623284863E+03  0.12902172389E+04  0.90037872235E+03 0.  0.
         23    2    4    4    0    0 -0.36842075458E+03 -0.12659063657E+02 -0.27020992041E+03  0.46575715734E+03  0.89566870107E+02 0.  0.
         23    2    4    4    0    0 -0.26923468375E+03 -0.63256663717E+03  0.44644276904E+03  0.82446008160E+03  0.88291645856E+02 0.  0.
         13    1    3    3    0    0  0.49564722430E+03  0.47701543202E+03 -0.62267199967E+03  0.92786330487E+03  0.00000000000E+00 0.  1.
        -13    1    3    3    0    0  0.14200821403E+03  0.16821026881E+03 -0.14039144946E+03  0.26109535895E+03  0.00000000000E+00 0. -1.
          4    1    5    5  502    0 -0.31554280120E+03 -0.79416101904E+01 -0.26550703877E+03  0.41246129054E+03  0.00000000000E+00 0.  1.
          1    1    6    6  503    0 -0.23448603977E+02 -0.14402862741E+03  0.83958590099E+02  0.16835417249E+03  0.00000000000E+00 0. -1.
         -4    1    5    5    0  502 -0.52877953387E+02 -0.47174534668E+01 -0.47028816411E+01  0.53295866794E+02  0.00000000000E+00 0. -1.
         -1    1    6    6    0  503 -0.24578607977E+03 -0.48853800976E+03  0.36248417894E+03  0.65610590912E+03  0.00000000000E+00 0.  1.
<mgrwt>
<rscale>  0 0.24087223E+04</rscale>
<asrwt>0</asrwt>
<pdfrwt beam="1">  1        2 0.23584665E+00 0.24087223E+04</pdfrwt>
<pdfrwt beam="2">  1       -2 0.14556502E+00 0.24087223E+04</pdfrwt>
<totfact> 0.35449633E+00</totfact>
</mgrwt>
</event>
<event>
12    1  0.4403484E-008  0.1746583E+04  0.7818608E-02  0.8735233E-01
          2   -1    0    0  501    0  0.00000000000E+00  0.00000000000E+00  0.95644021115E+03  0.95644021115E+03  0.00000000000E+00 0. -1.
         -2   -1    0    0    0  501 -0.00000000000E+00 -0.00000000000E+00 -0.79737123086E+03  0.79737123086E+03  0.00000000000E+00 0.  1.
         23    2    1    2    0    0  0.14054351220E+03  0.29839815132E+03 -0.49604450613E+03  0.60229997434E+03  0.88944766536E+02 0.  0.
        254    2    1    2    0    0 -0.14054351220E+03 -0.29839815132E+03  0.65511348642E+03  0.11515114677E+04  0.88769986175E+03 0.  0.
         23    2    4    4    0    0 -0.38042445443E+03 -0.26435683535E+03  0.74212908523E+03  0.87973961596E+03  0.92622409947E+02 0.  0.
         23    2    4    4    0    0  0.23988094223E+03 -0.34041315972E+02 -0.87015598805E+02  0.27177185171E+03  0.87100788231E+02 0.  0.
         13    1    3    3    0    0  0.13632203633E+03  0.21612680589E+03 -0.33418885643E+03  0.42068597026E+03  0.00000000000E+00 0.  1.
        -13    1    3    3    0    0  0.42214758751E+01  0.82271345426E+02 -0.16185564970E+03  0.18161400408E+03  0.00000000000E+00 0. -1.
          2    1    5    5  502    0 -0.28553429641E+03 -0.23530696298E+03  0.54048111646E+03  0.65499544922E+03  0.00000000000E+00 0. -1.
          3    1    6    6  503    0  0.13617536675E+03 -0.61313281679E+02 -0.61744716749E+02  0.16160278174E+03  0.00000000000E+00 0.  1.
         -2    1    5    5    0  502 -0.94890158026E+02 -0.29049872365E+02  0.20164796877E+03  0.22474416674E+03  0.00000000000E+00 0.  1.
         -3    1    6    6    0  503  0.10370557547E+03  0.27271965707E+02 -0.25270882056E+02  0.11016906997E+03  0.00000000000E+00 0. -1.
<mgrwt>
<rscale>  0 0.17465828E+04</rscale>
<asrwt>0</asrwt>
<pdfrwt beam="1">  1        2 0.14714465E+00 0.17465828E+04</pdfrwt>
<pdfrwt beam="2">  1       -2 0.12267250E+00 0.17465828E+04</pdfrwt>
<totfact> 0.12811873E+01</totfact>
</mgrwt>
</event>
<event>
12    1  0.4403484E-008  0.1828958E+04  0.7818608E-02  0.8691050E-01
         -2   -1    0    0    0  501 -0.00000000000E+00  0.00000000000E+00  0.46876280948E+03  0.46876280948E+03  0.00000000000E+00 0.  1.
          2   -1    0    0  501    0  0.00000000000E+00 -0.00000000000E+00 -0.17839971796E+04  0.17839971796E+04  0.00000000000E+00 0. -1.
         23    2    1    2    0    0 -0.47280878699E+03  0.18764476681E+03 -0.10699699206E+04  0.11881331397E+04  0.89811019645E+02 0.  0.
        254    2    1    2    0    0  0.47280878699E+03 -0.18764476681E+03 -0.24526444950E+03  0.10646268493E+04  0.90250593930E+03 0.  0.
         23    2    4    4    0    0 -0.17123969399E+03 -0.31641074520E+03 -0.59048187504E+02  0.37589438397E+03  0.91493753761E+02 0.  0.
         23    2    4    4    0    0  0.64404848097E+03  0.12876597839E+03 -0.18621626200E+03  0.68873246532E+03  0.91086714285E+02 0.  0.
         13    1    3    3    0    0 -0.39589368511E+03  0.18680161142E+03 -0.94356241945E+03  0.10401618582E+04  0.00000000000E+00 0. -1.
        -13    1    3    3    0    0 -0.76915101879E+02  0.84315538731E+00 -0.12640750112E+03  0.14797128150E+03  0.00000000000E+00 0.  1.
          1    1    5    5  502    0 -0.11209213753E+02 -0.62441467558E+02 -0.40233057054E+02  0.75121782618E+02  0.00000000000E+00 0. -1.
          3    1    6    6  503    0  0.32378387117E+03  0.68799420877E+02 -0.46706681004E+02  0.33429159367E+03  0.00000000000E+00 0. -1.
         -1    1    5    5    0  502 -0.16003048023E+03 -0.25396927764E+03 -0.18815130450E+02  0.30077260135E+03  0.00000000000E+00 0.  1.
         -3    1    6    6    0  503  0.32026460980E+03  0.59966557516E+02 -0.13950958100E+03  0.35444087166E+03  0.00000000000E+00 0.  1.
<mgrwt>
<rscale>  0 0.18289577E+04</rscale>
<asrwt>0</asrwt>
<pdfrwt beam="1">  1        2 0.27446110E+00 0.18289577E+04</pdfrwt>
<pdfrwt beam="2">  1       -2 0.72117356E-01 0.18289577E+04</pdfrwt>
<totfact> 0.14443094E+01</totfact>
</mgrwt>
</event>
<event>
12    1  0.4403484E-008  0.1091477E+04  0.7818608E-02  0.9213539E-01
         -1   -1    0    0    0  501 -0.00000000000E+00  0.00000000000E+00  0.27656172997E+03  0.27656172997E+03  0.00000000000E+00 0.  1.
          1   -1    0    0  501    0  0.00000000000E+00 -0.00000000000E+00 -0.10769037284E+04  0.10769037284E+04  0.00000000000E+00 0. -1.
         23    2    1    2    0    0 -0.99873713256E+02  0.76837251375E+02 -0.23293345139E+03  0.28049076877E+03  0.92403229307E+02 0.  0.
        254    2    1    2    0    0  0.99873713256E+02 -0.76837251375E+02 -0.56740854705E+03  0.10729746896E+04  0.90191102860E+03 0.  0.
         23    2    4    4    0    0  0.51300549450E+01  0.13409278160E+03 -0.74780941104E+03  0.76506642331E+03  0.90002918293E+02 0.  0.
         23    2    4    4    0    0  0.94743658311E+02 -0.21093003298E+03  0.18040086398E+03  0.30790826632E+03  0.93782669707E+02 0.  0.
         13    1    3    3    0    0 -0.48361900491E+02  0.18683102778E+02 -0.23139504077E+02  0.56774716181E+02  0.00000000000E+00 0.  1.
        -13    1    3    3    0    0 -0.51511812765E+02  0.58154148597E+02 -0.20979394732E+03  0.22371605259E+03  0.00000000000E+00 0. -1.
          4    1    5    5  502    0 -0.32399170169E+02  0.10322497073E+03 -0.42173824598E+03  0.43539436025E+03  0.00000000000E+00 0. -1.
          1    1    6    6  503    0 -0.11641301960E+02 -0.55816894465E+02  0.19116525130E+02  0.60137235986E+02  0.00000000000E+00 0. -1.
         -4    1    5    5    0  502  0.37529225114E+02  0.30867810875E+02 -0.32607116505E+03  0.32967206306E+03  0.00000000000E+00 0.  1.
         -1    1    6    6    0  503  0.10638496027E+03 -0.15511313851E+03  0.16128433885E+03  0.24777103033E+03  0.00000000000E+00 0.  1.
<mgrwt>
<rscale>  0 0.10914767E+04</rscale>
<asrwt>0</asrwt>
<pdfrwt beam="1">  1        1 0.16567750E+00 0.10914767E+04</pdfrwt>
<pdfrwt beam="2">  1       -1 0.42547958E-01 0.10914767E+04</pdfrwt>
<totfact> 0.71489218E+01</totfact>
</mgrwt>
</event>
<event>
12    1  0.4403484E-008  0.1873677E+04  0.7818608E-02  0.8668071E-01
          2   -1    0    0  501    0  0.00000000000E+00  0.00000000000E+00  0.23860781921E+04  0.23860781921E+04  0.00000000000E+00 0.  1.
         -2   -1    0    0    0  501 -0.00000000000E+00 -0.00000000000E+00 -0.36782785417E+03  0.36782785417E+03  0.00000000000E+00 0. -1.
         23    2    1    2    0    0 -0.10610839405E+02 -0.62806252723E+03  0.26819791263E+03  0.68887320871E+03  0.89671898108E+02 0.  0.
        254    2    1    2    0    0  0.10610839405E+02  0.62806252723E+03  0.17500524253E+04  0.20650328376E+04  0.89838855788E+03 0.  0.
         23    2    4    4    0    0  0.32690409797E+03 -0.50345255145E+01  0.84491510310E+03  0.91151864467E+03  0.10046428431E+03 0.  0.
         23    2    4    4    0    0 -0.31629325857E+03  0.63309705274E+03  0.90513732222E+03  0.11535141929E+04  0.10231381912E+03 0.  0.
         13    1    3    3    0    0 -0.47103273671E+02 -0.41651901776E+03  0.16219875007E+03  0.44946106068E+03  0.00000000000E+00 0. -1.
        -13    1    3    3    0    0  0.36492434265E+02 -0.21154350947E+03  0.10599916256E+03  0.23941214802E+03  0.00000000000E+00 0.  1.
          2    1    5    5  502    0  0.26358835085E+03 -0.18253849832E+02  0.76103251086E+03  0.80559450365E+03  0.00000000000E+00 0. -1.
          1    1    6    6  503    0 -0.21444525985E+03  0.51132729379E+03  0.66789597255E+03  0.86805956074E+03  0.00000000000E+00 0. -1.
         -2    1    5    5    0  502  0.63315747122E+02  0.13219324317E+02  0.83882592247E+02  0.10592414102E+03  0.00000000000E+00 0.  1.
         -1    1    6    6    0  503 -0.10184799872E+03  0.12176975895E+03  0.23724134966E+03  0.28545463217E+03  0.00000000000E+00 0.  1.
<mgrwt>
<rscale>  0 0.18736766E+04</rscale>
<asrwt>0</asrwt>
<pdfrwt beam="1">  1        2 0.36708894E+00 0.18736766E+04</pdfrwt>
<pdfrwt beam="2">  1       -2 0.56588902E-01 0.18736766E+04</pdfrwt>
<totfact> 0.11139463E+01</totfact>
</mgrwt>
</event>
<event>
12    1  0.4403484E-008  0.1307199E+04  0.7818608E-02  0.9023876E-01
          1   -1    0    0  501    0  0.00000000000E+00  0.00000000000E+00  0.12233950265E+04  0.12233950265E+04  0.00000000000E+00 0. -1.
         -1   -1    0    0    0  501 -0.00000000000E+00 -0.00000000000E+00 -0.34918586359E+03  0.34918586359E+03  0.00000000000E+00 0.  1.
         23    2    1    2    0    0 -0.18817409929E+03  0.26480239604E+03  0.32309145962E+03  0.46808568376E+03  0.95845268401E+02 0.  0.
        254    2    1    2    0    0  0.18817409929E+03 -0.26480239604E+03  0.55111770325E+03  0.11044952063E+04  0.90036055960E+03 0.  0.
         23    2    4    4    0    0  0.44485231677E+03 -0.38939967807E+03  0.17426447036E+03  0.62319113831E+03  0.92051052240E+02 0.  0.
         23    2    4    4    0    0 -0.25667821749E+03  0.12459728203E+03  0.37685323289E+03  0.48130406798E+03  0.90703123937E+02 0.  0.
         13    1    3    3    0    0 -0.66915161959E+02  0.55447102811E+02  0.13959214272E+03  0.16443231561E+03  0.00000000000E+00 0. -1.
        -13    1    3    3    0    0 -0.12125893733E+03  0.20935529323E+03  0.18349931690E+03  0.30365336815E+03  0.00000000000E+00 0.  1.
          4    1    5    5  502    0  0.24207479231E+03 -0.26455641332E+03  0.82265742924E+02  0.36791025177E+03  0.00000000000E+00 0. -1.
          1    1    6    6  503    0 -0.24986937841E+03  0.13703182237E+03  0.35464329924E+03  0.45495526846E+03  0.00000000000E+00 0. -1.
         -4    1    5    5    0  502  0.20277752446E+03 -0.12484326475E+03  0.91998727433E+02  0.25528088654E+03  0.00000000000E+00 0.  1.
         -1    1    6    6    0  503 -0.68088390793E+01 -0.12434540340E+02  0.22209933653E+02  0.26348799517E+02  0.00000000000E+00 0.  1.
<mgrwt>
<rscale>  0 0.13071989E+04</rscale>
<asrwt>0</asrwt>
<pdfrwt beam="1">  1        1 0.18821462E+00 0.13071989E+04</pdfrwt>
<pdfrwt beam="2">  1       -1 0.53720903E-01 0.13071989E+04</pdfrwt>
<totfact> 0.35274839E+01</totfact>
</mgrwt>
</event>
<event>
12    1  0.4403484E-008  0.1260387E+04  0.7818608E-02  0.9061582E-01
          1   -1    0    0  501    0  0.00000000000E+00  0.00000000000E+00  0.16735823934E+04  0.16735823934E+04  0.00000000000E+00 0. -1.
         -1   -1    0    0    0  501 -0.00000000000E+00 -0.00000000000E+00 -0.23730181415E+03  0.23730181415E+03  0.00000000000E+00 0.  1.
         23    2    1    2    0    0 -0.11260373042E+03  0.25802652478E+03  0.21439820981E+03  0.36526083086E+03  0.90507428410E+02 0.  0.
        254    2    1    2    0    0  0.11260373042E+03 -0.25802652478E+03  0.12218823694E+04  0.15456233767E+04  0.90371334515E+03 0.  0.
         23    2    4    4    0    0  0.27486333774E+03  0.86488646611E+02  0.46872193456E+02  0.30726086264E+03  0.95823247524E+02 0.  0.
         23    2    4    4    0    0 -0.16225960733E+03 -0.34451517139E+03  0.11750101760E+04  0.12383625140E+04  0.88735105992E+02 0.  0.
         13    1    3    3    0    0 -0.59173341657E+02  0.22488222787E+03  0.16184910387E+03  0.28331719537E+03  0.00000000000E+00 0.  1.
        -13    1    3    3    0    0 -0.53430388760E+02  0.33144296911E+02  0.52549105940E+02  0.81943635481E+02  0.00000000000E+00 0. -1.
          2    1    5    5  502    0  0.97754463331E+00 -0.62101653492E+01 -0.10725474640E+02  0.12432117818E+02  0.00000000000E+00 0. -1.
          4    1    6    6  503    0 -0.10734468216E+03 -0.23482166834E+03  0.91731598145E+03  0.95295997111E+03  0.00000000000E+00 0. -1.
         -2    1    5    5    0  502  0.27388579311E+03  0.92698811960E+02  0.57597668096E+02  0.29482874483E+03  0.00000000000E+00 0.  1.
         -4    1    6    6    0  503 -0.54914925162E+02 -0.10969350305E+03  0.25769419451E+03  0.28540254291E+03  0.00000000000E+00 0.  1.
<mgrwt>
<rscale>  0 0.12603875E+04</rscale>
<asrwt>0</asrwt>
<pdfrwt beam="1">  1        1 0.25747421E+00 0.12603875E+04</pdfrwt>
<pdfrwt beam="2">  1       -1 0.36507973E-01 0.12603875E+04</pdfrwt>
<totfact> 0.35216522E+01</totfact>
</mgrwt>
</event>
<event>
12    1  0.4403484E-008  0.2101720E+04  0.7818608E-02  0.8560486E-01
         -1   -1    0    0    0  501 -0.00000000000E+00  0.00000000000E+00  0.11396119448E+04  0.11396119448E+04  0.00000000000E+00 0.  1.
          1   -1    0    0  501    0  0.00000000000E+00 -0.00000000000E+00 -0.96902020794E+03  0.96902020794E+03  0.00000000000E+00 0. -1.
         23    2    1    2    0    0 -0.84091016431E+02 -0.91487494613E+02  0.91127165936E+03  0.92416631134E+03  0.90697701997E+02 0.  0.
        254    2    1    2    0    0  0.84091016431E+02  0.91487494613E+02 -0.74067992250E+03  0.11844658414E+04  0.91592102342E+03 0.  0.
         23    2    4    4    0    0  0.15748138637E+03 -0.38872167160E+03 -0.37221096950E+03  0.56809814037E+03  0.91047055195E+02 0.  0.
         23    2    4    4    0    0 -0.73390369937E+02  0.48020916621E+03 -0.36846895300E+03  0.61636770103E+03  0.90292767338E+02 0.  0.
         13    1    3    3    0    0 -0.34240638682E+02  0.13731205250E+02  0.18835980549E+03  0.19193848926E+03  0.00000000000E+00 0. -1.
        -13    1    3    3    0    0 -0.49850377749E+02 -0.10521869986E+03  0.72291185387E+03  0.73222782208E+03  0.00000000000E+00 0.  1.
          1    1    5    5  502    0  0.53633781252E+01 -0.19769678319E+02  0.25460959527E+01  0.20641913922E+02  0.00000000000E+00 0. -1.
          3    1    6    6  503    0  0.20159025527E+02  0.72864502794E+02 -0.46203230615E+02  0.88602260676E+02  0.00000000000E+00 0. -1.
         -1    1    5    5    0  502  0.15211800824E+03 -0.36895199328E+03 -0.37475706545E+03  0.54745622645E+03  0.00000000000E+00 0.  1.
         -3    1    6    6    0  503 -0.93549395464E+02  0.40734466342E+03 -0.32226572239E+03  0.52776544035E+03  0.00000000000E+00 0.  1.
<mgrwt>
<rscale>  0 0.21017203E+04</rscale>
<asrwt>0</asrwt>
<pdfrwt beam="1">  1        1 0.14908003E+00 0.21017203E+04</pdfrwt>
<pdfrwt beam="2">  1       -1 0.17532491E+00 0.21017203E+04</pdfrwt>
<totfact> 0.33110499E+00</totfact>
</mgrwt>
</event>
<event>
12    1  0.4403484E-008  0.1629523E+04  0.7818608E-02  0.8802614E-01
         -2   -1    0    0    0  501 -0.00000000000E+00  0.00000000000E+00  0.72873472854E+03  0.72873472854E+03  0.00000000000E+00 0.  1.
          2   -1    0    0  501    0  0.00000000000E+00 -0.00000000000E+00 -0.91094330219E+03  0.91094330219E+03  0.00000000000E+00 0. -1.
         23    2    1    2    0    0 -0.26550597781E+03  0.54302098926E+02  0.42113649211E+03  0.50878688356E+03  0.89810944171E+02 0.  0.
        254    2    1    2    0    0  0.26550597781E+03 -0.54302098926E+02 -0.60334506576E+03  0.11308911472E+04  0.91730440760E+03 0.  0.
         23    2    4    4    0    0  0.18779033095E+03  0.37428210987E+03 -0.52763065573E+03  0.67959841304E+03  0.90042145507E+02 0.  0.
         23    2    4    4    0    0  0.77715646852E+02 -0.42858420880E+03 -0.75714410030E+02  0.45129273414E+03  0.90599747269E+02 0.  0.
         13    1    3    3    0    0 -0.30828579586E+00  0.17717475759E+02  0.23571936366E+02  0.29489662111E+02  0.00000000000E+00 0. -1.
        -13    1    3    3    0    0 -0.26519769201E+03  0.36584623167E+02  0.39756455574E+03  0.47929722144E+03  0.00000000000E+00 0.  1.
          1    1    5    5  502    0  0.60392280438E+02  0.19155371118E+03 -0.20023803211E+03  0.28361121506E+03  0.00000000000E+00 0. -1.
          3    1    6    6  503    0 -0.18064614019E+02 -0.97343657633E+02 -0.38945857769E+01  0.99082217170E+02  0.00000000000E+00 0. -1.
         -1    1    5    5    0  502  0.12739805052E+03  0.18272839869E+03 -0.32739262361E+03  0.39598719798E+03  0.00000000000E+00 0.  1.
         -3    1    6    6    0  503  0.95780260872E+02 -0.33124055117E+03 -0.71819824253E+02  0.35221051697E+03  0.00000000000E+00 0.  1.
<mgrwt>
<rscale>  0 0.16295227E+04</rscale>
<asrwt>0</asrwt>
<pdfrwt beam="1">  1        2 0.14014512E+00 0.16295227E+04</pdfrwt>
<pdfrwt beam="2">  1       -2 0.11211304E+00 0.16295227E+04</pdfrwt>
<totfact> 0.17304239E+01</totfact>
</mgrwt>
</event>
<event>
12    1  0.4403484E-008  0.1885911E+04  0.7818608E-02  0.8661901E-01
         -2   -1    0    0    0  501 -0.00000000000E+00  0.00000000000E+00  0.21290320265E+03  0.21290320265E+03  0.00000000000E+00 0.  1.
          2   -1    0    0  501    0  0.00000000000E+00 -0.00000000000E+00 -0.41763839637E+04  0.41763839637E+04  0.00000000000E+00 0. -1.
         23    2    1    2    0    0  0.32464087189E+03  0.62055688898E+03 -0.19617776793E+04  0.20850633225E+04  0.91841426309E+02 0.  0.
        254    2    1    2    0    0 -0.32464087189E+03 -0.62055688898E+03 -0.20017030817E+04  0.23042238438E+04  0.90119351250E+03 0.  0.
         23    2    4    4    0    0 -0.34061953181E+03 -0.66668214802E+03 -0.80510077951E+03  0.11031335045E+04  0.90716655198E+02 0.  0.
         23    2    4    4    0    0  0.15978659923E+02  0.46125259037E+02 -0.11966023022E+04  0.12010903394E+04  0.91531833997E+02 0.  0.
         13    1    3    3    0    0  0.24769654938E+03  0.40835666997E+03 -0.14190698881E+04  0.14972869123E+04  0.00000000000E+00 0. -1.
        -13    1    3    3    0    0  0.76944322508E+02  0.21220021901E+03 -0.54270779122E+03  0.58777641018E+03  0.00000000000E+00 0.  1.
          3    1    5    5  502    0 -0.22861764565E+02 -0.47537595183E+02 -0.27123105481E+02  0.59313961980E+02  0.00000000000E+00 0. -1.
          3    1    6    6  503    0 -0.30498596215E+02  0.39887502196E+02 -0.40507264638E+03  0.40817278945E+03  0.00000000000E+00 0. -1.
         -3    1    5    5    0  502 -0.31775776725E+03 -0.61914455284E+03 -0.77797767403E+03  0.10438195425E+04  0.00000000000E+00 0.  1.
         -3    1    6    6    0  503  0.46477256138E+02  0.62377568412E+01 -0.79152965580E+03  0.79291754991E+03  0.00000000000E+00 0.  1.
<mgrwt>
<rscale>  0 0.18859115E+04</rscale>
<asrwt>0</asrwt>
<pdfrwt beam="1">  1        2 0.64252064E+00 0.18859115E+04</pdfrwt>
<pdfrwt beam="2">  1       -2 0.32754337E-01 0.18859115E+04</pdfrwt>
<totfact> 0.20166061E+00</totfact>
</mgrwt>
</event>
<event>
12    1  0.4403484E-008  0.1467908E+04  0.7818608E-02  0.8906079E-01
          2   -1    0    0  501    0  0.00000000000E+00  0.00000000000E+00  0.18994218118E+04  0.18994218118E+04  0.00000000000E+00 0. -1.
         -2   -1    0    0    0  501 -0.00000000000E+00 -0.00000000000E+00 -0.28360651339E+03  0.28360651339E+03  0.00000000000E+00 0.  1.
         23    2    1    2    0    0 -0.19099888428E+03  0.32319806921E+03  0.13588387672E+03  0.40968350747E+03  0.91861758115E+02 0.  0.
        254    2    1    2    0    0  0.19099888428E+03 -0.32319806921E+03  0.14799314217E+04  0.17733448178E+04  0.90200735247E+03 0.  0.
         23    2    4    4    0    0 -0.32069939533E+03  0.10522530233E+02  0.33590306073E+03  0.47345563134E+03  0.91490670724E+02 0.  0.
         23    2    4    4    0    0  0.51169827962E+03 -0.33372059944E+03  0.11440283610E+04  0.12998891864E+04  0.87786322110E+02 0.  0.
         13    1    3    3    0    0 -0.14286074305E+02  0.81492538684E+00  0.19252469937E+02  0.23987780662E+02  0.00000000000E+00 0. -1.
        -13    1    3    3    0    0 -0.17671280998E+03  0.32238314382E+03  0.11663140679E+03  0.38569572681E+03  0.00000000000E+00 0.  1.
          2    1    5    5  502    0 -0.13984432950E+03 -0.46754590463E+01  0.21084441579E+03  0.25304873855E+03  0.00000000000E+00 0. -1.
          1    1    6    6  503    0  0.30017891650E+03 -0.19893033055E+03  0.58147078398E+03  0.68395097115E+03  0.00000000000E+00 0. -1.
         -2    1    5    5    0  502 -0.18085506583E+03  0.15197989279E+02  0.12505864494E+03  0.22040689279E+03  0.00000000000E+00 0.  1.
         -1    1    6    6    0  503  0.21151936311E+03 -0.13479026889E+03  0.56255757701E+03  0.61593821526E+03  0.00000000000E+00 0.  1.
<mgrwt>
<rscale>  0 0.14679079E+04</rscale>
<asrwt>0</asrwt>
<pdfrwt beam="1">  1        2 0.29221873E+00 0.14679079E+04</pdfrwt>
<pdfrwt beam="2">  1       -2 0.43631772E-01 0.14679079E+04</pdfrwt>
<totfact> 0.36665858E+01</totfact>
</mgrwt>
</event>
<event>
12    1  0.4403484E-008  0.1876866E+04  0.7818608E-02  0.8666458E-01
          2   -1    0    0  501    0  0.00000000000E+00  0.00000000000E+00  0.90879553444E+03  0.90879553444E+03  0.00000000000E+00 0. -1.
         -2   -1    0    0    0  501 -0.00000000000E+00 -0.00000000000E+00 -0.96903750905E+03  0.96903750905E+03  0.00000000000E+00 0.  1.
         23    2    1    2    0    0 -0.99915379238E+02  0.39947021134E+03  0.56793473834E+03  0.70747131823E+03  0.91685693246E+02 0.  0.
        254    2    1    2    0    0  0.99915379238E+02 -0.39947021134E+03 -0.62817671295E+03  0.11703617253E+04  0.89754167174E+03 0.  0.
         23    2    4    4    0    0 -0.23453062304E+03  0.16176163935E+03 -0.71632332451E+02  0.30742651527E+03  0.90600387018E+02 0.  0.
         23    2    4    4    0    0  0.33444600228E+03 -0.56123185070E+03 -0.55654438050E+03  0.86293520999E+03  0.89889991084E+02 0.  0.
         13    1    3    3    0    0 -0.53010693911E+02  0.98690247696E+02  0.20642117338E+03  0.23486080873E+03  0.00000000000E+00 0.  1.
        -13    1    3    3    0    0 -0.46904685327E+02  0.30077996365E+03  0.36151356497E+03  0.47261050950E+03  0.00000000000E+00 0. -1.
          1    1    6    6  502    0  0.20075205880E+03 -0.40299060020E+03 -0.34854069197E+03  0.56937108016E+03  0.00000000000E+00 0. -1.
          1    1    5    5  503    0 -0.90311856331E+02  0.23759430911E+02  0.52283329401E+01  0.93531157464E+02  0.00000000000E+00 0. -1.
         -1    1    5    5    0  503 -0.14421876671E+03  0.13800220844E+03 -0.76860665392E+02  0.21389535781E+03  0.00000000000E+00 0.  1.
         -1    1    6    6    0  502  0.13369394348E+03 -0.15824125050E+03 -0.20800368853E+03  0.29356412983E+03  0.00000000000E+00 0.  1.
<mgrwt>
<rscale>  0 0.18768665E+04</rscale>
<asrwt>0</asrwt>
<pdfrwt beam="1">  1        2 0.13981470E+00 0.18768665E+04</pdfrwt>
<pdfrwt beam="2">  1       -2 0.14908269E+00 0.18768665E+04</pdfrwt>
<totfact> 0.82626323E+00</totfact>
</mgrwt>
</event>
<event>
12    1  0.4403484E-008  0.1190055E+04  0.7818608E-02  0.9121606E-01
         -1   -1    0    0    0  501 -0.00000000000E+00  0.00000000000E+00  0.32319662048E+03  0.32319662048E+03  0.00000000000E+00 0.  1.
          1   -1    0    0  501    0  0.00000000000E+00 -0.00000000000E+00 -0.10954870956E+04  0.10954870956E+04  0.00000000000E+00 0. -1.
         23    2    1    2    0    0 -0.58525433192E+01 -0.43740964410E+02  0.11243986430E+03  0.15180931121E+03  0.91955530860E+02 0.  0.
        254    2    1    2    0    0  0.58525433192E+01  0.43740964410E+02 -0.88473033938E+03  0.12668744048E+04  0.90569059835E+03 0.  0.
         23    2    4    4    0    0  0.40305242004E+03  0.17851524014E+03 -0.29797990975E+03  0.53973860659E+03  0.90591349297E+02 0.  0.
         23    2    4    4    0    0 -0.39719987672E+03 -0.13477427573E+03 -0.58675042963E+03  0.72713579822E+03  0.92296017916E+02 0.  0.
         11    1    3    3    0    0 -0.14455558145E+02 -0.68283787342E+02  0.10241443624E+03  0.12393690139E+03  0.00000000000E+00 0. -1.
        -11    1    3    3    0    0  0.86030148257E+01  0.24542822933E+02  0.10025428060E+02  0.27872409824E+02  0.00000000000E+00 0.  1.
          4    1    5    5  502    0  0.18006706980E+03  0.91075075443E+02 -0.18943203521E+03  0.27677303871E+03  0.00000000000E+00 0. -1.
          3    1    6    6  503    0 -0.18660412410E+03 -0.25554432786E+02 -0.21172851718E+03  0.28337800400E+03  0.00000000000E+00 0. -1.
         -4    1    5    5    0  502  0.22298535024E+03  0.87440164693E+02 -0.10854787455E+03  0.26296556788E+03  0.00000000000E+00 0.  1.
         -3    1    6    6    0  503 -0.21059575263E+03 -0.10921984294E+03 -0.37502191245E+03  0.44375779422E+03  0.00000000000E+00 0.  1.
<mgrwt>
<rscale>  0 0.11900550E+04</rscale>
<asrwt>0</asrwt>
<pdfrwt beam="1">  1        1 0.16853648E+00 0.11900550E+04</pdfrwt>
<pdfrwt beam="2">  1       -1 0.49722556E-01 0.11900550E+04</pdfrwt>
<totfact> 0.51325884E+01</totfact>
</mgrwt>
</event>
<event>
12    1  0.4403484E-008  0.1831832E+04  0.7818608E-02  0.8689552E-01
         -1   -1    0    0    0  501 -0.00000000000E+00  0.00000000000E+00  0.81660176855E+03  0.81660176855E+03  0.00000000000E+00 0.  1.
          1   -1    0    0  501    0  0.00000000000E+00 -0.00000000000E+00 -0.10273087157E+04  0.10273087157E+04  0.00000000000E+00 0. -1.
         23    2    1    2    0    0  0.55399331782E+03  0.40133751245E+03  0.67137594386E+01  0.69022294711E+03  0.91554612485E+02 0.  0.
        254    2    1    2    0    0 -0.55399331782E+03 -0.40133751245E+03 -0.21742070663E+03  0.11536875372E+04  0.90318479542E+03 0.  0.
         23    2    4    4    0    0  0.13496349654E+03 -0.22913930050E+03 -0.32452951731E+03  0.42976495567E+03  0.93051303521E+02 0.  0.
         23    2    4    4    0    0 -0.68895681435E+03 -0.17219821195E+03  0.10710881068E+03  0.72392258151E+03  0.90982912939E+02 0.  0.
         13    1    3    3    0    0  0.38851748440E+03  0.33066137715E+03  0.94005915353E+01  0.51026576717E+03  0.00000000000E+00 0. -1.
        -13    1    3    3    0    0  0.16547583341E+03  0.70676135299E+02 -0.26868320967E+01  0.17995717994E+03  0.00000000000E+00 0.  1.
          2    1    5    5  502    0  0.14231528505E+03 -0.23243537587E+03 -0.32063365156E+03  0.42081561619E+03  0.00000000000E+00 0. -1.
          1    1    6    6  503    0 -0.49101519741E+03 -0.12098174152E+03  0.11759800535E+03  0.51919340975E+03  0.00000000000E+00 0. -1.
         -2    1    5    5    0  502 -0.73517885160E+01  0.32960753701E+01 -0.38958657480E+01  0.89493394815E+01  0.00000000000E+00 0.  1.
         -1    1    6    6    0  503 -0.19794161694E+03 -0.51216470433E+02 -0.10489194674E+02  0.20472917175E+03  0.00000000000E+00 0.  1.
<mgrwt>
<rscale>  0 0.18318320E+04</rscale>
<asrwt>0</asrwt>
<pdfrwt beam="1">  1        1 0.15804750E+00 0.18318320E+04</pdfrwt>
<pdfrwt beam="2">  1       -1 0.12563104E+00 0.18318320E+04</pdfrwt>
<totfact> 0.74942499E+00</totfact>
</mgrwt>
</event>
<event>
12    1  0.4403484E-008  0.3039159E+04  0.7818608E-02  0.8232636E-01
          2   -1    0    0  501    0  0.00000000000E+00  0.00000000000E+00  0.23526301913E+04  0.23526301913E+04  0.00000000000E+00 0. -1.
         -2   -1    0    0    0  501 -0.00000000000E+00 -0.00000000000E+00 -0.98150665268E+03  0.98150665268E+03  0.00000000000E+00 0.  1.
         23    2    1    2    0    0  0.31563363747E+03  0.53372632483E+03 -0.72506391768E+03  0.95892798030E+03  0.96627137779E+02 0.  0.
        254    2    1    2    0    0 -0.31563363747E+03 -0.53372632483E+03  0.20961874563E+04  0.23752088637E+04  0.92904623741E+03 0.  0.
         23    2    4    4    0    0 -0.28492646143E+03 -0.31895599545E+03  0.20957729774E+04  0.21408579073E+04  0.89956608223E+02 0.  0.
         23    2    4    4    0    0 -0.30707176047E+02 -0.21477032937E+03  0.41447898558E+00  0.23435095637E+03  0.88605721716E+02 0.  0.
         11    1    3    3    0    0  0.28154259413E+03  0.39772755028E+03 -0.55766270767E+03  0.74056811442E+03  0.00000000000E+00 0.  1.
        -11    1    3    3    0    0  0.34091043339E+02  0.13599877455E+03 -0.16740121001E+03  0.21835986588E+03  0.00000000000E+00 0. -1.
          3    1    5    5  502    0 -0.58120759858E+02 -0.22327591804E+02  0.36393937842E+03  0.36922678024E+03  0.00000000000E+00 0. -1.
          3    1    6    6  503    0  0.98160842229E+01 -0.78071010299E+02  0.37298448219E+02  0.87078197031E+02  0.00000000000E+00 0. -1.
         -3    1    5    5    0  502 -0.22680570157E+03 -0.29662840365E+03  0.17318335989E+04  0.17716311271E+04  0.00000000000E+00 0.  1.
         -3    1    6    6    0  503 -0.40523260270E+02 -0.13669931907E+03 -0.36883969233E+02  0.14727275934E+03  0.00000000000E+00 0.  1.
<mgrwt>
<rscale>  0 0.30391592E+04</rscale>
<asrwt>0</asrwt>
<pdfrwt beam="1">  1        2 0.36194311E+00 0.30391592E+04</pdfrwt>
<pdfrwt beam="2">  1       -2 0.15100102E+00 0.30391592E+04</pdfrwt>
<totfact> 0.10627295E+00</totfact>
</mgrwt>
</event>
<event>
12    1  0.4403484E-008  0.2075449E+04  0.7818608E-02  0.8572136E-01
         -2   -1    0    0    0  501 -0.00000000000E+00  0.00000000000E+00  0.74905059714E+03  0.74905059714E+03  0.00000000000E+00 0.  1.
          2   -1    0    0  501    0  0.00000000000E+00 -0.00000000000E+00 -0.14376489461E+04  0.14376489461E+04  0.00000000000E+00 0. -1.
         23    2    1    2    0    0  0.56831347929E+03 -0.34347064392E+03  0.26457581259E+03  0.72075456703E+03  0.92382310597E+02 0.  0.
        254    2    1    2    0    0 -0.56831347929E+03  0.34347064392E+03 -0.95317416157E+03  0.14659449762E+04  0.89414842006E+03 0.  0.
         23    2    4    4    0    0  0.81194214582E+02 -0.47720781197E+02 -0.61836359298E+03  0.63189153315E+03  0.89686136648E+02 0.  0.
         23    2    4    4    0    0 -0.64950769387E+03  0.39119142512E+03 -0.33481056859E+03  0.83405344308E+03  0.93037914850E+02 0.  0.
         11    1    3    3    0    0  0.11883727101E+03 -0.90696405210E+02  0.98366294314E+02  0.17895268301E+03  0.00000000000E+00 0. -1.
        -11    1    3    3    0    0  0.44947620827E+03 -0.25277423871E+03  0.16620951828E+03  0.54180188402E+03  0.00000000000E+00 0.  1.
          4    1    5    5  502    0 -0.14613728451E+02 -0.17190036086E+02 -0.21510372371E+03  0.21628377275E+03  0.00000000000E+00 0. -1.
          1    1    6    6  503    0 -0.21344341796E+03  0.12147692758E+03 -0.15640929498E+03  0.29116765645E+03  0.00000000000E+00 0. -1.
         -4    1    5    5    0  502  0.95807943033E+02 -0.30530745111E+02 -0.40325986927E+03  0.41560776040E+03  0.00000000000E+00 0.  1.
         -1    1    6    6    0  503 -0.43606427591E+03  0.26971449754E+03 -0.17840127361E+03  0.54288578663E+03  0.00000000000E+00 0.  1.
<mgrwt>
<rscale>  0 0.20754487E+04</rscale>
<asrwt>0</asrwt>
<pdfrwt beam="1">  1        2 0.22117676E+00 0.20754487E+04</pdfrwt>
<pdfrwt beam="2">  1       -2 0.11523855E+00 0.20754487E+04</pdfrwt>
<totfact> 0.74615342E+00</totfact>
</mgrwt>
</event>
<event>
12    1  0.4403484E-008  0.1581162E+04  0.7818608E-02  0.8832205E-01
         -1   -1    0    0    0  501 -0.00000000000E+00  0.00000000000E+00  0.25615394682E+04  0.25615394682E+04  0.00000000000E+00 0.  1.
          1   -1    0    0  501    0  0.00000000000E+00 -0.00000000000E+00 -0.24400099524E+03  0.24400099524E+03  0.00000000000E+00 0. -1.
         23    2    1    2    0    0 -0.40323195356E+03  0.33414684868E+03  0.90955827907E+03  0.10533130759E+04  0.89005887544E+02 0.  0.
        254    2    1    2    0    0  0.40323195356E+03 -0.33414684868E+03  0.14079801939E+04  0.17522273875E+04  0.90202132254E+03 0.  0.
         23    2    4    4    0    0  0.37983716707E+03  0.19698459156E+03  0.94530364663E+03  0.10417889095E+04  0.92983573029E+02 0.  0.
         23    2    4    4    0    0  0.23394786486E+02 -0.53113144024E+03  0.46267654724E+03  0.71043847798E+03  0.89472458281E+02 0.  0.
         13    1    3    3    0    0 -0.33475404049E+03  0.28402522662E+03  0.81876837943E+03  0.92903835020E+03  0.00000000000E+00 0.  1.
        -13    1    3    3    0    0 -0.68477913068E+02  0.50121622058E+02  0.90789899639E+02  0.12427472572E+03  0.00000000000E+00 0. -1.
          1    1    5    5  502    0  0.26666357533E+03  0.11219296878E+03  0.54146677259E+03  0.61390796580E+03  0.00000000000E+00 0. -1.
          3    1    6    6  503    0 -0.13397445754E+02 -0.31209557905E+03  0.31556773347E+03  0.44403393612E+03  0.00000000000E+00 0. -1.
         -1    1    5    5    0  502  0.11317359174E+03  0.84791622773E+02  0.40383687404E+03  0.42788094371E+03  0.00000000000E+00 0.  1.
         -3    1    6    6    0  503  0.36792232241E+02 -0.21903586118E+03  0.14710881377E+03  0.26640454187E+03  0.00000000000E+00 0.  1.
<mgrwt>
<rscale>  0 0.15811618E+04</rscale>
<asrwt>0</asrwt>
<pdfrwt beam="1">  1        1 0.37538616E-01 0.15811618E+04</pdfrwt>
<pdfrwt beam="2">  1       -1 0.39408298E+00 0.15811618E+04</pdfrwt>
<totfact> 0.87083264E-01</totfact>
</mgrwt>
</event>
<event>
12    1  0.4403484E-008  0.1661477E+04  0.7818608E-02  0.8783646E-01
          2   -1    0    0  501    0  0.00000000000E+00  0.00000000000E+00  0.20176174042E+04  0.20176174042E+04  0.00000000000E+00 0. -1.
         -2   -1    0    0    0  501 -0.00000000000E+00 -0.00000000000E+00 -0.34205003376E+03  0.34205003376E+03  0.00000000000E+00 0.  1.
         23    2    1    2    0    0 -0.23644823499E+03  0.26015976820E+03  0.12492730497E+04  0.13010901629E+04  0.92528842440E+02 0.  0.
        254    2    1    2    0    0  0.23644823499E+03 -0.26015976820E+03  0.42629432082E+03  0.10585772751E+04  0.90292199357E+03 0.  0.
         23    2    4    4    0    0  0.43849396671E+01 -0.21236096348E+03  0.66873138765E+03  0.70759462833E+03  0.91499085867E+02 0.  0.
         23    2    4    4    0    0  0.23206329532E+03 -0.47798804721E+02 -0.24243706683E+03  0.35098264672E+03  0.90966961911E+02 0.  0.
         11    1    3    3    0    0 -0.16098898624E+03  0.19308841524E+03  0.72949457678E+03  0.77159764602E+03  0.00000000000E+00 0. -1.
        -11    1    3    3    0    0 -0.75459248748E+02  0.67071352958E+02  0.51977847288E+03  0.52949251693E+03  0.00000000000E+00 0.  1.
          2    1    5    5  502    0  0.13088332570E+02 -0.19899237235E+03  0.50288743685E+03  0.54098525197E+03  0.00000000000E+00 0. -1.
          1    1    6    6  503    0  0.19610162704E+03 -0.10009196414E+02 -0.21794512302E+03  0.29335321507E+03  0.00000000000E+00 0. -1.
         -2    1    5    5    0  502 -0.87033929025E+01 -0.13368591126E+02  0.16584395080E+03  0.16660937637E+03  0.00000000000E+00 0.  1.
         -1    1    6    6    0  503  0.35961668279E+02 -0.37789608307E+02 -0.24491943808E+02  0.57629431655E+02  0.00000000000E+00 0.  1.
<mgrwt>
<rscale>  0 0.16614766E+04</rscale>
<asrwt>0</asrwt>
<pdfrwt beam="1">  1        2 0.31040267E+00 0.16614766E+04</pdfrwt>
<pdfrwt beam="2">  1       -2 0.52623084E-01 0.16614766E+04</pdfrwt>
<totfact> 0.21244237E+01</totfact>
</mgrwt>
</event>
<event>
12    1  0.4403484E-008  0.1516080E+04  0.7818608E-02  0.8873830E-01
          2   -1    0    0  501    0  0.00000000000E+00  0.00000000000E+00  0.27856895712E+04  0.27856895712E+04  0.00000000000E+00 0. -1.
         -2   -1    0    0    0  501 -0.00000000000E+00 -0.00000000000E+00 -0.20627745572E+03  0.20627745572E+03  0.00000000000E+00 0.  1.
         23    2    1    2    0    0  0.24253772862E+03  0.92517292087E+02  0.16399214474E+04  0.16628310253E+04  0.90998163767E+02 0.  0.
        254    2    1    2    0    0 -0.24253772862E+03 -0.92517292087E+02  0.93949066808E+03  0.13291360017E+04  0.90364583569E+03 0.  0.
         23    2    4    4    0    0  0.20609219917E+03  0.14378983916E+03  0.72170659307E+03  0.77001754547E+03  0.94430405355E+02 0.  0.
         23    2    4    4    0    0 -0.44862992780E+03 -0.23630713125E+03  0.21778407501E+03  0.55911845619E+03  0.89853616097E+02 0.  0.
         13    1    3    3    0    0  0.76798604428E+02 -0.86366348513E+01  0.35441421711E+03  0.36274240777E+03  0.00000000000E+00 0.  1.
        -13    1    3    3    0    0  0.16573912420E+03  0.10115392694E+03  0.12855072303E+04  0.13000886175E+04  0.00000000000E+00 0. -1.
          2    1    5    5  502    0  0.15487261111E+03  0.93905541720E+02  0.38058807146E+03  0.42148672171E+03  0.00000000000E+00 0. -1.
          4    1    6    6  503    0 -0.97466558951E+02 -0.95875273388E+02  0.54765939702E+02  0.14727900839E+03  0.00000000000E+00 0.  1.
         -2    1    5    5    0  502  0.51219588064E+02  0.49884297444E+02  0.34111852161E+03  0.34853082377E+03  0.00000000000E+00 0.  1.
         -4    1    6    6    0  503 -0.35116336884E+03 -0.14043185786E+03  0.16301813531E+03  0.41183944780E+03  0.00000000000E+00 0. -1.
<mgrwt>
<rscale>  0 0.15160804E+04</rscale>
<asrwt>0</asrwt>
<pdfrwt beam="1">  1        2 0.42856760E+00 0.15160804E+04</pdfrwt>
<pdfrwt beam="2">  1       -2 0.31734995E-01 0.15160804E+04</pdfrwt>
<totfact> 0.21110341E+01</totfact>
</mgrwt>
</event>
<event>
12    1  0.4403484E-008  0.1725066E+04  0.7818608E-02  0.8747196E-01
          1   -1    0    0  501    0  0.00000000000E+00  0.00000000000E+00  0.87499601745E+03  0.87499601745E+03  0.00000000000E+00 0. -1.
         -1   -1    0    0    0  501 -0.00000000000E+00 -0.00000000000E+00 -0.85024762933E+03  0.85024762933E+03  0.00000000000E+00 0.  1.
         23    2    1    2    0    0  0.15948119141E+03  0.51701673614E+03 -0.29668322076E+03  0.62404954462E+03  0.93146899024E+02 0.  0.
        254    2    1    2    0    0 -0.15948119141E+03 -0.51701673614E+03  0.32143160888E+03  0.11011941022E+04  0.90364241576E+03 0.  0.
         23    2    4    4    0    0  0.27192215157E+03 -0.12765673081E+03 -0.14878182756E+03  0.34725045786E+03  0.90603260631E+02 0.  0.
         23    2    4    4    0    0 -0.43140334298E+03 -0.38936000533E+03  0.47021343644E+03  0.75394364429E+03  0.98083050881E+02 0.  0.
         13    1    3    3    0    0  0.53629721786E+02  0.14497495163E+03 -0.13344258595E+03  0.20420775549E+03  0.00000000000E+00 0. -1.
        -13    1    3    3    0    0  0.10585146962E+03  0.37204178451E+03 -0.16324063481E+03  0.41984178913E+03  0.00000000000E+00 0.  1.
          4    1    5    5  502    0  0.27569793371E+03 -0.11195280381E+03 -0.14246535809E+03  0.32990780407E+03  0.00000000000E+00 0. -1.
          1    1    6    6  503    0 -0.34951024425E+03 -0.35783371156E+03  0.41775956764E+03  0.65170962270E+03  0.00000000000E+00 0. -1.
         -4    1    5    5    0  502 -0.37757821359E+01 -0.15703927000E+02 -0.63164694786E+01  0.17342653795E+02  0.00000000000E+00 0.  1.
         -1    1    6    6    0  503 -0.81893098728E+02 -0.31526293773E+02  0.52453868800E+02  0.10223402159E+03  0.00000000000E+00 0.  1.
<mgrwt>
<rscale>  0 0.17250661E+04</rscale>
<asrwt>0</asrwt>
<pdfrwt beam="1">  1        1 0.13461477E+00 0.17250661E+04</pdfrwt>
<pdfrwt beam="2">  1       -1 0.13080733E+00 0.17250661E+04</pdfrwt>
<totfact> 0.90492572E+00</totfact>
</mgrwt>
</event>
<event>
12    1  0.4403484E-008  0.1366422E+04  0.7818608E-02  0.8978489E-01
         -2   -1    0    0    0  501 -0.00000000000E+00  0.00000000000E+00  0.44648933077E+03  0.44648933077E+03  0.00000000000E+00 0.  1.
          2   -1    0    0  501    0  0.00000000000E+00 -0.00000000000E+00 -0.10454391895E+04  0.10454391895E+04  0.00000000000E+00 0. -1.
         23    2    1    2    0    0  0.20770084148E+03  0.22360605957E+02 -0.53315608466E+03  0.58687217249E+03  0.12854532265E+03 0.  0.
        254    2    1    2    0    0 -0.20770084148E+03 -0.22360605957E+02 -0.65793774070E+02  0.90505634778E+03  0.87815632759E+03 0.  0.
         23    2    4    4    0    0 -0.20883596700E+02  0.37199845892E+03 -0.20898395160E+03  0.43679577499E+03  0.91089400971E+02 0.  0.
         23    2    4    4    0    0 -0.18681724478E+03 -0.39435906488E+03  0.14319017754E+03  0.46826057279E+03  0.91349778779E+02 0.  0.
         11    1    3    3    0    0  0.11342158878E+03  0.65790492119E+02 -0.21116225892E+03  0.24856054644E+03  0.00000000000E+00 0.  1.
        -11    1    3    3    0    0  0.94279252701E+02 -0.43429886162E+02 -0.32199382574E+03  0.33831162604E+03  0.00000000000E+00 0. -1.
          1    1    5    5  502    0 -0.32244247194E+02  0.17812206789E+03 -0.14622202624E+03  0.23269732165E+03  0.00000000000E+00 0. -1.
          3    1    6    6  503    0 -0.60086231257E+02 -0.12812364811E+03  0.92534005629E+02  0.16908153828E+03  0.00000000000E+00 0. -1.
         -1    1    5    5    0  502  0.11360650494E+02  0.19387639104E+03 -0.62761925367E+02  0.20409845334E+03  0.00000000000E+00 0.  1.
         -3    1    6    6    0  503 -0.12673101353E+03 -0.26623541677E+03  0.50656171906E+02  0.29917903450E+03  0.00000000000E+00 0.  1.
<mgrwt>
<rscale>  0 0.13664223E+04</rscale>
<asrwt>0</asrwt>
<pdfrwt beam="1">  1        2 0.16083680E+00 0.13664223E+04</pdfrwt>
<pdfrwt beam="2">  1       -2 0.68690667E-01 0.13664223E+04</pdfrwt>
<totfact> 0.44542702E+01</totfact>
</mgrwt>
</event>
<event>
12    1  0.4403484E-008  0.2390863E+04  0.7818608E-02  0.8442932E-01
          2   -1    0    0  501    0  0.00000000000E+00  0.00000000000E+00  0.15033948620E+04  0.15033948620E+04  0.00000000000E+00 0. -1.
         -2   -1    0    0    0  501 -0.00000000000E+00 -0.00000000000E+00 -0.95055267960E+03  0.95055267960E+03  0.00000000000E+00 0.  1.
         23    2    1    2    0    0  0.10036330170E+03  0.33438398677E+03 -0.74293768161E+03  0.82581707128E+03  0.90177566643E+02 0.  0.
        254    2    1    2    0    0 -0.10036330170E+03 -0.33438398677E+03  0.12957798640E+04  0.16281304703E+04  0.92188824132E+03 0.  0.
         23    2    4    4    0    0 -0.26637394019E+03 -0.20865414609E+01  0.40389332295E+01  0.28094596167E+03  0.89190194154E+02 0.  0.
         23    2    4    4    0    0  0.16601063849E+03 -0.33229744531E+03  0.12917409308E+04  0.13471845086E+04  0.91270717334E+02 0.  0.
         13    1    3    3    0    0  0.97322604046E+02  0.17648335631E+03 -0.38411819681E+03  0.43377972917E+03  0.00000000000E+00 0.  1.
        -13    1    3    3    0    0  0.30406976544E+01  0.15790063045E+03 -0.35881948479E+03  0.39203734211E+03  0.00000000000E+00 0. -1.
          2    1    5    5  502    0 -0.21125306212E+03 -0.28279464093E+01 -0.33971616092E+02  0.21398580382E+03  0.00000000000E+00 0.  1.
          3    1    6    6  503    0  0.49596189909E+02 -0.28828866467E+02  0.18255215752E+03  0.19135353618E+03  0.00000000000E+00 0. -1.
         -2    1    5    5    0  502 -0.55120878062E+02  0.74140494847E+00  0.38010549322E+02  0.66960157851E+02  0.00000000000E+00 0. -1.
         -3    1    6    6    0  503  0.11641444858E+03 -0.30346857884E+03  0.11091887733E+04  0.11558309725E+04  0.00000000000E+00 0.  1.
<mgrwt>
<rscale>  0 0.23908626E+04</rscale>
<asrwt>0</asrwt>
<pdfrwt beam="1">  1        2 0.23129152E+00 0.23908626E+04</pdfrwt>
<pdfrwt beam="2">  1       -2 0.14623887E+00 0.23908626E+04</pdfrwt>
<totfact> 0.36447725E+00</totfact>
</mgrwt>
</event>
<event>
12    1  0.4403484E-008  0.1753092E+04  0.7818608E-02  0.8731650E-01
          2   -1    0    0  501    0  0.00000000000E+00  0.00000000000E+00  0.12019298240E+04  0.12019298240E+04  0.00000000000E+00 0. -1.
         -2   -1    0    0    0  501 -0.00000000000E+00 -0.00000000000E+00 -0.63924925583E+03  0.63924925583E+03  0.00000000000E+00 0.  1.
         23    2    1    2    0    0 -0.46543939436E+03 -0.42159778386E+03  0.72572452678E+02  0.63912820438E+03  0.94019038329E+02 0.  0.
        254    2    1    2    0    0  0.46543939436E+03  0.42159778386E+03  0.49010811553E+03  0.12020508755E+04  0.90018988062E+03 0.  0.
         23    2    4    4    0    0  0.25717508862E+03  0.15199011365E+03  0.71656323091E+03  0.78201772358E+03  0.94068247774E+02 0.  0.
         23    2    4    4    0    0  0.20826430574E+03  0.26960767021E+03 -0.22645511538E+03  0.42003315191E+03  0.95307987812E+02 0.  0.
         13    1    3    3    0    0 -0.13420581268E+03 -0.88849804846E+02  0.52103118336E+02  0.16917512500E+03  0.00000000000E+00 0. -1.
        -13    1    3    3    0    0 -0.33123358168E+03 -0.33274797901E+03  0.20469334342E+02  0.46995307938E+03  0.00000000000E+00 0.  1.
          4    1    5    5  502    0  0.21295538597E+03  0.11500305264E+03  0.65195553472E+03  0.69542916087E+03  0.00000000000E+00 0.  1.
          1    1    6    6  503    0  0.37062127029E+02  0.28179819509E+02 -0.73166672159E+02  0.86724076255E+02  0.00000000000E+00 0. -1.
         -4    1    5    5    0  502  0.44219702655E+02  0.36987061015E+02  0.64607696187E+02  0.86588562710E+02  0.00000000000E+00 0. -1.
         -1    1    6    6    0  503  0.17120217871E+03  0.24142785070E+03 -0.15328844322E+03  0.33330907565E+03  0.00000000000E+00 0.  1.
<mgrwt>
<rscale>  0 0.17530918E+04</rscale>
<asrwt>0</asrwt>
<pdfrwt beam="1">  1        2 0.18491228E+00 0.17530918E+04</pdfrwt>
<pdfrwt beam="2">  1       -2 0.98346040E-01 0.17530918E+04</pdfrwt>
<totfact> 0.15383214E+01</totfact>
</mgrwt>
</event>
<event>
12    1  0.4403484E-008  0.1510128E+04  0.7818608E-02  0.8877746E-01
          1   -1    0    0  501    0  0.00000000000E+00  0.00000000000E+00  0.12939781163E+04  0.12939781163E+04  0.00000000000E+00 0. -1.
         -1   -1    0    0    0  501 -0.00000000000E+00 -0.00000000000E+00 -0.44059621874E+03  0.44059621874E+03  0.00000000000E+00 0.  1.
         23    2    1    2    0    0  0.41352519283E+03 -0.18620992015E+03  0.45727244883E+03  0.65049180029E+03  0.91456384798E+02 0.  0.
        254    2    1    2    0    0 -0.41352519283E+03  0.18620992015E+03  0.39610944875E+03  0.10840825348E+04  0.90147380845E+03 0.  0.
         23    2    4    4    0    0 -0.68637081343E+03  0.64905510753E+02  0.27151195585E+03  0.74694938533E+03  0.94324033084E+02 0.  0.
         23    2    4    4    0    0  0.27284562060E+03  0.12130440940E+03  0.12459749290E+03  0.33713314943E+03  0.94735066327E+02 0.  0.
         11    1    3    3    0    0  0.19446491415E+03 -0.12283314754E+03  0.18388582095E+03  0.29448018629E+03  0.00000000000E+00 0.  1.
        -11    1    3    3    0    0  0.21906027869E+03 -0.63376772607E+02  0.27338662788E+03  0.35601161401E+03  0.00000000000E+00 0. -1.
          4    1    6    6  502    0  0.58362426435E+01  0.20353682949E+02  0.29381237304E+02  0.36215897660E+02  0.00000000000E+00 0. -1.
          4    1    5    5  503    0 -0.21134849028E+03 -0.20963878253E+02  0.99029627234E+02  0.23433850645E+03  0.00000000000E+00 0. -1.
         -4    1    5    5    0  503 -0.47502232315E+03  0.85869389006E+02  0.17248232861E+03  0.51261087888E+03  0.00000000000E+00 0.  1.
         -4    1    6    6    0  502  0.26700937795E+03  0.10095072645E+03  0.95216255598E+02  0.30091725177E+03  0.00000000000E+00 0.  1.
<mgrwt>
<rscale>  0 0.15101283E+04</rscale>
<asrwt>0</asrwt>
<pdfrwt beam="1">  1        1 0.19907355E+00 0.15101283E+04</pdfrwt>
<pdfrwt beam="2">  1       -1 0.67784034E-01 0.15101283E+04</pdfrwt>
<totfact> 0.19460445E+01</totfact>
</mgrwt>
</event>
<event>
12    1  0.4403484E-008  0.1278312E+04  0.7818608E-02  0.9046943E-01
          2   -1    0    0  501    0  0.00000000000E+00  0.00000000000E+00  0.10600082079E+04  0.10600082079E+04  0.00000000000E+00 0. -1.
         -2   -1    0    0    0  501 -0.00000000000E+00 -0.00000000000E+00 -0.38539355194E+03  0.38539355194E+03  0.00000000000E+00 0.  1.
         23    2    1    2    0    0  0.29898459332E+02  0.26056171797E+03  0.44972173233E+03  0.52835336547E+03  0.90118341824E+02 0.  0.
        254    2    1    2    0    0 -0.29898459332E+02 -0.26056171797E+03  0.22489292366E+03  0.91704839439E+03  0.84947901905E+03 0.  0.
         23    2    4    4    0    0  0.18692131887E+03  0.24078873844E+03  0.16297832034E+03  0.35992613960E+03  0.10032994097E+03 0.  0.
         23    2    4    4    0    0 -0.21681977820E+03 -0.50135045641E+03  0.61914603324E+02  0.55712225480E+03  0.90491393644E+02 0.  0.
         11    1    3    3    0    0  0.60384240886E+02  0.15438894414E+03  0.29238012300E+03  0.33610763000E+03  0.00000000000E+00 0. -1.
        -11    1    3    3    0    0 -0.30485781554E+02  0.10617277383E+03  0.15734160933E+03  0.19224573547E+03  0.00000000000E+00 0.  1.
          1    1    5    5  502    0  0.98063864675E+02  0.83480263497E+02  0.21751885997E+02  0.13060865397E+03  0.00000000000E+00 0. -1.
          1    1    6    6  503    0 -0.70301118738E+02 -0.81835508524E+02  0.28027343354E+02  0.11146672027E+03  0.00000000000E+00 0. -1.
         -1    1    5    5    0  502  0.88857454199E+02  0.15730847494E+03  0.14122643434E+03  0.22931748562E+03  0.00000000000E+00 0.  1.
         -1    1    6    6    0  503 -0.14651865947E+03 -0.41951494788E+03  0.33887259970E+02  0.44565553453E+03  0.00000000000E+00 0.  1.
<mgrwt>
<rscale>  0 0.12783119E+04</rscale>
<asrwt>0</asrwt>
<pdfrwt beam="1">  1        2 0.16307818E+00 0.12783119E+04</pdfrwt>
<pdfrwt beam="2">  1       -2 0.59291316E-01 0.12783119E+04</pdfrwt>
<totfact> 0.60152477E+01</totfact>
</mgrwt>
</event>
<event>
12    1  0.4403484E-008  0.1701991E+04  0.7818608E-02  0.8760230E-01
         -1   -1    0    0    0  501 -0.00000000000E+00  0.00000000000E+00  0.77293407772E+03  0.77293407772E+03  0.00000000000E+00 0.  1.
          1   -1    0    0  501    0  0.00000000000E+00 -0.00000000000E+00 -0.93694035246E+03  0.93694035246E+03  0.00000000000E+00 0. -1.
         23    2    1    2    0    0 -0.12144999341E+03 -0.68987419000E+01 -0.66056884865E+03  0.67766902200E+03  0.89924446230E+02 0.  0.
        254    2    1    2    0    0  0.12144999341E+03  0.68987419000E+01  0.49656257391E+03  0.10322054082E+04  0.89670280547E+03 0.  0.
         23    2    4    4    0    0 -0.27756061924E+03  0.80599886181E+02 -0.85780291366E+02  0.31667395163E+03  0.96891146413E+02 0.  0.
         23    2    4    4    0    0  0.39901061264E+03 -0.73701144281E+02  0.58234286528E+03  0.71553145655E+03  0.90668213323E+02 0.  0.
         11    1    3    3    0    0 -0.16169524175E+02  0.12716982595E+02 -0.21755348118E+02  0.29941114377E+02  0.00000000000E+00 0.  1.
        -11    1    3    3    0    0 -0.10528046923E+03 -0.19615724495E+02 -0.63881350053E+03  0.64772790762E+03  0.00000000000E+00 0. -1.
          1    1    5    5  502    0 -0.15536447273E+02  0.15126102101E+02  0.17148254579E+02  0.27644941558E+02  0.00000000000E+00 0. -1.
          3    1    6    6  503    0  0.10826891014E+03  0.16635903829E+02  0.12608617589E+03  0.16702285457E+03  0.00000000000E+00 0. -1.
         -1    1    5    5    0  502 -0.26202417196E+03  0.65473784079E+02 -0.10292854595E+03  0.28902901007E+03  0.00000000000E+00 0.  1.
         -3    1    6    6    0  503  0.29074170250E+03 -0.90337048110E+02  0.45625668939E+03  0.54850860198E+03  0.00000000000E+00 0.  1.
<mgrwt>
<rscale>  0 0.17019907E+04</rscale>
<asrwt>0</asrwt>
<pdfrwt beam="1">  1        1 0.14414467E+00 0.17019907E+04</pdfrwt>
<pdfrwt beam="2">  1       -1 0.11891293E+00 0.17019907E+04</pdfrwt>
<totfact> 0.10229345E+01</totfact>
</mgrwt>
</event>
<event>
12    1  0.4403484E-008  0.1684970E+04  0.7818608E-02  0.8769984E-01
          2   -1    0    0  501    0  0.00000000000E+00  0.00000000000E+00  0.47186136996E+03  0.47186136996E+03  0.00000000000E+00 0.  1.
         -2   -1    0    0    0  501 -0.00000000000E+00 -0.00000000000E+00 -0.15042141787E+04  0.15042141787E+04  0.00000000000E+00 0. -1.
         23    2    1    2    0    0 -0.47406652316E+03  0.36043226316E+03 -0.17714934333E+03  0.62801621323E+03  0.91498576666E+02 0.  0.
        254    2    1    2    0    0  0.47406652316E+03 -0.36043226316E+03 -0.85520346540E+03  0.13480593354E+04  0.85512602572E+03 0.  0.
         23    2    4    4    0    0  0.60214246809E+03 -0.48611348474E+03 -0.45951069510E+03  0.90489296591E+03  0.93804738339E+02 0.  0.
         23    2    4    4    0    0 -0.12807594493E+03  0.12568122158E+03 -0.39569277031E+03  0.44316636950E+03  0.87318070640E+02 0.  0.
         11    1    3    3    0    0 -0.24062230206E+03  0.18370570481E+03 -0.42343650781E+02  0.30567934669E+03  0.00000000000E+00 0. -1.
        -11    1    3    3    0    0 -0.23344422109E+03  0.17672655834E+03 -0.13480569255E+03  0.32233686654E+03  0.00000000000E+00 0.  1.
          2    1    5    5  502    0  0.31405442846E+03 -0.23681522668E+03 -0.18107232021E+03  0.43301134023E+03  0.00000000000E+00 0. -1.
          2    1    6    6  503    0 -0.68775023289E+01 -0.10677190279E+02 -0.89001460785E+01  0.15508547023E+02  0.00000000000E+00 0. -1.
         -2    1    5    5    0  502  0.28808803963E+03 -0.24929825806E+03 -0.27843837489E+03  0.47188162569E+03  0.00000000000E+00 0.  1.
         -2    1    6    6    0  503 -0.12119844260E+03  0.13635841186E+03 -0.38679262423E+03  0.42765782248E+03  0.00000000000E+00 0.  1.
<mgrwt>
<rscale>  0 0.16849695E+04</rscale>
<asrwt>0</asrwt>
<pdfrwt beam="1">  1        2 0.72594057E-01 0.16849695E+04</pdfrwt>
<pdfrwt beam="2">  1       -2 0.23141757E+00 0.16849695E+04</pdfrwt>
<totfact> 0.52532766E+00</totfact>
</mgrwt>
</event>
<event>
12    1  0.4403484E-008  0.1834387E+04  0.7818608E-02  0.8688224E-01
         -2   -1    0    0    0  501 -0.00000000000E+00  0.00000000000E+00  0.31966291514E+03  0.31966291514E+03  0.00000000000E+00 0.  1.
          2   -1    0    0  501    0  0.00000000000E+00 -0.00000000000E+00 -0.26316588224E+04  0.26316588224E+04  0.00000000000E+00 0. -1.
         23    2    1    2    0    0  0.41669297664E+03 -0.12704522648E+03 -0.17450136862E+04  0.18010335516E+04  0.94210203846E+02 0.  0.
        254    2    1    2    0    0 -0.41669297664E+03  0.12704522648E+03 -0.56698222105E+03  0.11502881860E+04  0.90106633797E+03 0.  0.
         23    2    4    4    0    0  0.14244406602E+03  0.19698086176E+03 -0.51512995607E+03  0.57701225560E+03  0.92154759087E+02 0.  0.
         23    2    4    4    0    0 -0.55913704266E+03 -0.69935635278E+02 -0.51852264972E+02  0.57327593036E+03  0.91822706260E+02 0.  0.
         13    1    3    3    0    0  0.33208909268E+03 -0.66302982120E+02 -0.12412436117E+04  0.12866098688E+04  0.00000000000E+00 0. -1.
        -13    1    3    3    0    0  0.84603883960E+02 -0.60742244360E+02 -0.50377007454E+03  0.51442368280E+03  0.00000000000E+00 0.  1.
          4    1    5    5  502    0  0.47660412018E+02  0.13449226301E+03 -0.33457850913E+03  0.36373405457E+03  0.00000000000E+00 0.  1.
          3    1    6    6  503    0 -0.53914943064E+03 -0.77934511622E+02 -0.64093081008E+02  0.54851054656E+03  0.00000000000E+00 0. -1.
         -4    1    5    5    0  502  0.94783654007E+02  0.62488598753E+02 -0.18055144695E+03  0.21327820103E+03  0.00000000000E+00 0. -1.
         -3    1    6    6    0  503 -0.19987612027E+02  0.79988763440E+01  0.12240816036E+02  0.24765383796E+02  0.00000000000E+00 0.  1.
<mgrwt>
<rscale>  0 0.18343868E+04</rscale>
<asrwt>0</asrwt>
<pdfrwt beam="1">  1        2 0.40487059E+00 0.18343868E+04</pdfrwt>
<pdfrwt beam="2">  1       -2 0.49178910E-01 0.18343868E+04</pdfrwt>
<totfact> 0.10760284E+01</totfact>
</mgrwt>
</event>
<event>
12    1  0.4403484E-008  0.1729945E+04  0.7818608E-02  0.8744468E-01
          1   -1    0    0  501    0  0.00000000000E+00  0.00000000000E+00  0.11179711714E+04  0.11179711714E+04  0.00000000000E+00 0. -1.
         -1   -1    0    0    0  501 -0.00000000000E+00 -0.00000000000E+00 -0.66922789251E+03  0.66922789251E+03  0.00000000000E+00 0.  1.
         23    2    1    2    0    0 -0.16674114898E+03  0.40019899906E+03 -0.28668230215E+03  0.52748062248E+03  0.89928944793E+02 0.  0.
        254    2    1    2    0    0  0.16674114898E+03 -0.40019899906E+03  0.73542558109E+03  0.12597184415E+04  0.92632495209E+03 0.  0.
         23    2    4    4    0    0 -0.24490901383E+03 -0.10904462942E+03 -0.79139797494E+02  0.29729893101E+03  0.10125408916E+03 0.  0.
         23    2    4    4    0    0  0.41165016281E+03 -0.29115436964E+03  0.81456537859E+03  0.96241951047E+03  0.92237924071E+02 0.  0.
         13    1    3    3    0    0 -0.10068329825E+03  0.16246348311E+03 -0.86719946868E+02  0.20988534746E+03  0.00000000000E+00 0. -1.
        -13    1    3    3    0    0 -0.66057850725E+02  0.23773551594E+03 -0.19996235529E+03  0.31759527502E+03  0.00000000000E+00 0.  1.
          1    1    5    5  502    0 -0.18345377104E+03 -0.10993753833E+03 -0.94695685606E+02  0.23389916912E+03  0.00000000000E+00 0. -1.
          3    1    6    6  503    0  0.29774685131E+03 -0.20554770336E+03  0.65661282418E+03  0.74969556934E+03  0.00000000000E+00 0. -1.
         -1    1    5    5    0  502 -0.61455242796E+02  0.89290891014E+00  0.15555888112E+02  0.63399761896E+02  0.00000000000E+00 0.  1.
         -3    1    6    6    0  503  0.11390331150E+03 -0.85606666282E+02  0.15795255441E+03  0.21272394112E+03  0.00000000000E+00 0.  1.
<mgrwt>
<rscale>  0 0.17299451E+04</rscale>
<asrwt>0</asrwt>
<pdfrwt beam="1">  1        1 0.17199556E+00 0.17299451E+04</pdfrwt>
<pdfrwt beam="2">  1       -1 0.10295814E+00 0.17299451E+04</pdfrwt>
<totfact> 0.10397865E+01</totfact>
</mgrwt>
</event>
<event>
12    1  0.4403484E-008  0.2188639E+04  0.7818608E-02  0.8523172E-01
         -2   -1    0    0    0  501 -0.00000000000E+00  0.00000000000E+00  0.59912595592E+03  0.59912595592E+03  0.00000000000E+00 0.  1.
          2   -1    0    0  501    0  0.00000000000E+00 -0.00000000000E+00 -0.19988033006E+04  0.19988033006E+04  0.00000000000E+00 0. -1.
         23    2    1    2    0    0  0.12366859638E+03  0.87142917799E+03 -0.83640061613E+03  0.12176184090E+04  0.91355708061E+02 0.  0.
        254    2    1    2    0    0 -0.12366859638E+03 -0.87142917799E+03 -0.56327672858E+03  0.13803108475E+04  0.90182849189E+03 0.  0.
         23    2    4    4    0    0  0.36306391426E+03 -0.56621405113E+03 -0.29406981821E+03  0.73965405332E+03  0.90538958838E+02 0.  0.
         23    2    4    4    0    0 -0.48673251064E+03 -0.30521512686E+03 -0.26920691037E+03  0.64065679419E+03  0.88904199922E+02 0.  0.
         11    1    3    3    0    0  0.54079282670E+02  0.17670981613E+03 -0.14366706984E+03  0.23407510523E+03  0.00000000000E+00 0.  1.
        -11    1    3    3    0    0  0.69589313715E+02  0.69471936186E+03 -0.69273354629E+03  0.98354330382E+03  0.00000000000E+00 0. -1.
          2    1    5    5  502    0  0.51234656859E+02 -0.10909854516E+03 -0.87775061651E+02  0.14910380299E+03  0.00000000000E+00 0.  1.
          1    1    6    6  503    0 -0.48806961070E+03 -0.29365855862E+03 -0.26198374766E+03  0.62696313925E+03  0.00000000000E+00 0. -1.
         -2    1    5    5    0  502  0.31182925740E+03 -0.45711550597E+03 -0.20629475656E+03  0.59055025032E+03  0.00000000000E+00 0. -1.
         -1    1    6    6    0  503  0.13371000556E+01 -0.11556568235E+02 -0.72231627105E+01  0.13693654935E+02  0.00000000000E+00 0.  1.
<mgrwt>
<rscale>  0 0.21886388E+04</rscale>
<asrwt>0</asrwt>
<pdfrwt beam="1">  1        2 0.30750821E+00 0.21886388E+04</pdfrwt>
<pdfrwt beam="2">  1       -2 0.92173222E-01 0.21886388E+04</pdfrwt>
<totfact> 0.61214151E+00</totfact>
</mgrwt>
</event>
<event>
12    1  0.4403484E-008  0.1438288E+04  0.7818608E-02  0.8926561E-01
         -1   -1    0    0    0  501 -0.00000000000E+00  0.00000000000E+00  0.56562464033E+03  0.56562464033E+03  0.00000000000E+00 0.  1.
          1   -1    0    0  501    0  0.00000000000E+00 -0.00000000000E+00 -0.91433085384E+03  0.91433085384E+03  0.00000000000E+00 0. -1.
         23    2    1    2    0    0 -0.10918341284E+03 -0.41527548716E+03 -0.69178860909E+02  0.44450162083E+03  0.91767250407E+02 0.  0.
        254    2    1    2    0    0  0.10918341284E+03  0.41527548716E+03 -0.27952735260E+03  0.10354538733E+04  0.89980799901E+03 0.  0.
         23    2    4    4    0    0  0.34360359879E+03  0.38124799472E+03 -0.48264976402E+03  0.71044132259E+03  0.91447315738E+02 0.  0.
         23    2    4    4    0    0 -0.23442018595E+03  0.34027492439E+02  0.20312241142E+03  0.32501255075E+03  0.90905172023E+02 0.  0.
         11    1    3    3    0    0 -0.71809230073E+02 -0.31578616218E+03 -0.90178565573E+02  0.33616906377E+03  0.00000000000E+00 0.  1.
        -11    1    3    3    0    0 -0.37374182772E+02 -0.99489324979E+02  0.20999704664E+02  0.10833255706E+03  0.00000000000E+00 0. -1.
          2    1    6    6  502    0 -0.23668723539E+03  0.39876254009E+02  0.17721268734E+03  0.29835431886E+03  0.00000000000E+00 0. -1.
          2    1    5    5  503    0  0.24594326022E+03  0.31441266851E+03 -0.33429938971E+03  0.52067215725E+03  0.00000000000E+00 0. -1.
         -2    1    5    5    0  503  0.97660338570E+02  0.66835326211E+02 -0.14835037430E+03  0.18976916534E+03  0.00000000000E+00 0.  1.
         -2    1    6    6    0  502  0.22670494453E+01 -0.58487615694E+01  0.25909724081E+02  0.26658231881E+02  0.00000000000E+00 0.  1.
<mgrwt>
<rscale>  0 0.14382880E+04</rscale>
<asrwt>0</asrwt>
<pdfrwt beam="1">  1        1 0.14066628E+00 0.14382880E+04</pdfrwt>
<pdfrwt beam="2">  1       -1 0.87019176E-01 0.14382880E+04</pdfrwt>
<totfact> 0.22404598E+01</totfact>
</mgrwt>
</event>
<event>
12    1  0.4403484E-008  0.2578435E+04  0.7818608E-02  0.8375563E-01
          2   -1    0    0  501    0  0.00000000000E+00  0.00000000000E+00  0.22149466558E+04  0.22149466558E+04  0.00000000000E+00 0. -1.
         -2   -1    0    0    0  501 -0.00000000000E+00 -0.00000000000E+00 -0.75039350490E+03  0.75039350490E+03  0.00000000000E+00 0.  1.
         23    2    1    2    0    0  0.73432293908E+03 -0.85803196387E+03  0.64531455894E+03  0.13039547962E+04  0.91750752759E+02 0.  0.
        254    2    1    2    0    0 -0.73432293908E+03  0.85803196387E+03  0.81923859193E+03  0.16613853645E+04  0.90199802048E+03 0.  0.
         23    2    4    4    0    0  0.18616166327E+03  0.23297775073E+03  0.73714858684E+02  0.31896445955E+03  0.85846658993E+02 0.  0.
         23    2    4    4    0    0 -0.92048460235E+03  0.62505421314E+03  0.74552373325E+03  0.13424209049E+04  0.91123963076E+02 0.  0.
         11    1    3    3    0    0  0.33946890959E+03 -0.41774836333E+03  0.35789563142E+03  0.64640708430E+03  0.00000000000E+00 0. -1.
        -11    1    3    3    0    0  0.39485402949E+03 -0.44028360055E+03  0.28741892752E+03  0.65754771189E+03  0.00000000000E+00 0.  1.
          4    1    5    5  502    0  0.12674586952E+03  0.17994413824E+03  0.89799284303E+02  0.23771478664E+03  0.00000000000E+00 0.  1.
          3    1    6    6  503    0 -0.21231542499E+03  0.17471122196E+03  0.22090613205E+03  0.35270578383E+03  0.00000000000E+00 0. -1.
         -4    1    5    5    0  502  0.59415793747E+02  0.53033612495E+02 -0.16084425619E+02  0.81249672912E+02  0.00000000000E+00 0. -1.
         -3    1    6    6    0  503 -0.70816917735E+03  0.45034299118E+03  0.52461760120E+03  0.98971512111E+03  0.00000000000E+00 0.  1.
<mgrwt>
<rscale>  0 0.25784349E+04</rscale>
<asrwt>0</asrwt>
<pdfrwt beam="1">  1        2 0.34076102E+00 0.25784349E+04</pdfrwt>
<pdfrwt beam="2">  1       -2 0.11544516E+00 0.25784349E+04</pdfrwt>
<totfact> 0.26211726E+00</totfact>
</mgrwt>
</event>
<event>
12    1  0.4403484E-008  0.2033085E+04  0.7818608E-02  0.8591307E-01
         -1   -1    0    0    0  501 -0.00000000000E+00  0.00000000000E+00  0.67902814393E+03  0.67902814393E+03  0.00000000000E+00 0.  1.
          1   -1    0    0  501    0  0.00000000000E+00 -0.00000000000E+00 -0.15218201939E+04  0.15218201939E+04  0.00000000000E+00 0. -1.
         23    2    1    2    0    0  0.10224866122E+03  0.42532246980E+03  0.40368705153E+03  0.60336591018E+03  0.98656950850E+02 0.  0.
        254    2    1    2    0    0 -0.10224866122E+03 -0.42532246980E+03 -0.12464791015E+04  0.15974824277E+04  0.89826831414E+03 0.  0.
         23    2    4    4    0    0 -0.11441267472E+03  0.19504176706E+03 -0.53040871636E+02  0.24924991686E+03  0.90446868132E+02 0.  0.
         23    2    4    4    0    0  0.12164013499E+02 -0.62036423687E+03 -0.11934382299E+04  0.13482325108E+04  0.91849578543E+02 0.  0.
         11    1    3    3    0    0  0.41834212974E+02  0.13005568499E+03  0.18955281701E+03  0.23365541511E+03  0.00000000000E+00 0. -1.
        -11    1    3    3    0    0  0.60414448242E+02  0.29526678481E+03  0.21413423452E+03  0.36971049507E+03  0.00000000000E+00 0.  1.
          4    1    5    5  502    0 -0.10912840958E+03  0.15352359317E+03 -0.91157154847E+01  0.18857783461E+03  0.00000000000E+00 0. -1.
          1    1    6    6  503    0  0.20387984152E+01 -0.58965708762E+03 -0.11624213812E+04  0.13034274453E+04  0.00000000000E+00 0. -1.
         -4    1    5    5    0  502 -0.52842651361E+01  0.41518173896E+02 -0.43925156152E+02  0.60672082251E+02  0.00000000000E+00 0.  1.
         -1    1    6    6    0  503  0.10125215084E+02 -0.30707149244E+02 -0.31016848733E+02  0.44805065568E+02  0.00000000000E+00 0.  1.
<mgrwt>
<rscale>  0 0.20330851E+04</rscale>
<asrwt>0</asrwt>
<pdfrwt beam="1">  1        1 0.23412618E+00 0.20330851E+04</pdfrwt>
<pdfrwt beam="2">  1       -1 0.10446587E+00 0.20330851E+04</pdfrwt>
<totfact> 0.50346643E+00</totfact>
</mgrwt>
</event>
<event>
12    1  0.4403484E-008  0.1703176E+04  0.7818608E-02  0.8759555E-01
          2   -1    0    0  501    0  0.00000000000E+00  0.00000000000E+00  0.10016493985E+04  0.10016493985E+04  0.00000000000E+00 0.  1.
         -2   -1    0    0    0  501 -0.00000000000E+00 -0.00000000000E+00 -0.72400835263E+03  0.72400835263E+03  0.00000000000E+00 0. -1.
         23    2    1    2    0    0 -0.35144613112E+03 -0.83046792308E+02  0.60086135909E+03  0.70666389105E+03  0.89041166176E+02 0.  0.
        254    2    1    2    0    0  0.35144613112E+03  0.83046792308E+02 -0.32322031318E+03  0.10189938601E+04  0.89636262938E+03 0.  0.
         23    2    4    4    0    0  0.29664205159E+03 -0.32800451359E+03 -0.38013860207E+03  0.59015482877E+03  0.90520149290E+02 0.  0.
         23    2    4    4    0    0  0.54804079525E+02  0.41105130590E+03  0.56918288888E+02  0.42883903136E+03  0.93255348347E+02 0.  0.
         11    1    3    3    0    0 -0.55766063540E+02  0.18930570791E+02  0.10547725252E+03  0.12080426794E+03  0.00000000000E+00 0. -1.
        -11    1    3    3    0    0 -0.29568006758E+03 -0.10197736310E+03  0.49538410658E+03  0.58585962311E+03  0.00000000000E+00 0.  1.
          3    1    5    5  502    0 -0.22608626298E+01 -0.16497802967E+02 -0.30269542092E+01  0.16924876790E+02  0.00000000000E+00 0. -1.
          3    1    6    6  503    0 -0.19007202486E+01  0.12513188500E+03 -0.21516445802E+02  0.12698251384E+03  0.00000000000E+00 0. -1.
         -3    1    5    5    0  502  0.29890291422E+03 -0.31150671063E+03 -0.37711164786E+03  0.57322995198E+03  0.00000000000E+00 0.  1.
         -3    1    6    6    0  503  0.56704799773E+02  0.28591942090E+03  0.78434734689E+02  0.30185651752E+03  0.00000000000E+00 0.  1.
<mgrwt>
<rscale>  0 0.17031765E+04</rscale>
<asrwt>0</asrwt>
<pdfrwt beam="1">  1        2 0.15409991E+00 0.17031765E+04</pdfrwt>
<pdfrwt beam="2">  1       -2 0.11138590E+00 0.17031765E+04</pdfrwt>
<totfact> 0.15237058E+01</totfact>
</mgrwt>
</event>
<event>
12    1  0.4403484E-008  0.1292547E+04  0.7818608E-02  0.9035496E-01
          2   -1    0    0  501    0  0.00000000000E+00  0.00000000000E+00  0.33248601283E+04  0.33248601283E+04  0.00000000000E+00 0. -1.
         -2   -1    0    0    0  501 -0.00000000000E+00 -0.00000000000E+00 -0.12562021722E+03  0.12562021722E+03  0.00000000000E+00 0.  1.
         23    2    1    2    0    0 -0.11132247157E+03  0.26085546898E+03  0.13079105155E+04  0.13413675183E+04  0.90546309787E+02 0.  0.
        254    2    1    2    0    0  0.11132247157E+03 -0.26085546898E+03  0.18913293956E+04  0.21091128272E+04  0.88926473392E+03 0.  0.
         23    2    4    4    0    0 -0.21367838644E+03  0.20430009887E+03  0.10250203203E+04  0.10703398097E+04  0.86969350670E+02 0.  0.
         23    2    4    4    0    0  0.32500085802E+03 -0.46515556785E+03  0.86630907531E+03  0.10387730176E+04  0.81010542664E+02 0.  0.
         11    1    3    3    0    0 -0.89497478833E+02  0.18773787914E+03  0.11087908607E+04  0.11281278663E+04  0.00000000000E+00 0. -1.
        -11    1    3    3    0    0 -0.21824992741E+02  0.73117589843E+02  0.19911965488E+03  0.21323965206E+03  0.00000000000E+00 0.  1.
          2    1    5    5  502    0 -0.91731113842E+02  0.39947783452E+02  0.26535703619E+03  0.28359262915E+03  0.00000000000E+00 0. -1.
          3    1    6    6  503    0  0.16793603534E+03 -0.29073327818E+03  0.45928749755E+03  0.56892297933E+03  0.00000000000E+00 0. -1.
         -2    1    5    5    0  502 -0.12194727260E+03  0.16435231542E+03  0.75966328408E+03  0.78674718053E+03  0.00000000000E+00 0.  1.
         -3    1    6    6    0  503  0.15706482268E+03 -0.17442228968E+03  0.40702157776E+03  0.46985003823E+03  0.00000000000E+00 0.  1.
<mgrwt>
<rscale>  0 0.12925473E+04</rscale>
<asrwt>0</asrwt>
<pdfrwt beam="1">  1        2 0.51151688E+00 0.12925473E+04</pdfrwt>
<pdfrwt beam="2">  1       -2 0.19326190E-01 0.12925473E+04</pdfrwt>
<totfact> 0.24285214E+01</totfact>
</mgrwt>
</event>
<event>
12    1  0.4403484E-008  0.1476586E+04  0.7818608E-02  0.8900174E-01
          2   -1    0    0  501    0  0.00000000000E+00  0.00000000000E+00  0.39586717797E+04  0.39586717797E+04  0.00000000000E+00 0. -1.
         -2   -1    0    0    0  501 -0.00000000000E+00 -0.00000000000E+00 -0.13769177586E+03  0.13769177586E+03  0.00000000000E+00 0.  1.
         23    2    1    2    0    0 -0.24860300155E+03 -0.30895827103E+03  0.18622809016E+04  0.19062293902E+04  0.91442145901E+02 0.  0.
        254    2    1    2    0    0  0.24860300155E+03  0.30895827103E+03  0.19586991023E+04  0.21901341654E+04  0.89606184132E+03 0.  0.
         23    2    4    4    0    0  0.51064915103E+03  0.45900796145E+02  0.68540382537E+03  0.86067208265E+03  0.90047717856E+02 0.  0.
         23    2    4    4    0    0 -0.26204614948E+03  0.26305747488E+03  0.12732952769E+04  0.13294620828E+04  0.91220324806E+02 0.  0.
         13    1    3    3    0    0 -0.20233428495E+03 -0.25644585561E+03  0.13379795942E+04  0.13772773992E+04  0.00000000000E+00 0. -1.
        -13    1    3    3    0    0 -0.46268716593E+02 -0.52512415416E+02  0.52430130731E+03  0.52895199098E+03  0.00000000000E+00 0.  1.
          4    1    5    5  502    0  0.94102835303E+02 -0.24624664679E+02  0.11020661817E+03  0.14699393325E+03  0.00000000000E+00 0. -1.
          4    1    6    6  503    0 -0.11705260111E+01  0.17757559541E+02  0.24118138573E+02  0.29973082261E+02  0.00000000000E+00 0. -1.
         -4    1    5    5    0  502  0.41654631572E+03  0.70525460824E+02  0.57519720720E+03  0.71367814940E+03  0.00000000000E+00 0.  1.
         -4    1    6    6    0  503 -0.26087562347E+03  0.24529991534E+03  0.12491771384E+04  0.12994890005E+04  0.00000000000E+00 0.  1.
<mgrwt>
<rscale>  0 0.14765860E+04</rscale>
<asrwt>0</asrwt>
<pdfrwt beam="1">  1        2 0.60902634E+00 0.14765860E+04</pdfrwt>
<pdfrwt beam="2">  1       -2 0.21183353E-01 0.14765860E+04</pdfrwt>
<totfact> 0.70701367E+00</totfact>
</mgrwt>
</event>
<event>
12    1  0.4403484E-008  0.1239561E+04  0.7818608E-02  0.9078917E-01
          2   -1    0    0  501    0  0.00000000000E+00  0.00000000000E+00  0.51634740977E+03  0.51634740977E+03  0.00000000000E+00 0. -1.
         -2   -1    0    0    0  501 -0.00000000000E+00 -0.00000000000E+00 -0.74393287225E+03  0.74393287225E+03  0.00000000000E+00 0.  1.
         23    2    1    2    0    0  0.11327328105E+03  0.27069838649E+02 -0.31457777896E+03  0.34789585749E+03  0.92242811537E+02 0.  0.
        254    2    1    2    0    0 -0.11327328105E+03 -0.27069838649E+02  0.86992316481E+02  0.91238442453E+03  0.90072973895E+03 0.  0.
         23    2    4    4    0    0  0.30701377727E+03 -0.26583454375E+03  0.55269109416E+02  0.41960612488E+03  0.89939765927E+02 0.  0.
         23    2    4    4    0    0 -0.42028705832E+03  0.23876470510E+03  0.31723207064E+02  0.49277829965E+03  0.90411807546E+02 0.  0.
         11    1    3    3    0    0  0.51110265726E+01 -0.10323372367E+02  0.16125194592E+01  0.11631630524E+02  0.00000000000E+00 0. -1.
        -11    1    3    3    0    0  0.10816225448E+03  0.37393211016E+02 -0.31619029842E+03  0.33626422697E+03  0.00000000000E+00 0.  1.
          1    1    5    5  502    0  0.17974023593E+03 -0.17498969148E+03  0.75412873615E+02  0.26194473853E+03  0.00000000000E+00 0. -1.
          1    1    6    6  503    0 -0.34866377808E+03  0.22247690410E+03  0.21663553888E+01  0.41360258231E+03  0.00000000000E+00 0. -1.
         -1    1    5    5    0  502  0.12727354134E+03 -0.90844852271E+02 -0.20143764199E+02  0.15766138635E+03  0.00000000000E+00 0.  1.
         -1    1    6    6    0  503 -0.71623280248E+02  0.16287800999E+02  0.29556851675E+02  0.79175717337E+02  0.00000000000E+00 0.  1.
<mgrwt>
<rscale>  0 0.12395609E+04</rscale>
<asrwt>0</asrwt>
<pdfrwt beam="1">  1        2 0.79438063E-01 0.12395609E+04</pdfrwt>
<pdfrwt beam="2">  1       -2 0.11445121E+00 0.12395609E+04</pdfrwt>
<totfact> 0.34817660E+01</totfact>
</mgrwt>
</event>
<event>
12    1  0.4403484E-008  0.1488400E+04  0.7818608E-02  0.8892204E-01
         -1   -1    0    0    0  501 -0.00000000000E+00  0.00000000000E+00  0.35357879162E+03  0.35357879162E+03  0.00000000000E+00 0.  1.
          1   -1    0    0  501    0  0.00000000000E+00 -0.00000000000E+00 -0.15663652682E+04  0.15663652682E+04  0.00000000000E+00 0. -1.
         23    2    1    2    0    0  0.49356420030E+02  0.53545915092E+02  0.20758575879E+03  0.23732811311E+03  0.89048103849E+02 0.  0.
        254    2    1    2    0    0 -0.49356420030E+02 -0.53545915092E+02 -0.14203722354E+04  0.16826159467E+04  0.89913064452E+03 0.  0.
         23    2    4    4    0    0 -0.39954223004E+03 -0.46225298296E+02 -0.11756780526E+04  0.12459294112E+04  0.91380755792E+02 0.  0.
         23    2    4    4    0    0  0.35018581001E+03 -0.73206167962E+01 -0.24469418277E+03  0.43668653552E+03  0.90200855084E+02 0.  0.
         13    1    3    3    0    0 -0.19106469172E+02  0.28226629835E+02  0.30310339244E+02  0.45612678732E+02  0.00000000000E+00 0. -1.
        -13    1    3    3    0    0  0.68462889202E+02  0.25319285257E+02  0.17727541955E+03  0.19171543438E+03  0.00000000000E+00 0.  1.
          3    1    6    6  502    0  0.24064432767E+03 -0.36173197556E+02 -0.13175314536E+03  0.27672564748E+03  0.00000000000E+00 0. -1.
          3    1    5    5  503    0 -0.28065462953E+03 -0.55680156511E+02 -0.71654468845E+03  0.77155919504E+03  0.00000000000E+00 0. -1.
         -3    1    5    5    0  503 -0.11888760051E+03  0.94548582147E+01 -0.45913336418E+03  0.47437021618E+03  0.00000000000E+00 0.  1.
         -3    1    6    6    0  502  0.10954148234E+03  0.28852580760E+02 -0.11294103742E+03  0.15996088804E+03  0.00000000000E+00 0.  1.
<mgrwt>
<rscale>  0 0.14883999E+04</rscale>
<asrwt>0</asrwt>
<pdfrwt beam="1">  1        1 0.24097927E+00 0.14883999E+04</pdfrwt>
<pdfrwt beam="2">  1       -1 0.54396738E-01 0.14883999E+04</pdfrwt>
<totfact> 0.19451549E+01</totfact>
</mgrwt>
</event>
<event>
12    1  0.4403484E-008  0.1739143E+04  0.7818608E-02  0.8739349E-01
          2   -1    0    0  501    0  0.00000000000E+00  0.00000000000E+00  0.13524456486E+04  0.13524456486E+04  0.00000000000E+00 0. -1.
         -2   -1    0    0    0  501 -0.00000000000E+00 -0.00000000000E+00 -0.55910197029E+03  0.55910197029E+03  0.00000000000E+00 0.  1.
         23    2    1    2    0    0  0.47212052188E+02 -0.49221780980E+03  0.71757489653E+03  0.87626634657E+03  0.91769427589E+02 0.  0.
        254    2    1    2    0    0 -0.47212052188E+02  0.49221780980E+03  0.75768781805E+02  0.10352812724E+04  0.90639894883E+03 0.  0.
         23    2    4    4    0    0 -0.22802123749E+03  0.52566032330E+03 -0.26411064148E+03  0.63776578966E+03  0.93157454198E+02 0.  0.
         23    2    4    4    0    0  0.18080918530E+03 -0.33442513505E+02  0.33987942329E+03  0.39751548270E+03  0.93221099604E+02 0.  0.
         13    1    3    3    0    0 -0.19661845835E+01 -0.36449752279E+03  0.55139931681E+03  0.66098677490E+03  0.00000000000E+00 0. -1.
        -13    1    3    3    0    0  0.49178236772E+02 -0.12772028700E+03  0.16617557971E+03  0.21527957167E+03  0.00000000000E+00 0.  1.
          2    1    5    5  502    0 -0.86864533381E+02  0.22853299080E+03 -0.63980379878E+02  0.25271775571E+03  0.00000000000E+00 0.  1.
          4    1    6    6  503    0 -0.24892341820E+00 -0.52498380556E+00  0.74896515606E+02  0.74898769154E+02  0.00000000000E+00 0. -1.
         -2    1    5    5    0  502 -0.14115670411E+03  0.29712733251E+03 -0.20013026161E+03  0.38504803395E+03  0.00000000000E+00 0. -1.
         -4    1    6    6    0  503  0.18105810872E+03 -0.32917529700E+02  0.26498290768E+03  0.32261671354E+03  0.00000000000E+00 0.  1.
<mgrwt>
<rscale>  0 0.17391435E+04</rscale>
<asrwt>0</asrwt>
<pdfrwt beam="1">  1        2 0.20806856E+00 0.17391435E+04</pdfrwt>
<pdfrwt beam="2">  1       -2 0.86015688E-01 0.17391435E+04</pdfrwt>
<totfact> 0.17145980E+01</totfact>
</mgrwt>
</event>
<event>
12    1  0.4403484E-008  0.1008024E+04  0.7818608E-02  0.9299788E-01
          1   -1    0    0  501    0  0.00000000000E+00  0.00000000000E+00  0.12627442801E+03  0.12627442801E+03  0.00000000000E+00 0. -1.
         -1   -1    0    0    0  501 -0.00000000000E+00 -0.00000000000E+00 -0.20117137478E+04  0.20117137478E+04  0.00000000000E+00 0.  1.
         23    2    1    2    0    0 -0.64576788845E+01 -0.70946786763E+02 -0.22810982180E+03  0.25469706387E+03  0.88098554903E+02 0.  0.
        254    2    1    2    0    0  0.64576788845E+01  0.70946786763E+02 -0.16573294980E+04  0.18832911119E+04  0.89161045263E+03 0.  0.
         23    2    4    4    0    0  0.45984422316E+02  0.39985476640E+03 -0.38159868438E+03  0.56212691508E+03  0.91491592140E+02 0.  0.
         23    2    4    4    0    0 -0.39526743431E+02 -0.32890797964E+03 -0.12757308136E+04  0.13211641969E+04  0.90790438662E+02 0.  0.
         13    1    3    3    0    0  0.28473211077E+02 -0.70906338918E+02 -0.13315388173E+03  0.15351999501E+03  0.00000000000E+00 0. -1.
        -13    1    3    3    0    0 -0.34930889962E+02 -0.40447845052E-01 -0.94955940074E+02  0.10117706887E+03  0.00000000000E+00 0.  1.
          2    1    5    5  502    0  0.64593585687E+02  0.28852881259E+03 -0.31036415821E+03  0.42865734300E+03  0.00000000000E+00 0. -1.
          2    1    6    6  503    0 -0.39868831071E+02 -0.28823985353E+03 -0.96895339622E+03  0.10117027335E+04  0.00000000000E+00 0. -1.
         -2    1    5    5    0  502 -0.18609163371E+02  0.11132595381E+03 -0.71234526160E+02  0.13346957208E+03  0.00000000000E+00 0.  1.
         -2    1    6    6    0  503  0.34208764012E+00 -0.40668126103E+02 -0.30677741740E+03  0.30946146340E+03  0.00000000000E+00 0.  1.
<mgrwt>
<rscale>  0 0.10080238E+04</rscale>
<asrwt>0</asrwt>
<pdfrwt beam="1">  1        1 0.19426837E-01 0.10080238E+04</pdfrwt>
<pdfrwt beam="2">  1       -1 0.30949439E+00 0.10080238E+04</pdfrwt>
<totfact> 0.79391378E+00</totfact>
</mgrwt>
</event>
<event>
12    1  0.4403484E-008  0.2373082E+04  0.7818608E-02  0.8449650E-01
          2   -1    0    0  501    0  0.00000000000E+00  0.00000000000E+00  0.21291699470E+04  0.21291699470E+04  0.00000000000E+00 0.  1.
         -2   -1    0    0    0  501 -0.00000000000E+00 -0.00000000000E+00 -0.66123419764E+03  0.66123419764E+03  0.00000000000E+00 0. -1.
         23    2    1    2    0    0 -0.31595362047E+03  0.16510693316E+03 -0.48077326105E+03  0.60513997997E+03  0.89243919419E+02 0.  0.
        254    2    1    2    0    0  0.31595362047E+03 -0.16510693316E+03  0.19487090104E+04  0.21852641647E+04  0.92240212081E+03 0.  0.
         23    2    4    4    0    0  0.10467087462E+03 -0.49461936728E+03  0.14869992113E+04  0.15733435776E+04  0.92946481349E+02 0.  0.
         23    2    4    4    0    0  0.21128274585E+03  0.32951243411E+03  0.46170979909E+03  0.61192058702E+03  0.89733067006E+02 0.  0.
         11    1    3    3    0    0 -0.28079005319E+03  0.17494321724E+03 -0.43801301710E+03  0.54891127368E+03  0.00000000000E+00 0. -1.
        -11    1    3    3    0    0 -0.35163567284E+02 -0.98362840720E+01 -0.42760243941E+02  0.56228706285E+02  0.00000000000E+00 0.  1.
          1    1    5    5  502    0  0.76364926402E+02 -0.45660586612E+03  0.13956988618E+04  0.14704746961E+04  0.00000000000E+00 0. -1.
          1    1    6    6  503    0  0.18382498891E+03  0.32242374323E+03  0.41067672216E+03  0.55353777366E+03  0.00000000000E+00 0. -1.
         -1    1    5    5    0  502  0.28305948220E+02 -0.38013501158E+02  0.91300349502E+02  0.10286888156E+03  0.00000000000E+00 0.  1.
         -1    1    6    6    0  503  0.27457756937E+02  0.70886908801E+01  0.51033076928E+02  0.58382813354E+02  0.00000000000E+00 0.  1.
<mgrwt>
<rscale>  0 0.23730824E+04</rscale>
<asrwt>0</asrwt>
<pdfrwt beam="1">  1        2 0.32756460E+00 0.23730824E+04</pdfrwt>
<pdfrwt beam="2">  1       -2 0.10172834E+00 0.23730824E+04</pdfrwt>
<totfact> 0.40437966E+00</totfact>
</mgrwt>
</event>
<event>
12    1  0.4403484E-008  0.1893964E+04  0.7818608E-02  0.8657867E-01
          2   -1    0    0  501    0  0.00000000000E+00  0.00000000000E+00  0.13158328286E+04  0.13158328286E+04  0.00000000000E+00 0. -1.
         -2   -1    0    0    0  501 -0.00000000000E+00 -0.00000000000E+00 -0.68152655568E+03  0.68152655568E+03  0.00000000000E+00 0.  1.
         23    2    1    2    0    0  0.26298142112E+03  0.30849903883E+03 -0.40469794130E+03  0.58004438673E+03  0.91324597319E+02 0.  0.
        254    2    1    2    0    0 -0.26298142112E+03 -0.30849903883E+03  0.10390042142E+04  0.14173149975E+04  0.87459771342E+03 0.  0.
         23    2    4    4    0    0  0.20583601266E+03 -0.39847942247E+03  0.64812668861E+03  0.79356705706E+03  0.92337182726E+02 0.  0.
         23    2    4    4    0    0 -0.46881743378E+03  0.89980383644E+02  0.39087752560E+03  0.62374794049E+03  0.91596930037E+02 0.  0.
         11    1    3    3    0    0  0.10520050049E+03  0.66965943700E+02 -0.15121943356E+03  0.19600739784E+03  0.00000000000E+00 0. -1.
        -11    1    3    3    0    0  0.15778092063E+03  0.24153309513E+03 -0.25347850774E+03  0.38403698890E+03  0.00000000000E+00 0.  1.
          2    1    5    5  502    0  0.16086011484E+03 -0.21394024976E+03  0.36489615432E+03  0.45254349012E+03  0.00000000000E+00 0. -1.
          3    1    6    6  503    0 -0.20089057953E+03  0.27429194880E+02  0.22322409931E+03  0.30155991807E+03  0.00000000000E+00 0. -1.
         -2    1    5    5    0  502  0.44975897817E+02 -0.18453917270E+03  0.28323053430E+03  0.34102356693E+03  0.00000000000E+00 0.  1.
         -3    1    6    6    0  503 -0.26792685424E+03  0.62551188764E+02  0.16765342629E+03  0.32218802241E+03  0.00000000000E+00 0.  1.
<mgrwt>
<rscale>  0 0.18939641E+04</rscale>
<asrwt>0</asrwt>
<pdfrwt beam="1">  1        2 0.20243582E+00 0.18939641E+04</pdfrwt>
<pdfrwt beam="2">  1       -2 0.10485024E+00 0.18939641E+04</pdfrwt>
<totfact> 0.11187318E+01</totfact>
</mgrwt>
</event>
<event>
12    1  0.4403484E-008  0.1898439E+04  0.7818608E-02  0.8655634E-01
          2   -1    0    0  501    0  0.00000000000E+00  0.00000000000E+00  0.26497396543E+04  0.26497396543E+04  0.00000000000E+00 0. -1.
         -2   -1    0    0    0  501 -0.00000000000E+00 -0.00000000000E+00 -0.34004023470E+03  0.34004023470E+03  0.00000000000E+00 0.  1.
         23    2    1    2    0    0 -0.20590026660E+03  0.70266244917E+03  0.10686861142E+04  0.12985728192E+04  0.89843857580E+02 0.  0.
        254    2    1    2    0    0  0.20590026660E+03 -0.70266244917E+03  0.12410133054E+04  0.16912070698E+04  0.88540267200E+03 0.  0.
         23    2    4    4    0    0  0.51256599353E+03 -0.48245419925E+03  0.54754173772E+03  0.89644836710E+03  0.91278520121E+02 0.  0.
         23    2    4    4    0    0 -0.30666572693E+03 -0.22020824992E+03  0.69347156765E+03  0.79475870270E+03  0.90570629767E+02 0.  0.
         11    1    3    3    0    0 -0.21366509447E+03  0.69300812401E+03  0.10476645834E+04  0.12741719318E+04  0.00000000000E+00 0.  1.
        -11    1    3    3    0    0  0.77648278706E+01  0.96543251653E+01  0.21021530784E+02  0.24400887336E+02  0.00000000000E+00 0. -1.
          4    1    5    5  502    0  0.24695222228E+03 -0.17289930313E+03  0.24848968230E+03  0.39067466174E+03  0.00000000000E+00 0.  1.
          3    1    6    6  503    0 -0.25610572953E+03 -0.16990074000E+03  0.62199843003E+03  0.69378559592E+03  0.00000000000E+00 0. -1.
         -4    1    5    5    0  502  0.26561377125E+03 -0.30955489612E+03  0.29905205542E+03  0.50577370537E+03  0.00000000000E+00 0. -1.
         -3    1    6    6    0  503 -0.50559997396E+02 -0.50307509923E+02  0.71473137621E+02  0.10097310678E+03  0.00000000000E+00 0.  1.
<mgrwt>
<rscale>  0 0.18984395E+04</rscale>
<asrwt>0</asrwt>
<pdfrwt beam="1">  1        2 0.40765224E+00 0.18984395E+04</pdfrwt>
<pdfrwt beam="2">  1       -2 0.52313884E-01 0.18984395E+04</pdfrwt>
<totfact> 0.92012159E+00</totfact>
</mgrwt>
</event>
<event>
12    1  0.4403484E-008  0.1904599E+04  0.7818608E-02  0.8652570E-01
          2   -1    0    0  501    0  0.00000000000E+00  0.00000000000E+00  0.16230200431E+04  0.16230200431E+04  0.00000000000E+00 0. -1.
         -2   -1    0    0    0  501 -0.00000000000E+00 -0.00000000000E+00 -0.55875750391E+03  0.55875750391E+03  0.00000000000E+00 0.  1.
         23    2    1    2    0    0 -0.89270286102E+01 -0.44414840158E+03 -0.26034022732E+03  0.52352382532E+03  0.94618535401E+02 0.  0.
        254    2    1    2    0    0  0.89270286102E+01  0.44414840158E+03  0.13246027665E+04  0.16582537216E+04  0.89324432377E+03 0.  0.
         23    2    4    4    0    0  0.28978987432E+03  0.40514775420E+03  0.12533258142E+04  0.13516856641E+04  0.90031461219E+02 0.  0.
         23    2    4    4    0    0 -0.28086284571E+03  0.39000647388E+02  0.71276952285E+02  0.30656805756E+03  0.92187750779E+02 0.  0.
         11    1    3    3    0    0 -0.24427705987E+02 -0.38531438516E+03 -0.25445693460E+03  0.46239833455E+03  0.00000000000E+00 0.  1.
        -11    1    3    3    0    0  0.15500677377E+02 -0.58834016430E+02 -0.58832927235E+01  0.61125490768E+02  0.00000000000E+00 0. -1.
          2    1    5    5  502    0  0.19699265944E+03  0.33636381941E+03  0.93223155617E+03  0.10104466345E+04  0.00000000000E+00 0. -1.
          1    1    6    6  503    0 -0.41400242907E+02 -0.22564682696E+02  0.30029606689E+02  0.55901004426E+02  0.00000000000E+00 0. -1.
         -2    1    5    5    0  502  0.92797214878E+02  0.68783934783E+02  0.32109425801E+03  0.34123902957E+03  0.00000000000E+00 0.  1.
         -1    1    6    6    0  503 -0.23946260280E+03  0.61565330084E+02  0.41247345595E+02  0.25066705313E+03  0.00000000000E+00 0.  1.
<mgrwt>
<rscale>  0 0.19045993E+04</rscale>
<asrwt>0</asrwt>
<pdfrwt beam="1">  1        2 0.24969539E+00 0.19045993E+04</pdfrwt>
<pdfrwt beam="2">  1       -2 0.85962694E-01 0.19045993E+04</pdfrwt>
<totfact> 0.11902351E+01</totfact>
</mgrwt>
</event>
<event>
12    1  0.4403484E-008  0.2044751E+04  0.7818608E-02  0.8585979E-01
         -2   -1    0    0    0  501 -0.00000000000E+00  0.00000000000E+00  0.47347031965E+03  0.47347031965E+03  0.00000000000E+00 0.  1.
          2   -1    0    0  501    0  0.00000000000E+00 -0.00000000000E+00 -0.22076390412E+04  0.22076390412E+04  0.00000000000E+00 0. -1.
         23    2    1    2    0    0 -0.53948172990E+03  0.14524100568E+03 -0.13638024714E+04  0.14769373213E+04  0.96183071572E+02 0.  0.
        254    2    1    2    0    0  0.53948172990E+03 -0.14524100568E+03 -0.37036625013E+03  0.12041720396E+04  0.10003617621E+04 0.  0.
         23    2    4    4    0    0  0.16018553006E+03  0.42017275977E+03 -0.16124205350E+03  0.48606727993E+03  0.89765520729E+02 0.  0.
         23    2    4    4    0    0  0.37929619984E+03 -0.56541376545E+03 -0.20912419663E+03  0.71810475966E+03  0.91559722857E+02 0.  0.
         11    1    3    3    0    0 -0.51622778381E+03  0.12442032874E+03 -0.13228308577E+04  0.14254308195E+04  0.00000000000E+00 0. -1.
        -11    1    3    3    0    0 -0.23253946091E+02  0.20820676942E+02 -0.40971613718E+02  0.51506501801E+02  0.00000000000E+00 0.  1.
          2    1    5    5  502    0  0.60012978038E+02  0.62583252317E+02 -0.39349603131E+02  0.95218760074E+02  0.00000000000E+00 0. -1.
          4    1    6    6  503    0  0.15329881385E+03 -0.27816543140E+03 -0.13530256021E+03  0.34522936775E+03  0.00000000000E+00 0. -1.
         -2    1    5    5    0  502  0.10017255202E+03  0.35758950745E+03 -0.12189245037E+03  0.39084851986E+03  0.00000000000E+00 0.  1.
         -4    1    6    6    0  503  0.22599738599E+03 -0.28724833405E+03 -0.73821636420E+02  0.37287539191E+03  0.00000000000E+00 0.  1.
<mgrwt>
<rscale>  0 0.20447509E+04</rscale>
<asrwt>0</asrwt>
<pdfrwt beam="1">  1        2 0.33963677E+00 0.20447509E+04</pdfrwt>
<pdfrwt beam="2">  1       -2 0.72841589E-01 0.20447509E+04</pdfrwt>
<totfact> 0.80620705E+00</totfact>
</mgrwt>
</event>
<event>
12    1  0.4403484E-008  0.3519387E+04  0.7818608E-02  0.8109211E-01
          2   -1    0    0  501    0  0.00000000000E+00  0.00000000000E+00  0.30901240019E+04  0.30901240019E+04  0.00000000000E+00 0. -1.
         -2   -1    0    0    0  501 -0.00000000000E+00 -0.00000000000E+00 -0.10020701928E+04  0.10020701928E+04  0.00000000000E+00 0.  1.
         23    2    1    2    0    0  0.73173489130E+03 -0.47758029053E+03 -0.63564268054E+03  0.10845695985E+04  0.93438276917E+02 0.  0.
        254    2    1    2    0    0 -0.73173489130E+03  0.47758029053E+03  0.27236964897E+04  0.30076245962E+04  0.92938918601E+03 0.  0.
         23    2    4    4    0    0 -0.78104908608E+03  0.56483955645E+03  0.15611486354E+04  0.18370068814E+04  0.91256897237E+02 0.  0.
         23    2    4    4    0    0  0.49314194788E+02 -0.87259265912E+02  0.11625478543E+04  0.11706177148E+04  0.93713667195E+02 0.  0.
         13    1    3    3    0    0  0.61375297432E+03 -0.38228224761E+03 -0.48405101089E+03  0.87013666252E+03  0.00000000000E+00 0.  1.
        -13    1    3    3    0    0  0.11798191698E+03 -0.95298042924E+02 -0.15159166965E+03  0.21443293597E+03  0.00000000000E+00 0. -1.
          3    1    6    6  502    0  0.36856505315E+02 -0.81516950312E+02  0.50081162539E+03  0.50873932352E+03  0.00000000000E+00 0. -1.
          3    1    5    5  503    0 -0.74861527783E+03  0.52275851432E+03  0.14995321404E+04  0.17556474414E+04  0.00000000000E+00 0. -1.
         -3    1    5    5    0  503 -0.32433808256E+02  0.42081042127E+02  0.61616494937E+02  0.81359439973E+02  0.00000000000E+00 0.  1.
         -3    1    6    6    0  502  0.12457689473E+02 -0.57423155999E+01  0.66173622891E+03  0.66187839130E+03  0.00000000000E+00 0.  1.
<mgrwt>
<rscale>  0 0.35193870E+04</rscale>
<asrwt>0</asrwt>
<pdfrwt beam="1">  1        2 0.47540369E+00 0.35193870E+04</pdfrwt>
<pdfrwt beam="2">  1       -2 0.15416465E+00 0.35193870E+04</pdfrwt>
<totfact> 0.34860739E-01</totfact>
</mgrwt>
</event>
<event>
12    1  0.4403484E-008  0.2817749E+04  0.7818608E-02  0.8297779E-01
          2   -1    0    0  501    0  0.00000000000E+00  0.00000000000E+00  0.32019846245E+04  0.32019846245E+04  0.00000000000E+00 0. -1.
         -2   -1    0    0    0  501 -0.00000000000E+00 -0.00000000000E+00 -0.61990547883E+03  0.61990547883E+03  0.00000000000E+00 0.  1.
         23    2    1    2    0    0 -0.10293582572E+04 -0.23755761227E+03  0.20444612243E+04  0.23030624172E+04  0.90899719427E+02 0.  0.
        254    2    1    2    0    0  0.10293582572E+04  0.23755761227E+03  0.53761792136E+03  0.15188276861E+04  0.94962754272E+03 0.  0.
         23    2    4    4    0    0  0.65090125221E+03  0.14512391394E+03 -0.18027984466E+03  0.69694956586E+03  0.92219761622E+02 0.  0.
         23    2    4    4    0    0  0.37845700501E+03  0.92433698334E+02  0.71789776602E+03  0.82187812026E+03  0.91283891629E+02 0.  0.
         13    1    3    3    0    0 -0.13561321139E+03 -0.62260990867E+02  0.26851951906E+03  0.30719717806E+03  0.00000000000E+00 0.  1.
        -13    1    3    3    0    0 -0.89374504583E+03 -0.17529662141E+03  0.17759417053E+04  0.19958652392E+04  0.00000000000E+00 0. -1.
          2    1    5    5  502    0  0.10475463046E+03  0.57816041682E+01 -0.59146797716E+02  0.12043796423E+03  0.00000000000E+00 0. -1.
          1    1    6    6  503    0  0.63632175675E+02  0.43759434881E+02  0.96647131540E+02  0.12371180201E+03  0.00000000000E+00 0. -1.
         -2    1    5    5    0  502  0.54614662176E+03  0.13934230977E+03 -0.12113304695E+03  0.57651160163E+03  0.00000000000E+00 0.  1.
         -1    1    6    6    0  503  0.31482482933E+03  0.48674263453E+02  0.62125063448E+03  0.69816631824E+03  0.00000000000E+00 0.  1.
<mgrwt>
<rscale>  0 0.28177493E+04</rscale>
<asrwt>0</asrwt>
<pdfrwt beam="1">  1        2 0.49261301E+00 0.28177493E+04</pdfrwt>
<pdfrwt beam="2">  1       -2 0.95370075E-01 0.28177493E+04</pdfrwt>
<totfact> 0.10371003E+00</totfact>
</mgrwt>
</event>
<event>
12    1  0.4403484E-008  0.3969626E+04  0.7818608E-02  0.8010702E-01
         -2   -1    0    0    0  501 -0.00000000000E+00  0.00000000000E+00  0.16688152633E+04  0.16688152633E+04  0.00000000000E+00 0.  1.
          2   -1    0    0  501    0  0.00000000000E+00 -0.00000000000E+00 -0.23606458150E+04  0.23606458150E+04  0.00000000000E+00 0. -1.
         23    2    1    2    0    0 -0.16558830132E+04 -0.27942401341E+03  0.53403951689E+03  0.17644517359E+04  0.89807516311E+02 0.  0.
        254    2    1    2    0    0  0.16558830132E+04  0.27942401341E+03 -0.12258700687E+04  0.22650093424E+04  0.89860089213E+03 0.  0.
         23    2    4    4    0    0  0.86276023584E+03  0.13003368324E+03 -0.11539555191E+04  0.14495492573E+04  0.91190601083E+02 0.  0.
         23    2    4    4    0    0  0.79312277738E+03  0.14939033016E+03 -0.71914549511E+02  0.81546008518E+03  0.91881648529E+02 0.  0.
         13    1    3    3    0    0 -0.30324890042E+03 -0.59255962696E+02  0.13428124520E+03  0.33690149530E+03  0.00000000000E+00 0. -1.
        -13    1    3    3    0    0 -0.13526341128E+04 -0.22016805071E+03  0.39975827169E+03  0.14275502406E+04  0.00000000000E+00 0.  1.
          2    1    5    5  502    0  0.57262970889E+03  0.57560314247E+02 -0.81214172512E+03  0.99538543035E+03  0.00000000000E+00 0. -1.
          2    1    6    6  503    0  0.73333846151E+03  0.12197659745E+03 -0.46218756701E+02  0.74484881884E+03  0.00000000000E+00 0. -1.
         -2    1    5    5    0  502  0.29013052695E+03  0.72473368997E+02 -0.34181379402E+03  0.45416382690E+03  0.00000000000E+00 0.  1.
         -2    1    6    6    0  503  0.59784315868E+02  0.27413732714E+02 -0.25695792809E+02  0.70611266334E+02  0.00000000000E+00 0.  1.
<mgrwt>
<rscale>  0 0.39696256E+04</rscale>
<asrwt>0</asrwt>
<pdfrwt beam="1">  1        2 0.36317628E+00 0.39696256E+04</pdfrwt>
<pdfrwt beam="2">  1       -2 0.25674081E+00 0.39696256E+04</pdfrwt>
<totfact> 0.19344431E-01</totfact>
</mgrwt>
</event>
<event>
12    1  0.4403484E-008  0.1659796E+04  0.7818608E-02  0.8784633E-01
         -2   -1    0    0    0  501 -0.00000000000E+00  0.00000000000E+00  0.34278682685E+03  0.34278682685E+03  0.00000000000E+00 0.  1.
          2   -1    0    0  501    0  0.00000000000E+00 -0.00000000000E+00 -0.20092088811E+04  0.20092088811E+04  0.00000000000E+00 0. -1.
         23    2    1    2    0    0  0.20224767243E+03  0.37696898841E+03 -0.32685730142E+02  0.43837663172E+03  0.89977636448E+02 0.  0.
        254    2    1    2    0    0 -0.20224767243E+03 -0.37696898841E+03 -0.16337363241E+04  0.19136190763E+04  0.89990769138E+03 0.  0.
         23    2    4    4    0    0  0.23433055020E+02  0.25701031801E+03 -0.75175211289E+03  0.80001235769E+03  0.91022643239E+02 0.  0.
         23    2    4    4    0    0 -0.22568072745E+03 -0.63397930642E+03 -0.88198421125E+03  0.11136067186E+04  0.96758581316E+02 0.  0.
         11    1    3    3    0    0  0.20934187103E+03  0.35702578181E+03 -0.40414815888E+02  0.41584225998E+03  0.00000000000E+00 0.  1.
        -11    1    3    3    0    0 -0.70941986032E+01  0.19943206597E+02  0.77290857454E+01  0.22534371739E+02  0.00000000000E+00 0. -1.
          2    1    5    5  502    0  0.30268116093E+02  0.23428949248E+02 -0.77982727616E+02  0.86869904577E+02  0.00000000000E+00 0. -1.
          1    1    6    6  503    0  0.21386975290E+01 -0.47742967847E+02 -0.93471504946E+02  0.10498041362E+03  0.00000000000E+00 0. -1.
         -2    1    5    5    0  502 -0.68350610729E+01  0.23358136877E+03 -0.67376938528E+03  0.71314245311E+03  0.00000000000E+00 0.  1.
         -1    1    6    6    0  503 -0.22781942498E+03 -0.58623633858E+03 -0.78851270630E+03  0.10086263050E+04  0.00000000000E+00 0.  1.
<mgrwt>
<rscale>  0 0.16597956E+04</rscale>
<asrwt>0</asrwt>
<pdfrwt beam="1">  1        2 0.30910906E+00 0.16597956E+04</pdfrwt>
<pdfrwt beam="2">  1       -2 0.52736434E-01 0.16597956E+04</pdfrwt>
<totfact> 0.21381892E+01</totfact>
</mgrwt>
</event>
<event>
12    1  0.4403484E-008  0.1948998E+04  0.7818608E-02  0.8630844E-01
          1   -1    0    0  501    0  0.00000000000E+00  0.00000000000E+00  0.65064103664E+03  0.65064103664E+03  0.00000000000E+00 0. -1.
         -1   -1    0    0    0  501 -0.00000000000E+00 -0.00000000000E+00 -0.14595583117E+04  0.14595583117E+04  0.00000000000E+00 0.  1.
         23    2    1    2    0    0  0.30769348598E+03  0.89674419559E+02  0.43270752393E+03  0.54620525237E+03  0.91583806480E+02 0.  0.
        254    2    1    2    0    0 -0.30769348598E+03 -0.89674419559E+02 -0.12416247989E+04  0.15639940959E+04  0.89539299075E+03 0.  0.
         23    2    4    4    0    0 -0.19633838895E+03 -0.33369486315E+03 -0.13269450414E+03  0.41937049179E+03  0.91448090696E+02 0.  0.
         23    2    4    4    0    0 -0.11135509703E+03  0.24402044359E+03 -0.11089302948E+04  0.11446236041E+04  0.92145872753E+02 0.  0.
         13    1    3    3    0    0  0.95444192069E+02  0.69349450325E+02  0.18442963986E+03  0.21893659383E+03  0.00000000000E+00 0.  1.
        -13    1    3    3    0    0  0.21224929392E+03  0.20324969234E+02  0.24827788407E+03  0.32726865854E+03  0.00000000000E+00 0. -1.
          3    1    5    5  502    0 -0.16588533292E+03 -0.32520795285E+03 -0.11315999497E+03  0.38220850427E+03  0.00000000000E+00 0. -1.
          3    1    6    6  503    0 -0.87676626665E+02  0.82587405877E+02 -0.47427624613E+03  0.48933202237E+03  0.00000000000E+00 0. -1.
         -3    1    5    5    0  502 -0.30453056034E+02 -0.84869102957E+01 -0.19534509172E+02  0.37161987524E+02  0.00000000000E+00 0.  1.
         -3    1    6    6    0  503 -0.23678470368E+02  0.16143303771E+03 -0.63465404868E+03  0.65529158176E+03  0.00000000000E+00 0.  1.
<mgrwt>
<rscale>  0 0.19489982E+04</rscale>
<asrwt>0</asrwt>
<pdfrwt beam="1">  1        1 0.10009862E+00 0.19489982E+04</pdfrwt>
<pdfrwt beam="2">  1       -1 0.22454743E+00 0.19489982E+04</pdfrwt>
<totfact> 0.29070846E+00</totfact>
</mgrwt>
</event>
<event>
12    1  0.4403484E-008  0.1428565E+04  0.7818608E-02  0.8933398E-01
          1   -1    0    0  501    0  0.00000000000E+00  0.00000000000E+00  0.96219091985E+03  0.96219091985E+03  0.00000000000E+00 0. -1.
         -1   -1    0    0    0  501 -0.00000000000E+00 -0.00000000000E+00 -0.53024732807E+03  0.53024732807E+03  0.00000000000E+00 0.  1.
         23    2    1    2    0    0  0.31271703831E+03 -0.18398873263E+03  0.33757669919E+03  0.50395523125E+03  0.91482498213E+02 0.  0.
        254    2    1    2    0    0 -0.31271703831E+03  0.18398873263E+03  0.94366892580E+02  0.98848301667E+03  0.91463094418E+03 0.  0.
         23    2    4    4    0    0  0.24323162633E+03  0.31338141740E+03  0.27432587306E+02  0.40618114170E+03  0.82831372083E+02 0.  0.
         23    2    4    4    0    0 -0.55594866464E+03 -0.12939268478E+03  0.66934305273E+02  0.58230187497E+03  0.93669033209E+02 0.  0.
         13    1    3    3    0    0  0.23656396279E+03 -0.11355927418E+03  0.28589545329E+03  0.38806497839E+03  0.00000000000E+00 0. -1.
        -13    1    3    3    0    0  0.76153075526E+02 -0.70429458448E+02  0.51681245905E+02  0.11589025286E+03  0.00000000000E+00 0.  1.
          2    1    5    5  502    0  0.82522912172E+02  0.60985088628E+02  0.30155077428E+02  0.10695111389E+03  0.00000000000E+00 0. -1.
          3    1    6    6  503    0 -0.10370513897E+03 -0.52604842217E+02  0.39331831945E+02  0.12275592970E+03  0.00000000000E+00 0. -1.
         -2    1    5    5    0  502  0.16070871416E+03  0.25239632878E+03 -0.27224901219E+01  0.29923002780E+03  0.00000000000E+00 0.  1.
         -3    1    6    6    0  503 -0.45224352568E+03 -0.76787842561E+02  0.27602473328E+02  0.45954594527E+03  0.00000000000E+00 0.  1.
<mgrwt>
<rscale>  0 0.14285645E+04</rscale>
<asrwt>0</asrwt>
<pdfrwt beam="1">  1        1 0.14802937E+00 0.14285645E+04</pdfrwt>
<pdfrwt beam="2">  1       -1 0.81576513E-01 0.14285645E+04</pdfrwt>
<totfact> 0.23597042E+01</totfact>
</mgrwt>
</event>
<event>
12    1  0.4403484E-008  0.1501273E+04  0.7818608E-02  0.8883607E-01
          2   -1    0    0  501    0  0.00000000000E+00  0.00000000000E+00  0.18203836745E+04  0.18203836745E+04  0.00000000000E+00 0. -1.
         -2   -1    0    0    0  501 -0.00000000000E+00 -0.00000000000E+00 -0.30952566034E+03  0.30952566034E+03  0.00000000000E+00 0.  1.
         23    2    1    2    0    0 -0.12758493343E+02 -0.10796174426E+03 -0.16957239821E+03  0.22083576358E+03  0.90526895823E+02 0.  0.
        254    2    1    2    0    0  0.12758493343E+02  0.10796174426E+03  0.16804304124E+04  0.19090735712E+04  0.89938702028E+03 0.  0.
         23    2    4    4    0    0 -0.89612053044E+02  0.48520342297E+03  0.86783715553E+03  0.10028687997E+04  0.95665140932E+02 0.  0.
         23    2    4    4    0    0  0.10237054639E+03 -0.37724167871E+03  0.81259325683E+03  0.90620477154E+03  0.90045954839E+02 0.  0.
         11    1    3    3    0    0 -0.12638102961E+02 -0.88722120298E+02 -0.17841744353E+03  0.19966001210E+03  0.00000000000E+00 0.  1.
        -11    1    3    3    0    0 -0.12039038210E+00 -0.19239623961E+02  0.88450453227E+01  0.21175751480E+02  0.00000000000E+00 0. -1.
          4    1    5    5  502    0 -0.99065529561E+02  0.43955036778E+03  0.73530685036E+03  0.86237733571E+03  0.00000000000E+00 0. -1.
          3    1    6    6  503    0  0.30357630813E+02 -0.78263011503E+02  0.10326092000E+03  0.13307705406E+03  0.00000000000E+00 0.  1.
         -4    1    5    5    0  502  0.94534765176E+01  0.45653055195E+02  0.13253030518E+03  0.14049146400E+03  0.00000000000E+00 0.  1.
         -3    1    6    6    0  503  0.72012915574E+02 -0.29897866721E+03  0.70933233683E+03  0.77312771748E+03  0.00000000000E+00 0. -1.
<mgrwt>
<rscale>  0 0.15012734E+04</rscale>
<asrwt>0</asrwt>
<pdfrwt beam="1">  1        2 0.28005902E+00 0.15012734E+04</pdfrwt>
<pdfrwt beam="2">  1       -2 0.47619333E-01 0.15012734E+04</pdfrwt>
<totfact> 0.33940947E+01</totfact>
</mgrwt>
</event>
<event>
12    1  0.4403484E-008  0.1382057E+04  0.7818608E-02  0.8966910E-01
         -2   -1    0    0    0  501 -0.00000000000E+00  0.00000000000E+00  0.26659010833E+03  0.26659010833E+03  0.00000000000E+00 0.  1.
          2   -1    0    0  501    0  0.00000000000E+00 -0.00000000000E+00 -0.17912149998E+04  0.17912149998E+04  0.00000000000E+00 0. -1.
         23    2    1    2    0    0 -0.36635822197E+03 -0.29932013864E+02 -0.26007609545E+03  0.45954044823E+03  0.91780040733E+02 0.  0.
        254    2    1    2    0    0  0.36635822197E+03  0.29932013864E+02 -0.12645487961E+04  0.15982646599E+04  0.90567764317E+03 0.  0.
         23    2    4    4    0    0 -0.61952217558E+02  0.26482471963E+03 -0.57623324109E+02  0.29280469266E+03  0.91890865582E+02 0.  0.
         23    2    4    4    0    0  0.42831043952E+03 -0.23489270576E+03 -0.12069254719E+04  0.13054599673E+04  0.94510398942E+02 0.  0.
         11    1    3    3    0    0 -0.15154610987E+03  0.70604665209E+01 -0.58348215655E+02  0.16254411055E+03  0.00000000000E+00 0. -1.
        -11    1    3    3    0    0 -0.21481211210E+03 -0.36992480384E+02 -0.20172787980E+03  0.29699633768E+03  0.00000000000E+00 0.  1.
          3    1    5    5  502    0 -0.62802850245E+02  0.77993775563E+02 -0.16255848442E+02  0.10144693014E+03  0.00000000000E+00 0. -1.
          3    1    6    6  503    0  0.25233711013E+02 -0.37244088102E+02 -0.16310529425E+03  0.16919574250E+03  0.00000000000E+00 0. -1.
         -3    1    5    5    0  502  0.85063268663E+00  0.18683094406E+03 -0.41367475668E+02  0.19135776252E+03  0.00000000000E+00 0.  1.
         -3    1    6    6    0  503  0.40307672851E+03 -0.19764861766E+03 -0.10438201777E+04  0.11362642248E+04  0.00000000000E+00 0.  1.
<mgrwt>
<rscale>  0 0.13820567E+04</rscale>
<asrwt>0</asrwt>
<pdfrwt beam="1">  1        2 0.27557155E+00 0.13820567E+04</pdfrwt>
<pdfrwt beam="2">  1       -2 0.41013861E-01 0.13820567E+04</pdfrwt>
<totfact> 0.47883757E+01</totfact>
</mgrwt>
</event>
<event>
12    1  0.4403484E-008  0.1682076E+04  0.7818608E-02  0.8771654E-01
         -1   -1    0    0    0  501 -0.00000000000E+00  0.00000000000E+00  0.12396450269E+04  0.12396450269E+04  0.00000000000E+00 0.  1.
          1   -1    0    0  501    0  0.00000000000E+00 -0.00000000000E+00 -0.57060250444E+03  0.57060250444E+03  0.00000000000E+00 0. -1.
         23    2    1    2    0    0  0.26871363610E+03 -0.21951140443E+03  0.76592913587E+03  0.84592783231E+03  0.92488817791E+02 0.  0.
        254    2    1    2    0    0 -0.26871363610E+03  0.21951140443E+03 -0.96886613372E+02  0.96431969906E+03  0.89450164407E+03 0.  0.
         23    2    4    4    0    0  0.78303092824E+02  0.48049212034E+03  0.45657407091E+02  0.49735130335E+03  0.90937715326E+02 0.  0.
         23    2    4    4    0    0 -0.34701672892E+03 -0.26098071591E+03 -0.14254402046E+03  0.46696839571E+03  0.95964267297E+02 0.  0.
         13    1    3    3    0    0  0.12330178111E+03 -0.10422613616E+03  0.24960316014E+03  0.29726781568E+03  0.00000000000E+00 0. -1.
        -13    1    3    3    0    0  0.14541185498E+03 -0.11528526828E+03  0.51632597572E+03  0.54866001664E+03  0.00000000000E+00 0.  1.
          4    1    5    5  502    0 -0.14827533551E+01  0.20261062851E+03 -0.10297005459E+02  0.20287753366E+03  0.00000000000E+00 0. -1.
          3    1    6    6  503    0 -0.22389850716E+03 -0.21879862422E+03 -0.83132363036E+02  0.32390487686E+03  0.00000000000E+00 0. -1.
         -4    1    5    5    0  502  0.79785846179E+02  0.27788149183E+03  0.55954412550E+02  0.29447376969E+03  0.00000000000E+00 0.  1.
         -3    1    6    6    0  503 -0.12311822176E+03 -0.42182091688E+02 -0.59411657427E+02  0.14306351885E+03  0.00000000000E+00 0.  1.
<mgrwt>
<rscale>  0 0.16820756E+04</rscale>
<asrwt>0</asrwt>
<pdfrwt beam="1">  1        1 0.87785001E-01 0.16820756E+04</pdfrwt>
<pdfrwt beam="2">  1       -1 0.19071462E+00 0.16820756E+04</pdfrwt>
<totfact> 0.61273778E+00</totfact>
</mgrwt>
</event>
<event>
12    1  0.4403484E-008  0.2228161E+04  0.7818608E-02  0.8506797E-01
         -2   -1    0    0    0  501 -0.00000000000E+00  0.00000000000E+00  0.94531175353E+03  0.94531175353E+03  0.00000000000E+00 0.  1.
          2   -1    0    0  501    0  0.00000000000E+00 -0.00000000000E+00 -0.13129802391E+04  0.13129802391E+04  0.00000000000E+00 0. -1.
         23    2    1    2    0    0 -0.10231091491E+03  0.61539783229E+03  0.54972062830E+03  0.83736620161E+03  0.99032172232E+02 0.  0.
        254    2    1    2    0    0  0.10231091491E+03 -0.61539783229E+03 -0.91738911391E+03  0.14209257911E+04  0.88783179830E+03 0.  0.
         23    2    4    4    0    0  0.33622785406E+03 -0.72386707757E+03 -0.59550241257E+03  0.99910459758E+03  0.80957752603E+02 0.  0.
         23    2    4    4    0    0 -0.23391693915E+03  0.10846924528E+03 -0.32188670134E+03  0.42182119347E+03  0.88540155670E+02 0.  0.
         11    1    3    3    0    0 -0.73232370135E+02  0.26560193821E+03  0.29520399690E+03  0.40379793140E+03  0.00000000000E+00 0.  1.
        -11    1    3    3    0    0 -0.29078544775E+02  0.34979589408E+03  0.25451663139E+03  0.43356827021E+03  0.00000000000E+00 0. -1.
          1    1    5    5  502    0  0.25989524917E+03 -0.47922002650E+03 -0.38403193854E+03  0.66684173847E+03  0.00000000000E+00 0. -1.
          1    1    6    6  503    0 -0.21985459238E+03  0.70473697612E+02 -0.28715735949E+03  0.36845886195E+03  0.00000000000E+00 0. -1.
         -1    1    5    5    0  502  0.76332604899E+02 -0.24464705106E+03 -0.21147047402E+03  0.33226285912E+03  0.00000000000E+00 0.  1.
         -1    1    6    6    0  503 -0.14062346778E+02  0.37995547667E+02 -0.34729341855E+02  0.53362331519E+02  0.00000000000E+00 0.  1.
<mgrwt>
<rscale>  0 0.22281613E+04</rscale>
<asrwt>0</asrwt>
<pdfrwt beam="1">  1        2 0.20199696E+00 0.22281613E+04</pdfrwt>
<pdfrwt beam="2">  1       -2 0.14543258E+00 0.22281613E+04</pdfrwt>
<totfact> 0.48174208E+00</totfact>
</mgrwt>
</event>
<event>
12    1  0.4403484E-008  0.1505826E+04  0.7818608E-02  0.8880588E-01
         -2   -1    0    0    0  501 -0.00000000000E+00  0.00000000000E+00  0.15877941386E+03  0.15877941386E+03  0.00000000000E+00 0.  1.
          2   -1    0    0  501    0  0.00000000000E+00 -0.00000000000E+00 -0.35702257655E+04  0.35702257655E+04  0.00000000000E+00 0. -1.
         23    2    1    2    0    0  0.29936777317E+02  0.30754769753E+03 -0.19822411502E+04  0.20084189303E+04  0.94788317640E+02 0.  0.
        254    2    1    2    0    0 -0.29936777317E+02 -0.30754769753E+03 -0.14292052014E+04  0.17205862490E+04  0.90681185244E+03 0.  0.
         23    2    4    4    0    0  0.12061952864E+03  0.12392202305E+03  0.21555315359E+02  0.19668869754E+03  0.91192508656E+02 0.  0.
         23    2    4    4    0    0 -0.15055630596E+03 -0.43146972057E+03 -0.14507605167E+04  0.15238975515E+04  0.93404225734E+02 0.  0.
         13    1    3    3    0    0  0.29709147015E+02  0.26612957784E+02 -0.33866694323E+03  0.34100759724E+03  0.00000000000E+00 0.  1.
        -13    1    3    3    0    0  0.22763030195E+00  0.28093473974E+03 -0.16435742070E+04  0.16674113331E+04  0.00000000000E+00 0. -1.
          2    1    5    5  502    0  0.43518505189E+02  0.53270459818E+02  0.53719665863E+02  0.87277744492E+02  0.00000000000E+00 0. -1.
          4    1    6    6  503    0 -0.14094385697E+03 -0.29447644168E+03 -0.10917549807E+04  0.11395220416E+04  0.00000000000E+00 0. -1.
         -2    1    5    5    0  502  0.77101023452E+02  0.70651563228E+02 -0.32164350504E+02  0.10941095305E+03  0.00000000000E+00 0.  1.
         -4    1    6    6    0  503 -0.96124489913E+01 -0.13699327889E+03 -0.35900553608E+03  0.38437550985E+03  0.00000000000E+00 0.  1.
<mgrwt>
<rscale>  0 0.15058265E+04</rscale>
<asrwt>0</asrwt>
<pdfrwt beam="1">  1        2 0.54926545E+00 0.15058265E+04</pdfrwt>
<pdfrwt beam="2">  1       -2 0.24427604E-01 0.15058265E+04</pdfrwt>
<totfact> 0.10638457E+01</totfact>
</mgrwt>
</event>
<event>
12    1  0.4945870E-008  0.2526196E+04  0.7818608E-02  0.8393712E-01
         -2   -1    0    0    0  501 -0.00000000000E+00  0.00000000000E+00  0.10298802550E+04  0.10298802550E+04  0.00000000000E+00 0. -1.
          2   -1    0    0  501    0  0.00000000000E+00 -0.00000000000E+00 -0.15491279028E+04  0.15491279028E+04  0.00000000000E+00 0.  1.
         23    2    1    2    0    0 -0.35593033204E+03 -0.51655812873E+02  0.82513756491E+03  0.90444957883E+03  0.88443854230E+02 0.  0.
        254    2    1    2    0    0  0.35593033204E+03  0.51655812873E+02 -0.13443852128E+04  0.16745585790E+04  0.93135391232E+03 0.  0.
         23    2    4    4    0    0  0.14384658210E+03 -0.30300295717E+03 -0.11621810349E+04  0.12130191530E+04  0.90818921291E+02 0.  0.
         23    2    4    4    0    0  0.21208374994E+03  0.35465877004E+03 -0.18220417785E+03  0.46153942598E+03  0.95173101016E+02 0.  0.
         13    1    3    3    0    0 -0.19454293141E+03  0.90436147864E+01  0.49640231206E+03  0.53323915324E+03  0.00000000000E+00 0. -1.
        -13    1    3    3    0    0 -0.16138740063E+03 -0.60699427659E+02  0.32873525285E+03  0.37121042558E+03  0.00000000000E+00 0.  1.
          1    1    5    5  502    0  0.12135784250E+03 -0.15136342454E+03 -0.66889950404E+03  0.69646619353E+03  0.00000000000E+00 0. -1.
          3    1    6    6  503    0  0.71393488586E+02  0.17720210917E+03 -0.43355215421E+02  0.19590123126E+03  0.00000000000E+00 0. -1.
         -1    1    5    5    0  502  0.22488739595E+02 -0.15163953263E+03 -0.49328153088E+03  0.51655295950E+03  0.00000000000E+00 0.  1.
         -3    1    6    6    0  503  0.14069026135E+03  0.17745666087E+03 -0.13884896242E+03  0.26563819472E+03  0.00000000000E+00 0.  1.
<mgrwt>
<rscale>  0 0.25261957E+04</rscale>
<asrwt>0</asrwt>
<pdfrwt beam="1">  1        2 0.23832737E+00 0.25261957E+04</pdfrwt>
<pdfrwt beam="2">  1       -2 0.15844312E+00 0.25261957E+04</pdfrwt>
<totfact> 0.27422471E+00</totfact>
</mgrwt>
</event>
<event>
12    1  0.4403484E-008  0.1114450E+04  0.7818608E-02  0.9191221E-01
          2   -1    0    0  501    0  0.00000000000E+00  0.00000000000E+00  0.51362066057E+03  0.51362066057E+03  0.00000000000E+00 0.  1.
         -2   -1    0    0    0  501 -0.00000000000E+00 -0.00000000000E+00 -0.60453129803E+03  0.60453129803E+03  0.00000000000E+00 0. -1.
         23    2    1    2    0    0 -0.37690848819E+02 -0.40135156695E+02 -0.24560723000E+03  0.26797606068E+03  0.91961006851E+02 0.  0.
        254    2    1    2    0    0  0.37690848819E+02  0.40135156695E+02  0.15469659255E+03  0.85017589792E+03  0.83416820292E+03 0.  0.
         23    2    4    4    0    0  0.40417154641E+03 -0.10418873883E+03  0.11717715872E+03  0.44263246662E+03  0.89348093207E+02 0.  0.
         23    2    4    4    0    0 -0.36648069759E+03  0.14432389552E+03  0.37519433827E+02  0.40754343129E+03  0.97705946348E+02 0.  0.
         13    1    3    3    0    0 -0.17141708161E+02 -0.47480172373E+02 -0.49641057060E+02  0.70798583837E+02  0.00000000000E+00 0.  1.
        -13    1    3    3    0    0 -0.20549140658E+02  0.73450156775E+01 -0.19596617294E+03  0.19717747685E+03  0.00000000000E+00 0. -1.
          2    1    5    5  502    0  0.77862513677E+02 -0.39869042626E+02  0.57636403994E+02  0.10475717952E+03  0.00000000000E+00 0. -1.
          3    1    6    6  503    0  0.48019929607E+01 -0.32184738561E+00  0.62030092847E+01  0.78511175204E+01  0.00000000000E+00 0. -1.
         -2    1    5    5    0  502  0.32630903273E+03 -0.64319696204E+02  0.59540754729E+02  0.33787528710E+03  0.00000000000E+00 0.  1.
         -3    1    6    6    0  503 -0.37128269055E+03  0.14464574291E+03  0.31316424542E+02  0.39969231377E+03  0.00000000000E+00 0.  1.
<mgrwt>
<rscale>  0 0.11144501E+04</rscale>
<asrwt>0</asrwt>
<pdfrwt beam="1">  1        2 0.79018564E-01 0.11144501E+04</pdfrwt>
<pdfrwt beam="2">  1       -2 0.93004814E-01 0.11144501E+04</pdfrwt>
<totfact> 0.58000684E+01</totfact>
</mgrwt>
</event>
<event>
12    1  0.4403484E-008  0.1123681E+04  0.7818608E-02  0.9182413E-01
          1   -1    0    0  501    0  0.00000000000E+00  0.00000000000E+00  0.15869766424E+04  0.15869766424E+04  0.00000000000E+00 0. -1.
         -1   -1    0    0    0  501 -0.00000000000E+00 -0.00000000000E+00 -0.19890947712E+03  0.19890947712E+03  0.00000000000E+00 0.  1.
         23    2    1    2    0    0  0.92401083755E+02 -0.11001056213E+03  0.40287574245E+03  0.43710921105E+03  0.90085040216E+02 0.  0.
        254    2    1    2    0    0 -0.92401083755E+02  0.11001056213E+03  0.98519142281E+03  0.13487769085E+04  0.90992127415E+03 0.  0.
         23    2    4    4    0    0 -0.43021215049E+03  0.22728089516E+02  0.19761309581E+03  0.48253745639E+03  0.90511881514E+02 0.  0.
         23    2    4    4    0    0  0.33781106674E+03  0.87282472610E+02  0.78757832700E+03  0.86623945207E+03  0.91414552094E+02 0.  0.
         11    1    3    3    0    0  0.10095043533E+03 -0.73255292684E+02  0.24669262288E+03  0.27643186951E+03  0.00000000000E+00 0. -1.
        -11    1    3    3    0    0 -0.85493515748E+01 -0.36755269442E+02  0.15618311957E+03  0.16067734154E+03  0.00000000000E+00 0.  1.
          2    1    5    5  502    0 -0.24159746767E+03  0.27423120924E+02  0.15733495888E+03  0.28961293692E+03  0.00000000000E+00 0. -1.
          1    1    6    6  503    0  0.40068956948E+02 -0.14658761393E+02  0.61083765479E+02  0.74509241048E+02  0.00000000000E+00 0. -1.
         -2    1    5    5    0  502 -0.18861468282E+03 -0.46950314081E+01  0.40278136928E+02  0.19292451946E+03  0.00000000000E+00 0.  1.
         -1    1    6    6    0  503  0.29774210979E+03  0.10194123400E+03  0.72649456152E+03  0.79173021102E+03  0.00000000000E+00 0.  1.
<mgrwt>
<rscale>  0 0.11236809E+04</rscale>
<asrwt>0</asrwt>
<pdfrwt beam="1">  1        1 0.24415024E+00 0.11236809E+04</pdfrwt>
<pdfrwt beam="2">  1       -1 0.30601459E-01 0.11236809E+04</pdfrwt>
<totfact> 0.55847403E+01</totfact>
</mgrwt>
</event>
<event>
12    1  0.4403484E-008  0.2739271E+04  0.7818608E-02  0.8322374E-01
          2   -1    0    0  501    0  0.00000000000E+00  0.00000000000E+00  0.21409021592E+04  0.21409021592E+04  0.00000000000E+00 0. -1.
         -2   -1    0    0    0  501 -0.00000000000E+00 -0.00000000000E+00 -0.87621986754E+03  0.87621986754E+03  0.00000000000E+00 0.  1.
         23    2    1    2    0    0 -0.28843606066E+03  0.52233338852E+03  0.17328663956E+04  0.18352769073E+04  0.96890926044E+02 0.  0.
        254    2    1    2    0    0  0.28843606066E+03 -0.52233338852E+03 -0.46818410392E+03  0.11818451195E+04  0.90638512865E+03 0.  0.
         23    2    4    4    0    0  0.16292443690E+03 -0.31948776959E+03 -0.72837003221E+03  0.81704764142E+03  0.91799441541E+02 0.  0.
         23    2    4    4    0    0  0.12551162376E+03 -0.20284561893E+03  0.26018592829E+03  0.36479747807E+03  0.92092181576E+02 0.  0.
         13    1    3    3    0    0 -0.16542507054E+03  0.37497685375E+03  0.12581365127E+04  0.13232084414E+04  0.00000000000E+00 0. -1.
        -13    1    3    3    0    0 -0.12301099012E+03  0.14735653476E+03  0.47472988294E+03  0.51206846592E+03  0.00000000000E+00 0.  1.
          2    1    5    5  502    0  0.13200622965E+03 -0.18807640179E+03 -0.52336524869E+03  0.57158513025E+03  0.00000000000E+00 0. -1.
          1    1    6    6  503    0  0.10833421724E+03 -0.20716494815E+03  0.22060643603E+03  0.32143555805E+03  0.00000000000E+00 0. -1.
         -2    1    5    5    0  502  0.30918207249E+02 -0.13141136780E+03 -0.20500478352E+03  0.24546251117E+03  0.00000000000E+00 0.  1.
         -1    1    6    6    0  503  0.17177406525E+02  0.43193292147E+01  0.39579492261E+02  0.43361920016E+02  0.00000000000E+00 0.  1.
<mgrwt>
<rscale>  0 0.27392707E+04</rscale>
<asrwt>0</asrwt>
<pdfrwt beam="1">  1        2 0.32936956E+00 0.27392707E+04</pdfrwt>
<pdfrwt beam="2">  1       -2 0.13480306E+00 0.27392707E+04</pdfrwt>
<totfact> 0.19301795E+00</totfact>
</mgrwt>
</event>
<event>
12    1  0.4403484E-008  0.2834965E+04  0.7818608E-02  0.8292495E-01
         -1   -1    0    0    0  501 -0.00000000000E+00  0.00000000000E+00  0.78107918246E+03  0.78107918246E+03  0.00000000000E+00 0.  1.
          1   -1    0    0  501    0  0.00000000000E+00 -0.00000000000E+00 -0.25724102467E+04  0.25724102467E+04  0.00000000000E+00 0. -1.
         23    2    1    2    0    0  0.23070474540E+03  0.93603849242E+03 -0.17927176709E+04  0.20380229651E+04  0.10152940378E+03 0.  0.
        254    2    1    2    0    0 -0.23070474540E+03 -0.93603849242E+03  0.13866066097E+01  0.13154664641E+04  0.89501807619E+03 0.  0.
         23    2    4    4    0    0  0.23709619705E+03 -0.45381752803E+03 -0.26896585369E+03  0.58540548305E+03  0.90509633356E+02 0.  0.
         23    2    4    4    0    0 -0.46780094245E+03 -0.48222096439E+03  0.27035246030E+03  0.73006098107E+03  0.92324444426E+02 0.  0.
         11    1    3    3    0    0  0.21585734756E+03  0.82055408689E+03 -0.16342428284E+04  0.18413725930E+04  0.00000000000E+00 0. -1.
        -11    1    3    3    0    0  0.14847397838E+02  0.11548440553E+03 -0.15847484245E+03  0.19665037206E+03  0.00000000000E+00 0.  1.
          2    1    6    6  502    0 -0.36721390156E+03 -0.36469357248E+03  0.16619809219E+03  0.54357083913E+03  0.00000000000E+00 0. -1.
          2    1    5    5  503    0  0.21983276991E+03 -0.44730388389E+03 -0.24559694541E+03  0.55563033653E+03  0.00000000000E+00 0. -1.
         -2    1    5    5    0  503  0.17263427135E+02 -0.65136441398E+01 -0.23368908277E+02  0.29775146523E+02  0.00000000000E+00 0.  1.
         -2    1    6    6    0  502 -0.10058704089E+03 -0.11752739191E+03  0.10415436811E+03  0.18649014194E+03  0.00000000000E+00 0.  1.
<mgrwt>
<rscale>  0 0.28349646E+04</rscale>
<asrwt>0</asrwt>
<pdfrwt beam="1">  1        1 0.39575542E+00 0.28349646E+04</pdfrwt>
<pdfrwt beam="2">  1       -1 0.12016603E+00 0.28349646E+04</pdfrwt>
<totfact> 0.64208049E-01</totfact>
</mgrwt>
</event>
<event>
12    1  0.4403484E-008  0.1833585E+04  0.7818608E-02  0.8688641E-01
         -2   -1    0    0    0  501 -0.00000000000E+00  0.00000000000E+00  0.22863694109E+03  0.22863694109E+03  0.00000000000E+00 0. -1.
          2   -1    0    0  501    0  0.00000000000E+00 -0.00000000000E+00 -0.36761701513E+04  0.36761701513E+04  0.00000000000E+00 0.  1.
         23    2    1    2    0    0  0.60853783740E+03  0.15295286293E+03 -0.19354130167E+04  0.20366193062E+04  0.91004260380E+02 0.  0.
        254    2    1    2    0    0 -0.60853783740E+03 -0.15295286293E+03 -0.15121201935E+04  0.18681877861E+04  0.89994735787E+03 0.  0.
         23    2    4    4    0    0  0.12859616398E+03 -0.18729559585E+03 -0.80696095703E+03  0.84326631704E+03  0.91079534813E+02 0.  0.
         23    2    4    4    0    0 -0.73713400138E+03  0.34342732913E+02 -0.70515923644E+03  0.10249214691E+04  0.93104832304E+02 0.  0.
         11    1    3    3    0    0  0.60312136920E+03  0.13881702325E+03 -0.18884432725E+04  0.19872703755E+04  0.00000000000E+00 0.  1.
        -11    1    3    3    0    0  0.54164681947E+01  0.14135839686E+02 -0.46969744177E+02  0.49348930681E+02  0.00000000000E+00 0. -1.
          3    1    5    5  502    0  0.79582750449E+02 -0.16342717012E+03 -0.69996413127E+03  0.72318160870E+03  0.00000000000E+00 0. -1.
          3    1    6    6  503    0 -0.54123078894E+03 -0.12171751600E+02 -0.53792938526E+03  0.76318211586E+03  0.00000000000E+00 0. -1.
         -3    1    5    5    0  502  0.49013413530E+02 -0.23868425728E+02 -0.10699682577E+03  0.12008470834E+03  0.00000000000E+00 0.  1.
         -3    1    6    6    0  503 -0.19590321243E+03  0.46514484513E+02 -0.16722985118E+03  0.26173935325E+03  0.00000000000E+00 0.  1.
<mgrwt>
<rscale>  0 0.18335848E+04</rscale>
<asrwt>0</asrwt>
<pdfrwt beam="1">  1        2 0.56556456E+00 0.18335848E+04</pdfrwt>
<pdfrwt beam="2">  1       -2 0.35174919E-01 0.18335848E+04</pdfrwt>
<totfact> 0.43842773E+00</totfact>
</mgrwt>
</event>
<event>
12    1  0.4403484E-008  0.1856715E+04  0.7818608E-02  0.8676707E-01
         -2   -1    0    0    0  501 -0.00000000000E+00  0.00000000000E+00  0.56748699426E+03  0.56748699426E+03  0.00000000000E+00 0.  1.
          2   -1    0    0  501    0  0.00000000000E+00 -0.00000000000E+00 -0.15187084911E+04  0.15187084911E+04  0.00000000000E+00 0. -1.
         23    2    1    2    0    0  0.62957991647E+03 -0.18416278890E+03 -0.66229098155E+02  0.66595008348E+03  0.93895773121E+02 0.  0.
        254    2    1    2    0    0 -0.62957991647E+03  0.18416278890E+03 -0.88499239868E+03  0.14202454019E+04  0.89643664125E+03 0.  0.
         23    2    4    4    0    0 -0.23991852290E+03  0.24361756053E+03 -0.94685073240E+03  0.10106115742E+04  0.88876493065E+02 0.  0.
         23    2    4    4    0    0 -0.38966139356E+03 -0.59454771631E+02  0.61858333721E+02  0.40963382767E+03  0.92749920868E+02 0.  0.
         13    1    3    3    0    0  0.21632891411E+02 -0.85179943505E+01  0.15411751262E+02  0.27893732191E+02  0.00000000000E+00 0. -1.
        -13    1    3    3    0    0  0.60794702505E+03 -0.17564479455E+03 -0.81640849417E+02  0.63805635129E+03  0.00000000000E+00 0.  1.
          4    1    5    5  502    0 -0.49284714828E+02  0.71240890652E+02 -0.14860398476E+03  0.17200985990E+03  0.00000000000E+00 0. -1.
          1    1    6    6  503    0 -0.19173142323E+03 -0.66689377875E+02  0.59569891392E+02  0.21155846411E+03  0.00000000000E+00 0. -1.
         -4    1    5    5    0  502 -0.19063380807E+03  0.17237666988E+03 -0.79824674763E+03  0.83860171429E+03  0.00000000000E+00 0.  1.
         -1    1    6    6    0  503 -0.19792997033E+03  0.72346062444E+01  0.22884423286E+01  0.19807536357E+03  0.00000000000E+00 0.  1.
<mgrwt>
<rscale>  0 0.18567146E+04</rscale>
<asrwt>0</asrwt>
<pdfrwt beam="1">  1        2 0.23364746E+00 0.18567146E+04</pdfrwt>
<pdfrwt beam="2">  1       -2 0.87305691E-01 0.18567146E+04</pdfrwt>
<totfact> 0.13196361E+01</totfact>
</mgrwt>
</event>
<event>
12    1  0.4403484E-008  0.3385962E+04  0.7818608E-02  0.8141360E-01
          2   -1    0    0  501    0  0.00000000000E+00  0.00000000000E+00  0.26969662382E+04  0.26969662382E+04  0.00000000000E+00 0. -1.
         -2   -1    0    0    0  501 -0.00000000000E+00 -0.00000000000E+00 -0.10627442031E+04  0.10627442031E+04  0.00000000000E+00 0.  1.
         23    2    1    2    0    0  0.11109065613E+04  0.16716217764E+03  0.19542656706E+04  0.22559888804E+04  0.90966673755E+02 0.  0.
        254    2    1    2    0    0 -0.11109065613E+04 -0.16716217764E+03 -0.32004363554E+03  0.15037215609E+04  0.94693929194E+03 0.  0.
         23    2    4    4    0    0 -0.38263941182E+03  0.14223584379E+03 -0.53519154948E+03  0.67899715534E+03  0.89236694172E+02 0.  0.
         23    2    4    4    0    0 -0.72826714946E+03 -0.30939802143E+03  0.21514791394E+03  0.82472440559E+03  0.88213058291E+02 0.  0.
         13    1    3    3    0    0  0.33999491865E+02 -0.48958998612E+00  0.34593963077E+02  0.48507189435E+02  0.00000000000E+00 0.  1.
        -13    1    3    3    0    0  0.10769070694E+04  0.16765176762E+03  0.19196717075E+04  0.22074816909E+04  0.00000000000E+00 0. -1.
          4    1    6    6  502    0 -0.55353482610E+03 -0.25443970298E+03  0.19878113311E+03  0.64082314646E+03  0.00000000000E+00 0. -1.
          4    1    5    5  503    0 -0.31301562527E+02 -0.24218310044E+01 -0.14930537080E+02  0.34764551192E+02  0.00000000000E+00 0.  1.
         -4    1    5    5    0  503 -0.35133784929E+03  0.14465767480E+03 -0.52026101240E+03  0.64423260415E+03  0.00000000000E+00 0. -1.
         -4    1    6    6    0  502 -0.17473232337E+03 -0.54958318447E+02  0.16366780824E+02  0.18390125913E+03  0.00000000000E+00 0.  1.
<mgrwt>
<rscale>  0 0.33859623E+04</rscale>
<asrwt>0</asrwt>
<pdfrwt beam="1">  1        2 0.41491788E+00 0.33859623E+04</pdfrwt>
<pdfrwt beam="2">  1       -2 0.16349911E+00 0.33859623E+04</pdfrwt>
<totfact> 0.52489318E-01</totfact>
</mgrwt>
</event>
<event>
12    1  0.4403484E-008  0.2021211E+04  0.7818608E-02  0.8596768E-01
          2   -1    0    0  501    0  0.00000000000E+00  0.00000000000E+00  0.41497196685E+04  0.41497196685E+04  0.00000000000E+00 0. -1.
         -2   -1    0    0    0  501 -0.00000000000E+00 -0.00000000000E+00 -0.24611861586E+03  0.24611861586E+03  0.00000000000E+00 0.  1.
         23    2    1    2    0    0 -0.31591526106E+03  0.40890720064E+03  0.28948192131E+04  0.29418415125E+04  0.86288221691E+02 0.  0.
        254    2    1    2    0    0  0.31591526106E+03 -0.40890720064E+03  0.10087818395E+04  0.14539967718E+04  0.91074599197E+03 0.  0.
         23    2    4    4    0    0  0.49112299724E+03 -0.41111745092E+03  0.29069436453E+03  0.70914028325E+03  0.90318164706E+02 0.  0.
         23    2    4    4    0    0 -0.17520773618E+03  0.22102502875E+01  0.71808747498E+03  0.74485648859E+03  0.91972446176E+02 0.  0.
         11    1    3    3    0    0 -0.24115671861E+03  0.31636898281E+03  0.20027443135E+04  0.20418694085E+04  0.00000000000E+00 0. -1.
        -11    1    3    3    0    0 -0.74758542457E+02  0.92538217829E+02  0.89207489960E+03  0.89997210397E+03  0.00000000000E+00 0.  1.
          1    1    5    5  502    0  0.44113658985E+03 -0.38978503215E+03  0.24307823213E+03  0.63688373281E+03  0.00000000000E+00 0. -1.
          1    1    6    6  503    0 -0.12378256985E+03 -0.69212873493E+01  0.31696805514E+03  0.34035096121E+03  0.00000000000E+00 0. -1.
         -1    1    5    5    0  502  0.49986407396E+02 -0.21332418778E+02  0.47616132406E+02  0.72256550434E+02  0.00000000000E+00 0.  1.
         -1    1    6    6    0  503 -0.51425166325E+02  0.91315376368E+01  0.40111941984E+03  0.40450552738E+03  0.00000000000E+00 0.  1.
<mgrwt>
<rscale>  0 0.20212108E+04</rscale>
<asrwt>0</asrwt>
<pdfrwt beam="1">  1        2 0.63841836E+00 0.20212108E+04</pdfrwt>
<pdfrwt beam="2">  1       -2 0.37864405E-01 0.20212108E+04</pdfrwt>
<totfact> 0.15869976E+00</totfact>
</mgrwt>
</event>
<event>
12    1  0.4403484E-008  0.1524390E+04  0.7818608E-02  0.8868394E-01
          2   -1    0    0  501    0  0.00000000000E+00  0.00000000000E+00  0.13810962567E+04  0.13810962567E+04  0.00000000000E+00 0. -1.
         -2   -1    0    0    0  501 -0.00000000000E+00 -0.00000000000E+00 -0.42063799862E+03  0.42063799862E+03  0.00000000000E+00 0.  1.
         23    2    1    2    0    0 -0.14601582611E+03 -0.30253761125E+03 -0.10322822315E+03  0.36285483021E+03  0.90321282416E+02 0.  0.
        254    2    1    2    0    0  0.14601582611E+03  0.30253761125E+03  0.10636864813E+04  0.14388794251E+04  0.90889792714E+03 0.  0.
         23    2    4    4    0    0 -0.15659363669E+03  0.50070564144E+03  0.86329566496E+03  0.10143893516E+04  0.92079558642E+02 0.  0.
         23    2    4    4    0    0  0.30260946280E+03 -0.19816803019E+03  0.20039081631E+03  0.42449007352E+03  0.95876420949E+02 0.  0.
         13    1    3    3    0    0  0.41844984410E+01 -0.10239656006E+02  0.10351863510E+02  0.15149972292E+02  0.00000000000E+00 0. -1.
        -13    1    3    3    0    0 -0.15020032455E+03 -0.29229795525E+03 -0.11358008666E+03  0.34770485792E+03  0.00000000000E+00 0.  1.
          2    1    6    6  502    0  0.22496176934E+02 -0.29504842036E+02 -0.63477541330E+01  0.37641833945E+02  0.00000000000E+00 0. -1.
          2    1    5    5  503    0 -0.15610211447E+03  0.38171489019E+03  0.63989782505E+03  0.76127744879E+03  0.00000000000E+00 0.  1.
         -2    1    5    5    0  503 -0.49152222054E+00  0.11899075126E+03  0.22339783991E+03  0.25311190283E+03  0.00000000000E+00 0. -1.
         -2    1    6    6    0  502  0.28011328586E+03 -0.16866318815E+03  0.20673857044E+03  0.38684823958E+03  0.00000000000E+00 0.  1.
<mgrwt>
<rscale>  0 0.15243905E+04</rscale>
<asrwt>0</asrwt>
<pdfrwt beam="1">  1        2 0.21247634E+00 0.15243905E+04</pdfrwt>
<pdfrwt beam="2">  1       -2 0.64713539E-01 0.15243905E+04</pdfrwt>
<totfact> 0.31534875E+01</totfact>
</mgrwt>
</event>
<event>
12    1  0.4403484E-008  0.1104514E+04  0.7818608E-02  0.9200803E-01
          1   -1    0    0  501    0  0.00000000000E+00  0.00000000000E+00  0.58810278201E+03  0.58810278201E+03  0.00000000000E+00 0. -1.
         -1   -1    0    0    0  501 -0.00000000000E+00 -0.00000000000E+00 -0.51859647847E+03  0.51859647847E+03  0.00000000000E+00 0.  1.
         23    2    1    2    0    0  0.11228162493E+02  0.16113947483E+03  0.84044461509E+02  0.20094441189E+03  0.84989312159E+02 0.  0.
        254    2    1    2    0    0 -0.11228162493E+02 -0.16113947483E+03 -0.14538157970E+02  0.90575484859E+03  0.89111642658E+03 0.  0.
         23    2    4    4    0    0 -0.42891004972E+03 -0.82762311766E+01  0.69972199800E+02  0.44389342333E+03  0.90071836734E+02 0.  0.
         23    2    4    4    0    0  0.41768188723E+03 -0.15286324365E+03 -0.84510357770E+02  0.46186142526E+03  0.91370922044E+02 0.  0.
         13    1    3    3    0    0 -0.38237024925E+01  0.11327248726E+03  0.13161624700E+02  0.11409866535E+03  0.00000000000E+00 0. -1.
        -13    1    3    3    0    0  0.15051864986E+02  0.47866987567E+02  0.70882836809E+02  0.86845746542E+02  0.00000000000E+00 0.  1.
          3    1    5    5  502    0 -0.23828576674E+03 -0.60807483876E+01 -0.65959359162E+01  0.23845458373E+03  0.00000000000E+00 0. -1.
          3    1    6    6  503    0  0.22321897031E+03 -0.10597725909E+03 -0.65935384045E+01  0.24718689872E+03  0.00000000000E+00 0. -1.
         -3    1    5    5    0  502 -0.19062428298E+03 -0.21954827890E+01  0.76568135716E+02  0.20543883959E+03  0.00000000000E+00 0.  1.
         -3    1    6    6    0  503  0.19446291692E+03 -0.46885984555E+02 -0.77916819365E+02  0.21467452654E+03  0.00000000000E+00 0.  1.
<mgrwt>
<rscale>  0 0.11045144E+04</rscale>
<asrwt>0</asrwt>
<pdfrwt beam="1">  1        1 0.90477352E-01 0.11045144E+04</pdfrwt>
<pdfrwt beam="2">  1       -1 0.79784073E-01 0.11045144E+04</pdfrwt>
<totfact> 0.55129346E+01</totfact>
</mgrwt>
</event>
<event>
12    1  0.4403484E-008  0.1770924E+04  0.7818608E-02  0.8721916E-01
          2   -1    0    0  501    0  0.00000000000E+00  0.00000000000E+00  0.47466582090E+03  0.47466582090E+03  0.00000000000E+00 0. -1.
         -2   -1    0    0    0  501 -0.00000000000E+00 -0.00000000000E+00 -0.16517785951E+04  0.16517785951E+04  0.00000000000E+00 0.  1.
         23    2    1    2    0    0 -0.17284940126E+03  0.53697850197E+03 -0.83882821939E+03  0.10162956470E+04  0.10488676487E+03 0.  0.
        254    2    1    2    0    0  0.17284940126E+03 -0.53697850197E+03 -0.33828455482E+03  0.11101487690E+04  0.89429917931E+03 0.  0.
         23    2    4    4    0    0  0.31857310190E+03 -0.15336124355E+03 -0.53406267502E+03  0.64690274525E+03  0.90839026248E+02 0.  0.
         23    2    4    4    0    0 -0.14572370064E+03 -0.38361725842E+03  0.19577812019E+03  0.46324602372E+03  0.88714194220E+02 0.  0.
         13    1    3    3    0    0 -0.18062921474E+02  0.18184809313E+02 -0.12778635190E+02  0.28640005923E+02  0.00000000000E+00 0. -1.
        -13    1    3    3    0    0 -0.15478647979E+03  0.51879369266E+03 -0.82604958420E+03  0.98765564112E+03  0.00000000000E+00 0.  1.
          4    1    5    5  502    0  0.16827510948E+03 -0.12205061150E+03 -0.35148788316E+03  0.40835841641E+03  0.00000000000E+00 0. -1.
          1    1    6    6  503    0 -0.67556099764E+02 -0.12793928436E+03  0.11232443164E+03  0.18316403861E+03  0.00000000000E+00 0. -1.
         -4    1    5    5    0  502  0.15029799241E+03 -0.31310632050E+02 -0.18257479186E+03  0.23854432885E+03  0.00000000000E+00 0.  1.
         -1    1    6    6    0  503 -0.78167600871E+02 -0.25567797406E+03  0.83453688555E+02  0.28008198510E+03  0.00000000000E+00 0.  1.
<mgrwt>
<rscale>  0 0.17709239E+04</rscale>
<asrwt>0</asrwt>
<pdfrwt beam="1">  1        2 0.73025511E-01 0.17709239E+04</pdfrwt>
<pdfrwt beam="2">  1       -2 0.25411978E+00 0.17709239E+04</pdfrwt>
<totfact> 0.37523188E+00</totfact>
</mgrwt>
</event>
<event>
12    1  0.4403484E-008  0.1182648E+04  0.7818608E-02  0.9128182E-01
          2   -1    0    0  501    0  0.00000000000E+00  0.00000000000E+00  0.41329305878E+03  0.41329305878E+03  0.00000000000E+00 0. -1.
         -2   -1    0    0    0  501 -0.00000000000E+00 -0.00000000000E+00 -0.84604346212E+03  0.84604346212E+03  0.00000000000E+00 0.  1.
         23    2    1    2    0    0  0.12879107406E+03 -0.44823860484E+02 -0.28709261356E+03  0.32980070221E+03  0.88034170607E+02 0.  0.
        254    2    1    2    0    0 -0.12879107406E+03  0.44823860484E+02 -0.14565778979E+03  0.92953581869E+03  0.90786801203E+03 0.  0.
         23    2    4    4    0    0  0.26148905970E+03 -0.58752835564E+02  0.23391507330E+03  0.36774371001E+03  0.93224195920E+02 0.  0.
         23    2    4    4    0    0 -0.39028013376E+03  0.10357669605E+03 -0.37957286309E+03  0.56179210868E+03  0.92130886289E+02 0.  0.
         11    1    3    3    0    0  0.13990947874E+03 -0.30915460226E+02 -0.24085115864E+03  0.28024936849E+03  0.00000000000E+00 0.  1.
        -11    1    3    3    0    0 -0.11118404683E+02 -0.13908400258E+02 -0.46241454919E+02  0.49551333720E+02  0.00000000000E+00 0. -1.
          2    1    5    5  502    0  0.15463362240E+03  0.12196016371E+02  0.11853278594E+03  0.19521865007E+03  0.00000000000E+00 0. -1.
          2    1    6    6  503    0 -0.20114983577E+03  0.13792760221E+02 -0.22103583483E+03  0.29917943937E+03  0.00000000000E+00 0. -1.
         -2    1    5    5    0  502  0.10685543730E+03 -0.70948851935E+02  0.11538228736E+03  0.17252505994E+03  0.00000000000E+00 0.  1.
         -2    1    6    6    0  503 -0.18913029799E+03  0.89783935827E+02 -0.15853702826E+03  0.26261266930E+03  0.00000000000E+00 0.  1.
<mgrwt>
<rscale>  0 0.11826477E+04</rscale>
<asrwt>0</asrwt>
<pdfrwt beam="1">  1        2 0.63583548E-01 0.11826477E+04</pdfrwt>
<pdfrwt beam="2">  1       -2 0.13016053E+00 0.11826477E+04</pdfrwt>
<totfact> 0.32752078E+01</totfact>
</mgrwt>
</event>
<event>
12    1  0.4403484E-008  0.1737925E+04  0.7818608E-02  0.8740025E-01
          2   -1    0    0  501    0  0.00000000000E+00  0.00000000000E+00  0.14448154350E+04  0.14448154350E+04  0.00000000000E+00 0. -1.
         -2   -1    0    0    0  501 -0.00000000000E+00 -0.00000000000E+00 -0.52262467659E+03  0.52262467659E+03  0.00000000000E+00 0.  1.
         23    2    1    2    0    0  0.31403014981E+02  0.24343683038E+03 -0.32304508313E+03  0.41782617397E+03  0.99864639313E+02 0.  0.
        254    2    1    2    0    0 -0.31403014981E+02 -0.24343683038E+03  0.12452358415E+04  0.15496139376E+04  0.88906884709E+03 0.  0.
         23    2    4    4    0    0 -0.39303661365E+03 -0.25856884239E+03  0.39574350304E+03  0.62184416463E+03  0.93496625417E+02 0.  0.
         23    2    4    4    0    0  0.36163359867E+03  0.15132012008E+02  0.84949233848E+03  0.92776977297E+03  0.90064871200E+02 0.  0.
         13    1    3    3    0    0  0.47066215144E+01  0.42823341188E+02 -0.86762393009E+01  0.43946193977E+02  0.00000000000E+00 0. -1.
        -13    1    3    3    0    0  0.26696393467E+02  0.20061348919E+03 -0.31436884383E+03  0.37387998000E+03  0.00000000000E+00 0.  1.
          2    1    5    5  502    0 -0.29645818714E+03 -0.19172756612E+03  0.24053909739E+03  0.42720717890E+03  0.00000000000E+00 0. -1.
          1    1    6    6  503    0  0.15658733387E+03 -0.21493405942E+02  0.45490485196E+03  0.48158071386E+03  0.00000000000E+00 0. -1.
         -2    1    5    5    0  502 -0.96578426510E+02 -0.66841276263E+02  0.15520440565E+03  0.19463698573E+03  0.00000000000E+00 0.  1.
         -1    1    6    6    0  503  0.20504626480E+03  0.36625417950E+02  0.39458748652E+03  0.44618905911E+03  0.00000000000E+00 0.  1.
<mgrwt>
<rscale>  0 0.17379254E+04</rscale>
<asrwt>0</asrwt>
<pdfrwt beam="1">  1        2 0.22227930E+00 0.17379254E+04</pdfrwt>
<pdfrwt beam="2">  1       -2 0.80403797E-01 0.17379254E+04</pdfrwt>
<totfact> 0.17689467E+01</totfact>
</mgrwt>
</event>
<event>
12    1  0.4403484E-008  0.2705084E+04  0.7818608E-02  0.8333357E-01
         -1   -1    0    0    0  501 -0.00000000000E+00  0.00000000000E+00  0.11727890516E+04  0.11727890516E+04  0.00000000000E+00 0.  1.
          1   -1    0    0  501    0  0.00000000000E+00 -0.00000000000E+00 -0.15598461921E+04  0.15598461921E+04  0.00000000000E+00 0. -1.
         23    2    1    2    0    0  0.72307483741E+03  0.20611070127E+03 -0.11190932976E+04  0.13511363933E+04  0.88774450128E+02 0.  0.
        254    2    1    2    0    0 -0.72307483741E+03 -0.20611070127E+03  0.73203615710E+03  0.13814988504E+04  0.89852284157E+03 0.  0.
         23    2    4    4    0    0 -0.45067147933E+03  0.31663187376E+02  0.86868928051E+03  0.98354316194E+03  0.92891041618E+02 0.  0.
         23    2    4    4    0    0 -0.27240335808E+03 -0.23777388865E+03 -0.13665312341E+03  0.39795568851E+03  0.94628971578E+02 0.  0.
         11    1    3    3    0    0  0.25343918681E+03  0.54006028991E+02 -0.31870971469E+03  0.41076021572E+03  0.00000000000E+00 0.  1.
        -11    1    3    3    0    0  0.46963565060E+03  0.15210467228E+03 -0.80038358291E+03  0.94037617762E+03  0.00000000000E+00 0. -1.
          2    1    5    5  502    0 -0.14867338744E+03  0.54553529815E+02  0.29985064020E+03  0.33910215301E+03  0.00000000000E+00 0. -1.
          4    1    6    6  503    0 -0.25516561506E+03 -0.17817648073E+03 -0.12148423753E+03  0.33408796650E+03  0.00000000000E+00 0.  1.
         -2    1    5    5    0  502 -0.30199809189E+03 -0.22890342438E+02  0.56883864031E+03  0.64444100893E+03  0.00000000000E+00 0.  1.
         -4    1    6    6    0  503 -0.17237743019E+02 -0.59597407921E+02 -0.15168885882E+02  0.63867722006E+02  0.00000000000E+00 0. -1.
<mgrwt>
<rscale>  0 0.27050845E+04</rscale>
<asrwt>0</asrwt>
<pdfrwt beam="1">  1        1 0.23997634E+00 0.27050845E+04</pdfrwt>
<pdfrwt beam="2">  1       -1 0.18042908E+00 0.27050845E+04</pdfrwt>
<totfact> 0.10725675E+00</totfact>
</mgrwt>
</event>
<event>
12    1  0.4403484E-008  0.4217762E+04  0.7818608E-02  0.7962002E-01
         -1   -1    0    0    0  501 -0.00000000000E+00  0.00000000000E+00  0.22779494039E+04  0.22779494039E+04  0.00000000000E+00 0.  1.
          1   -1    0    0  501    0  0.00000000000E+00 -0.00000000000E+00 -0.19523606276E+04  0.19523606276E+04  0.00000000000E+00 0. -1.
         23    2    1    2    0    0  0.43874793305E+03  0.28193029486E+03 -0.17936015199E+04  0.18702024688E+04  0.93093620825E+02 0.  0.
        254    2    1    2    0    0 -0.43874793305E+03 -0.28193029486E+03  0.21191902962E+04  0.23601075627E+04  0.89841847497E+03 0.  0.
         23    2    4    4    0    0 -0.27842872102E+03  0.10012897923E+03  0.18037350698E+04  0.18303552539E+04  0.95873814738E+02 0.  0.
         23    2    4    4    0    0 -0.16031921204E+03 -0.38205927409E+03  0.31545522641E+03  0.52975230881E+03  0.97231528589E+02 0.  0.
         11    1    3    3    0    0  0.33587227492E+02 -0.38645569278E+01 -0.12541514200E+03  0.12989224185E+03  0.00000000000E+00 0.  1.
        -11    1    3    3    0    0  0.40516070556E+03  0.28579485179E+03 -0.16681863779E+04  0.17403102269E+04  0.00000000000E+00 0. -1.
          1    1    5    5  502    0 -0.15100239197E+03  0.71895440774E+01  0.77590735432E+03  0.79049708059E+03  0.00000000000E+00 0. -1.
          3    1    6    6  503    0 -0.68021451188E+02 -0.20980323192E+03  0.11096163473E+03  0.24689430599E+03  0.00000000000E+00 0. -1.
         -1    1    5    5    0  502 -0.12742632904E+03  0.92939435149E+02  0.10278277155E+04  0.10398581733E+04  0.00000000000E+00 0.  1.
         -3    1    6    6    0  503 -0.92297760849E+02 -0.17225604217E+03  0.20449359168E+03  0.28285800282E+03  0.00000000000E+00 0.  1.
<mgrwt>
<rscale>  0 0.42177618E+04</rscale>
<asrwt>0</asrwt>
<pdfrwt beam="1">  1        1 0.30036317E+00 0.42177618E+04</pdfrwt>
<pdfrwt beam="2">  1       -1 0.35045376E+00 0.42177618E+04</pdfrwt>
<totfact> 0.38078174E-02</totfact>
</mgrwt>
</event>
<event>
12    1  0.4403484E-008  0.2210493E+04  0.7818608E-02  0.8514073E-01
          2   -1    0    0  501    0  0.00000000000E+00  0.00000000000E+00  0.10907805343E+04  0.10907805343E+04  0.00000000000E+00 0. -1.
         -2   -1    0    0    0  501 -0.00000000000E+00 -0.00000000000E+00 -0.11199041236E+04  0.11199041236E+04  0.00000000000E+00 0.  1.
         23    2    1    2    0    0  0.45644625524E+03 -0.41028726571E+03 -0.69799785576E+03  0.93378802862E+03  0.89890218690E+02 0.  0.
        254    2    1    2    0    0 -0.45644625524E+03  0.41028726571E+03  0.66887426640E+03  0.12768966293E+04  0.89799409423E+03 0.  0.
         23    2    4    4    0    0 -0.25885028556E+03  0.31473768779E+03 -0.13475570461E+03  0.43888799789E+03  0.91653108594E+02 0.  0.
         23    2    4    4    0    0 -0.19759596968E+03  0.95549577921E+02  0.80362997101E+03  0.83800863139E+03  0.90903503257E+02 0.  0.
         11    1    3    3    0    0  0.24868376949E+03 -0.21514550035E+03 -0.30655085564E+03  0.44956048605E+03  0.00000000000E+00 0. -1.
        -11    1    3    3    0    0  0.20776248576E+03 -0.19514176536E+03 -0.39144700012E+03  0.48422754257E+03  0.00000000000E+00 0.  1.
          1    1    5    5  502    0 -0.19854871234E+03  0.19547783368E+03 -0.57408224506E+02  0.28448001489E+03  0.00000000000E+00 0. -1.
          1    1    6    6  503    0 -0.63993914643E+02  0.78810249859E-01  0.13338822020E+03  0.14794473499E+03  0.00000000000E+00 0.  1.
         -1    1    5    5    0  502 -0.60301573227E+02  0.11925985411E+03 -0.77347480099E+02  0.15440798300E+03  0.00000000000E+00 0.  1.
         -1    1    6    6    0  503 -0.13360205504E+03  0.95470767672E+02  0.67024175081E+03  0.69006389640E+03  0.00000000000E+00 0. -1.
<mgrwt>
<rscale>  0 0.22104928E+04</rscale>
<asrwt>0</asrwt>
<pdfrwt beam="1">  1        2 0.16781239E+00 0.22104928E+04</pdfrwt>
<pdfrwt beam="2">  1       -2 0.17229294E+00 0.22104928E+04</pdfrwt>
<totfact> 0.41384254E+00</totfact>
</mgrwt>
</event>
<event>
12    1  0.4403484E-008  0.1715472E+04  0.7818608E-02  0.8752589E-01
         -2   -1    0    0    0  501 -0.00000000000E+00  0.00000000000E+00  0.40697286767E+03  0.40697286767E+03  0.00000000000E+00 0.  1.
          2   -1    0    0  501    0  0.00000000000E+00 -0.00000000000E+00 -0.18077637383E+04  0.18077637383E+04  0.00000000000E+00 0. -1.
         23    2    1    2    0    0  0.21426523641E+03  0.88302851732E+02 -0.12553850409E+04  0.12802095697E+04  0.96114288245E+02 0.  0.
        254    2    1    2    0    0 -0.21426523641E+03 -0.88302851732E+02 -0.14540582974E+03  0.93452703623E+03  0.89358320316E+03 0.  0.
         23    2    4    4    0    0 -0.48091855183E+03  0.19003596737E+03 -0.67972868000E+02  0.52892581437E+03  0.88010703491E+02 0.  0.
         23    2    4    4    0    0  0.26665331542E+03 -0.27833881910E+03 -0.77432961744E+02  0.40560122186E+03  0.99699542464E+02 0.  0.
         13    1    3    3    0    0  0.18716324018E+03  0.73866204222E+02 -0.12011351862E+04  0.12178719268E+04  0.00000000000E+00 0. -1.
        -13    1    3    3    0    0  0.27101996233E+02  0.14436647510E+02 -0.54249854676E+02  0.62337642909E+02  0.00000000000E+00 0.  1.
          4    1    5    5  502    0 -0.28554856870E+03  0.11361816716E+03 -0.83809874411E+02  0.31854539400E+03  0.00000000000E+00 0. -1.
          3    1    6    6  503    0  0.65152944792E+02 -0.47106220954E+02  0.21688196056E+02  0.83272325029E+02  0.00000000000E+00 0. -1.
         -4    1    5    5    0  502 -0.19536998314E+03  0.76417800218E+02  0.15837006411E+02  0.21038042036E+03  0.00000000000E+00 0.  1.
         -3    1    6    6    0  503  0.20150037063E+03 -0.23123259815E+03 -0.99121157800E+02  0.32232889683E+03  0.00000000000E+00 0.  1.
<mgrwt>
<rscale>  0 0.17154717E+04</rscale>
<asrwt>0</asrwt>
<pdfrwt beam="1">  1        2 0.27811749E+00 0.17154717E+04</pdfrwt>
<pdfrwt beam="2">  1       -2 0.62611212E-01 0.17154717E+04</pdfrwt>
<totfact> 0.19206878E+01</totfact>
</mgrwt>
</event>
<event>
12    1  0.4403484E-008  0.2860173E+04  0.7818608E-02  0.8284827E-01
         -1   -1    0    0    0  501 -0.00000000000E+00  0.00000000000E+00  0.10254635773E+04  0.10254635773E+04  0.00000000000E+00 0.  1.
          1   -1    0    0  501    0  0.00000000000E+00 -0.00000000000E+00 -0.19943634317E+04  0.19943634317E+04  0.00000000000E+00 0. -1.
         23    2    1    2    0    0 -0.18321082559E+03 -0.65807955587E+03  0.72076181455E+03  0.99533535046E+03  0.67527461765E+02 0.  0.
        254    2    1    2    0    0  0.18321082559E+03  0.65807955587E+03 -0.16896616690E+04  0.20244916585E+04  0.88146186032E+03 0.  0.
         23    2    4    4    0    0  0.49788401713E+03  0.18188905471E+03 -0.80675372133E+03  0.96929766186E+03  0.87830903865E+02 0.  0.
         23    2    4    4    0    0 -0.31467319154E+03  0.47619050116E+03 -0.88290794764E+03  0.10551939966E+04  0.90173807828E+02 0.  0.
         11    1    3    3    0    0 -0.17440400812E+03 -0.60907014355E+03  0.69030297405E+03  0.93696392342E+03  0.00000000000E+00 0.  1.
        -11    1    3    3    0    0 -0.88068174741E+01 -0.49009412314E+02  0.30458840502E+02  0.58371427035E+02  0.00000000000E+00 0. -1.
          2    1    5    5  502    0  0.32453373745E+03  0.15740041633E+03 -0.57667932996E+03  0.68018827350E+03  0.00000000000E+00 0. -1.
          1    1    6    6  503    0 -0.28181835169E+03  0.45966778821E+03 -0.84508750867E+03  0.10024414976E+04  0.00000000000E+00 0. -1.
         -2    1    5    5    0  502  0.17335027968E+03  0.24488638382E+02 -0.23007439137E+03  0.28910938836E+03  0.00000000000E+00 0.  1.
         -1    1    6    6    0  503 -0.32854839852E+02  0.16522712948E+02 -0.37820438964E+02  0.52752498977E+02  0.00000000000E+00 0.  1.
<mgrwt>
<rscale>  0 0.28601728E+04</rscale>
<asrwt>0</asrwt>
<pdfrwt beam="1">  1        1 0.30682514E+00 0.28601728E+04</pdfrwt>
<pdfrwt beam="2">  1       -1 0.15776363E+00 0.28601728E+04</pdfrwt>
<totfact> 0.78690319E-01</totfact>
</mgrwt>
</event>
<event>
12    1  0.4403484E-008  0.1389056E+04  0.7818608E-02  0.8961779E-01
         -3   -1    0    0    0  501 -0.00000000000E+00  0.00000000000E+00  0.21520547726E+04  0.21520547726E+04  0.00000000000E+00 0.  1.
          3   -1    0    0  501    0  0.00000000000E+00 -0.00000000000E+00 -0.22414351770E+03  0.22414351770E+03  0.00000000000E+00 0. -1.
         23    2    1    2    0    0 -0.61601883093E+02 -0.16521116699E+03 -0.45846371774E+02  0.20216201657E+03  0.87624593809E+02 0.  0.
        254    2    1    2    0    0  0.61601883093E+02  0.16521116699E+03  0.19737576267E+04  0.21740362737E+04  0.89421755122E+03 0.  0.
         23    2    4    4    0    0  0.36739471832E+03 -0.11517828097E+03  0.14344653270E+04  0.14878442644E+04  0.88004916078E+02 0.  0.
         23    2    4    4    0    0 -0.30579283523E+03  0.28038944796E+03  0.53929229968E+03  0.68619200933E+03  0.88858249934E+02 0.  0.
         13    1    3    3    0    0 -0.23516963948E+02 -0.10518206059E+03  0.14706636406E+02  0.10877774872E+03  0.00000000000E+00 0. -1.
        -13    1    3    3    0    0 -0.38084919144E+02 -0.60029106401E+02 -0.60553008180E+02  0.93384267847E+02  0.00000000000E+00 0.  1.
          2    1    5    5  502    0  0.97451227511E+02 -0.69330262248E+02  0.49888437081E+03  0.51301953417E+03  0.00000000000E+00 0. -1.
          3    1    6    6  503    0 -0.75126468873E+02  0.69210662356E+02  0.76403347176E+02  0.12756007827E+03  0.00000000000E+00 0. -1.
         -2    1    5    5    0  502  0.26994349081E+03 -0.45848018717E+02  0.93558095620E+03  0.97482473023E+03  0.00000000000E+00 0.  1.
         -3    1    6    6    0  503 -0.23066636636E+03  0.21117878560E+03  0.46288895250E+03  0.55863193106E+03  0.00000000000E+00 0.  1.
<mgrwt>
<rscale>  0 0.13890560E+04</rscale>
<asrwt>0</asrwt>
<pdfrwt beam="1">  1        3 0.34483620E-01 0.13890560E+04</pdfrwt>
<pdfrwt beam="2">  1       -3 0.33108534E+00 0.13890560E+04</pdfrwt>
<totfact> 0.54506778E-01</totfact>
</mgrwt>
</event>
<event>
12    1  0.4403484E-008  0.1702492E+04  0.7818608E-02  0.8759944E-01
          1   -1    0    0  501    0  0.00000000000E+00  0.00000000000E+00  0.94634605435E+03  0.94634605435E+03  0.00000000000E+00 0. -1.
         -1   -1    0    0    0  501 -0.00000000000E+00 -0.00000000000E+00 -0.76570260438E+03  0.76570260438E+03  0.00000000000E+00 0.  1.
         23    2    1    2    0    0 -0.36521569949E+03 -0.45605373967E+03 -0.13803471423E+03  0.60777041239E+03  0.94677194849E+02 0.  0.
        254    2    1    2    0    0  0.36521569949E+03  0.45605373967E+03  0.31867816421E+03  0.11042782463E+04  0.88119643235E+03 0.  0.
         23    2    4    4    0    0  0.28516890975E+03 -0.82108628849E+02 -0.18181411979E+03  0.35924633928E+03  0.89097834505E+02 0.  0.
         23    2    4    4    0    0  0.80046789740E+02  0.53816236852E+03  0.50049228400E+03  0.74503190706E+03  0.92486716690E+02 0.  0.
         13    1    3    3    0    0 -0.23268805882E+03 -0.29892912517E+03 -0.42796802347E+02  0.38122686275E+03  0.00000000000E+00 0.  1.
        -13    1    3    3    0    0 -0.13252764066E+03 -0.15712461450E+03 -0.95237911883E+02  0.22654354964E+03  0.00000000000E+00 0. -1.
          4    1    5    5  502    0  0.27269501507E+03 -0.92604412741E+02 -0.15292243701E+03  0.32607272232E+03  0.00000000000E+00 0. -1.
          3    1    6    6  503    0  0.23326593675E+02  0.37071485441E+03  0.29792276381E+03  0.47616342410E+03  0.00000000000E+00 0. -1.
         -4    1    5    5    0  502  0.12473894674E+02  0.10495783892E+02 -0.28891682782E+02  0.33173616954E+02  0.00000000000E+00 0.  1.
         -3    1    6    6    0  503  0.56720196066E+02  0.16744751410E+03  0.20256952018E+03  0.26886848296E+03  0.00000000000E+00 0.  1.
<mgrwt>
<rscale>  0 0.17024919E+04</rscale>
<asrwt>0</asrwt>
<pdfrwt beam="1">  1        1 0.14559170E+00 0.17024919E+04</pdfrwt>
<pdfrwt beam="2">  1       -1 0.11780040E+00 0.17024919E+04</pdfrwt>
<totfact> 0.10285000E+01</totfact>
</mgrwt>
</event>
<event>
12    1  0.4403484E-008  0.1177941E+04  0.7818608E-02  0.9132387E-01
         -1   -1    0    0    0  501 -0.00000000000E+00  0.00000000000E+00  0.37656670550E+03  0.37656670550E+03  0.00000000000E+00 0.  1.
          1   -1    0    0  501    0  0.00000000000E+00 -0.00000000000E+00 -0.92118086387E+03  0.92118086387E+03  0.00000000000E+00 0. -1.
         23    2    1    2    0    0 -0.12498468946E+03 -0.25869202415E+02  0.10343563552E+03  0.18786334298E+03  0.91122536751E+02 0.  0.
        254    2    1    2    0    0  0.12498468946E+03  0.25869202415E+02 -0.64804979390E+03  0.11098842264E+04  0.89195519640E+03 0.  0.
         23    2    4    4    0    0  0.36020757439E+03  0.30173813144E+03 -0.53886000106E+03  0.72072477366E+03  0.90987372821E+02 0.  0.
         23    2    4    4    0    0 -0.23522288493E+03 -0.27586892902E+03 -0.10918979283E+03  0.38915945273E+03  0.89939964383E+02 0.  0.
         11    1    3    3    0    0  0.83209759926E+01  0.81238561501E+01  0.29441449994E+02  0.31654931021E+02  0.00000000000E+00 0. -1.
        -11    1    3    3    0    0 -0.13330566545E+03 -0.33993058565E+02  0.73994185531E+02  0.15620841195E+03  0.00000000000E+00 0.  1.
          4    1    5    5  502    0  0.20626802200E+03  0.22805089615E+03 -0.36142136873E+03  0.47453041410E+03  0.00000000000E+00 0. -1.
          3    1    6    6  503    0 -0.20127967368E+03 -0.18031979821E+03 -0.61709696827E+02  0.27719455865E+03  0.00000000000E+00 0. -1.
         -4    1    5    5    0  502  0.15393955239E+03  0.73687235292E+02 -0.17743863233E+03  0.24619435956E+03  0.00000000000E+00 0.  1.
         -3    1    6    6    0  503 -0.33943211250E+02 -0.95549130808E+02 -0.47480096005E+02  0.11196489407E+03  0.00000000000E+00 0.  1.
<mgrwt>
<rscale>  0 0.11779406E+04</rscale>
<asrwt>0</asrwt>
<pdfrwt beam="1">  1        1 0.14172013E+00 0.11779406E+04</pdfrwt>
<pdfrwt beam="2">  1       -1 0.57933340E-01 0.11779406E+04</pdfrwt>
<totfact> 0.52316530E+01</totfact>
</mgrwt>
</event>
<event>
12    1  0.4403484E-008  0.1072616E+04  0.7818608E-02  0.9232301E-01
         -2   -1    0    0    0  501 -0.00000000000E+00  0.00000000000E+00  0.40576662388E+03  0.40576662388E+03  0.00000000000E+00 0.  1.
          2   -1    0    0  501    0  0.00000000000E+00 -0.00000000000E+00 -0.70884622481E+03  0.70884622481E+03  0.00000000000E+00 0. -1.
         23    2    1    2    0    0 -0.12400300501E+03  0.95325979717E+01 -0.18982966285E+03  0.24441534527E+03  0.90752104280E+02 0.  0.
        254    2    1    2    0    0  0.12400300501E+03 -0.95325979717E+01 -0.11324993808E+03  0.87019750342E+03  0.85378599825E+03 0.  0.
         23    2    4    4    0    0 -0.12295578142E+02 -0.40118032023E+03  0.50480396445E+02  0.41473533967E+03  0.91434681389E+02 0.  0.
         23    2    4    4    0    0  0.13629858316E+03  0.39164772226E+03 -0.16373033453E+03  0.45546216375E+03  0.93128502825E+02 0.  0.
         11    1    3    3    0    0 -0.11064595794E+03 -0.73929018717E+01 -0.19303221127E+03  0.22261764888E+03  0.00000000000E+00 0. -1.
        -11    1    3    3    0    0 -0.13357047076E+02  0.16925499843E+02  0.32025484220E+01  0.21797696391E+02  0.00000000000E+00 0.  1.
          1    1    5    5  502    0 -0.44078127597E+02 -0.33819310847E+03  0.44178912362E+02  0.34390294597E+03  0.00000000000E+00 0. -1.
          3    1    6    6  503    0  0.10930546075E+03  0.34052938590E+03 -0.17236914594E+03  0.39701268101E+03  0.00000000000E+00 0. -1.
         -1    1    5    5    0  502  0.31782549455E+02 -0.62987211766E+02  0.63014840827E+01  0.70832393702E+02  0.00000000000E+00 0.  1.
         -3    1    6    6    0  503  0.26993122406E+02  0.51118336360E+02  0.86388114132E+01  0.58449482735E+02  0.00000000000E+00 0.  1.
<mgrwt>
<rscale>  0 0.10726158E+04</rscale>
<asrwt>0</asrwt>
<pdfrwt beam="1">  1        2 0.10905326E+00 0.10726158E+04</pdfrwt>
<pdfrwt beam="2">  1       -2 0.62425635E-01 0.10726158E+04</pdfrwt>
<totfact> 0.95514429E+01</totfact>
</mgrwt>
</event>
<event>
12    1  0.4403484E-008  0.2702797E+04  0.7818608E-02  0.8334098E-01
         -2   -1    0    0    0  501 -0.00000000000E+00  0.00000000000E+00  0.77730294766E+03  0.77730294766E+03  0.00000000000E+00 0.  1.
          2   -1    0    0  501    0  0.00000000000E+00 -0.00000000000E+00 -0.23495055558E+04  0.23495055558E+04  0.00000000000E+00 0. -1.
         23    2    1    2    0    0  0.44764040273E+03 -0.86105216423E+03 -0.14965892419E+04  0.17856476757E+04  0.83459590939E+02 0.  0.
        254    2    1    2    0    0 -0.44764040273E+03  0.86105216423E+03 -0.75613366313E+02  0.13411608278E+04  0.92260621342E+03 0.  0.
         23    2    4    4    0    0  0.48663541884E+02  0.72427398980E+03  0.18854341208E+03  0.75534622360E+03  0.89768294310E+02 0.  0.
         23    2    4    4    0    0 -0.49630394461E+03  0.13677817443E+03 -0.26415677839E+03  0.58581460415E+03  0.91509958058E+02 0.  0.
         11    1    3    3    0    0  0.21301114436E+03 -0.40811177664E+03 -0.63382982645E+03  0.78337042244E+03  0.00000000000E+00 0.  1.
        -11    1    3    3    0    0  0.23462925837E+03 -0.45294038759E+03 -0.86275941542E+03  0.10022772533E+04  0.00000000000E+00 0. -1.
          4    1    5    5  502    0  0.40873305592E+02  0.16201640658E+03  0.67148720942E+02  0.18008024276E+03  0.00000000000E+00 0. -1.
          1    1    6    6  503    0 -0.13725011508E+03  0.27147591866E+02 -0.11772714576E+03  0.18285039426E+03  0.00000000000E+00 0. -1.
         -4    1    5    5    0  502  0.77902362920E+01  0.56225758322E+03  0.12139469114E+03  0.57526598084E+03  0.00000000000E+00 0.  1.
         -1    1    6    6    0  503 -0.35905382953E+03  0.10963058257E+03 -0.14642963263E+03  0.40296420989E+03  0.00000000000E+00 0.  1.
<mgrwt>
<rscale>  0 0.27027968E+04</rscale>
<asrwt>0</asrwt>
<pdfrwt beam="1">  1        2 0.36146238E+00 0.27027968E+04</pdfrwt>
<pdfrwt beam="2">  1       -2 0.11958507E+00 0.27027968E+04</pdfrwt>
<totfact> 0.19956606E+00</totfact>
</mgrwt>
</event>
<event>
12    1  0.4403484E-008  0.1348107E+04  0.7818608E-02  0.8992262E-01
         -1   -1    0    0    0  501 -0.00000000000E+00  0.00000000000E+00  0.33217869351E+03  0.33217869351E+03  0.00000000000E+00 0.  1.
          1   -1    0    0  501    0  0.00000000000E+00 -0.00000000000E+00 -0.13677823288E+04  0.13677823288E+04  0.00000000000E+00 0. -1.
         23    2    1    2    0    0  0.23058630073E+03  0.74926254560E+02 -0.60116157100E+03  0.65502362995E+03  0.94216429759E+02 0.  0.
        254    2    1    2    0    0 -0.23058630073E+03 -0.74926254560E+02 -0.43444206430E+03  0.10449373924E+04  0.91889621886E+03 0.  0.
         23    2    4    4    0    0  0.12505595600E+03  0.35424592279E+03 -0.14842103674E+03  0.41179785632E+03  0.80121809628E+02 0.  0.
         23    2    4    4    0    0 -0.35564225673E+03 -0.42917217735E+03 -0.28602102756E+03  0.63313953605E+03  0.91583138860E+02 0.  0.
         11    1    3    3    0    0  0.13673936356E+03  0.12377574384E+02 -0.41751940817E+03  0.43951486220E+03  0.00000000000E+00 0. -1.
        -11    1    3    3    0    0  0.93846937174E+02  0.62548680176E+02 -0.18364216283E+03  0.21550876775E+03  0.00000000000E+00 0.  1.
          2    1    5    5  502    0  0.19069518449E+02  0.11124062461E+03 -0.78943931689E+02  0.13773259399E+03  0.00000000000E+00 0. -1.
          4    1    6    6  503    0 -0.19936438138E+03 -0.17760774787E+03 -0.16012084285E+03  0.31133479243E+03  0.00000000000E+00 0. -1.
         -2    1    5    5    0  502  0.10598643755E+03  0.24300529818E+03 -0.69477105056E+02  0.27406526233E+03  0.00000000000E+00 0.  1.
         -4    1    6    6    0  503 -0.15627787535E+03 -0.25156442949E+03 -0.12590018471E+03  0.32180474362E+03  0.00000000000E+00 0.  1.
<mgrwt>
<rscale>  0 0.13481070E+04</rscale>
<asrwt>0</asrwt>
<pdfrwt beam="1">  1        1 0.21042805E+00 0.13481070E+04</pdfrwt>
<pdfrwt beam="2">  1       -1 0.51104414E-01 0.13481070E+04</pdfrwt>
<totfact> 0.30505100E+01</totfact>
</mgrwt>
</event>
<event>
12    1  0.4403484E-008  0.1404159E+04  0.7818608E-02  0.8950813E-01
         -2   -1    0    0    0  501 -0.00000000000E+00  0.00000000000E+00  0.72554821350E+03  0.72554821350E+03  0.00000000000E+00 0.  1.
          2   -1    0    0  501    0  0.00000000000E+00 -0.00000000000E+00 -0.67937031988E+03  0.67937031988E+03  0.00000000000E+00 0. -1.
         23    2    1    2    0    0 -0.80172366014E+02 -0.38834818485E+03 -0.97257215763E+02  0.41822278299E+03  0.90605790362E+02 0.  0.
        254    2    1    2    0    0  0.80172366014E+02  0.38834818485E+03  0.14343510938E+03  0.98669575039E+03  0.89204985975E+03 0.  0.
         23    2    4    4    0    0 -0.34010360137E+03  0.41548794460E+03  0.11016346298E+03  0.55576518004E+03  0.91859974950E+02 0.  0.
         23    2    4    4    0    0  0.42027596738E+03 -0.27139759750E+02  0.33271646395E+02  0.43093057035E+03  0.85004109828E+02 0.  0.
         13    1    3    3    0    0 -0.86380628876E+02 -0.37294260653E+03 -0.10882353733E+03  0.39798286783E+03  0.00000000000E+00 0. -1.
        -13    1    3    3    0    0  0.62082628615E+01 -0.15405578317E+02  0.11566321566E+02  0.20239915158E+02  0.00000000000E+00 0.  1.
          4    1    5    5  502    0 -0.34428028047E+03  0.39868900509E+03  0.10168565269E+03  0.53649026669E+03  0.00000000000E+00 0.  1.
          3    1    6    6  503    0  0.89308204548E+02 -0.37732404533E+02 -0.77542189924E+01  0.97261593980E+02  0.00000000000E+00 0. -1.
         -4    1    5    5    0  502  0.41766790997E+01  0.16798939514E+02  0.84778102957E+01  0.19274913346E+02  0.00000000000E+00 0. -1.
         -3    1    6    6    0  503  0.33096776283E+03  0.10592644783E+02  0.41025865388E+02  0.33366897637E+03  0.00000000000E+00 0.  1.
<mgrwt>
<rscale>  0 0.14041594E+04</rscale>
<asrwt>0</asrwt>
<pdfrwt beam="1">  1        2 0.10451851E+00 0.14041594E+04</pdfrwt>
<pdfrwt beam="2">  1       -2 0.11162280E+00 0.14041594E+04</pdfrwt>
<totfact> 0.26252475E+01</totfact>
</mgrwt>
</event>
<event>
12    1  0.4403484E-008  0.2063425E+04  0.7818608E-02  0.8577528E-01
          1   -1    0    0  501    0  0.00000000000E+00  0.00000000000E+00  0.19464115218E+04  0.19464115218E+04  0.00000000000E+00 0. -1.
         -1   -1    0    0    0  501 -0.00000000000E+00 -0.00000000000E+00 -0.54686837093E+03  0.54686837093E+03  0.00000000000E+00 0.  1.
         23    2    1    2    0    0 -0.13767013489E+03  0.15082958154E+03 -0.40683062405E+03  0.46424818909E+03  0.91173437446E+02 0.  0.
        254    2    1    2    0    0  0.13767013489E+03 -0.15082958154E+03  0.18063737749E+04  0.20290317036E+04  0.90126622644E+03 0.  0.
         23    2    4    4    0    0  0.38667132234E+02  0.21715775963E+03  0.70013989366E+02  0.24902683665E+03  0.91976991604E+02 0.  0.
         23    2    4    4    0    0  0.99003002661E+02 -0.36798734116E+03  0.17363597855E+04  0.17800048669E+04  0.90861123666E+02 0.  0.
         11    1    3    3    0    0 -0.55850462489E+02  0.25583949476E+02 -0.19834984696E+03  0.20764506838E+03  0.00000000000E+00 0. -1.
        -11    1    3    3    0    0 -0.81819672406E+02  0.12524563206E+03 -0.20848077709E+03  0.25660312071E+03  0.00000000000E+00 0.  1.
          2    1    5    5  502    0  0.60328622548E+02  0.14599416248E+03  0.74190360000E+02  0.17452234153E+03  0.00000000000E+00 0. -1.
          1    1    6    6  503    0  0.11625946291E+03 -0.32791563467E+03  0.15605281767E+04  0.15988411793E+04  0.00000000000E+00 0. -1.
         -2    1    5    5    0  502 -0.21661490314E+02  0.71163597145E+02 -0.41763706340E+01  0.74504495119E+02  0.00000000000E+00 0.  1.
         -1    1    6    6    0  503 -0.17256460246E+02 -0.40071706499E+02  0.17583160878E+03  0.18116368766E+03  0.00000000000E+00 0.  1.
<mgrwt>
<rscale>  0 0.20634252E+04</rscale>
<asrwt>0</asrwt>
<pdfrwt beam="1">  1        1 0.29944792E+00 0.20634252E+04</pdfrwt>
<pdfrwt beam="2">  1       -1 0.84133597E-01 0.20634252E+04</pdfrwt>
<totfact> 0.41843547E+00</totfact>
</mgrwt>
</event>
<event>
12    1  0.4403484E-008  0.1725529E+04  0.7818608E-02  0.8746937E-01
          2   -1    0    0  501    0  0.00000000000E+00  0.00000000000E+00  0.10109537211E+04  0.10109537211E+04  0.00000000000E+00 0.  1.
         -2   -1    0    0    0  501 -0.00000000000E+00 -0.00000000000E+00 -0.73629749164E+03  0.73629749164E+03  0.00000000000E+00 0. -1.
         23    2    1    2    0    0 -0.45278130776E+03  0.18540252825E+03  0.45886852988E+03  0.67798082133E+03  0.98552809420E+02 0.  0.
        254    2    1    2    0    0  0.45278130776E+03 -0.18540252825E+03 -0.18421230038E+03  0.10692703914E+04  0.93274862009E+03 0.  0.
         23    2    4    4    0    0  0.27689688434E+02 -0.45071506396E+03 -0.29739109208E+03  0.54756849407E+03  0.86481248380E+02 0.  0.
         23    2    4    4    0    0  0.42509161932E+03  0.26531253571E+03  0.11317879171E+03  0.52170189738E+03  0.90938465002E+02 0.  0.
         13    1    3    3    0    0 -0.45125118854E+03  0.18781802495E+03  0.43614123765E+03  0.65507436588E+03  0.00000000000E+00 0.  1.
        -13    1    3    3    0    0 -0.15301192132E+01 -0.24154966993E+01  0.22727292233E+02  0.22906455451E+02  0.00000000000E+00 0. -1.
          4    1    5    5  502    0 -0.81384477761E+00 -0.36802553965E+03 -0.26811681674E+03  0.45533513767E+03  0.00000000000E+00 0. -1.
          1    1    6    6  503    0  0.32568085089E+03  0.16745073802E+03  0.10922420943E+03  0.38214878545E+03  0.00000000000E+00 0. -1.
         -4    1    5    5    0  502  0.28503533212E+02 -0.82689524303E+02 -0.29274275346E+02  0.92233356396E+02  0.00000000000E+00 0.  1.
         -1    1    6    6    0  503  0.99410768433E+02  0.97861797686E+02  0.39545822752E+01  0.13955311192E+03  0.00000000000E+00 0.  1.
<mgrwt>
<rscale>  0 0.17255291E+04</rscale>
<asrwt>0</asrwt>
<pdfrwt beam="1">  1        2 0.15553134E+00 0.17255291E+04</pdfrwt>
<pdfrwt beam="2">  1       -2 0.11327654E+00 0.17255291E+04</pdfrwt>
<totfact> 0.14400544E+01</totfact>
</mgrwt>
</event>
<event>
12    1  0.4403484E-008  0.1813322E+04  0.7818608E-02  0.8699247E-01
         -1   -1    0    0    0  501 -0.00000000000E+00  0.00000000000E+00  0.43692237178E+03  0.43692237178E+03  0.00000000000E+00 0.  1.
          1   -1    0    0  501    0  0.00000000000E+00 -0.00000000000E+00 -0.18814197549E+04  0.18814197549E+04  0.00000000000E+00 0. -1.
         23    2    1    2    0    0 -0.41184187093E+03 -0.38859103291E+03 -0.10285102468E+04  0.11775778258E+04  0.90771639692E+02 0.  0.
        254    2    1    2    0    0  0.41184187093E+03  0.38859103291E+03 -0.41598713631E+03  0.11407643009E+04  0.89871084060E+03 0.  0.
         23    2    4    4    0    0  0.26879954653E+03 -0.14659827907E+03 -0.47836638705E+03  0.57561541895E+03  0.93565263999E+02 0.  0.
         23    2    4    4    0    0  0.14304232440E+03  0.53518931198E+03  0.62379250737E+02  0.56514888191E+03  0.92808305503E+02 0.  0.
         13    1    3    3    0    0 -0.18819015706E+03 -0.23177748420E+03 -0.49100750332E+03  0.57465181259E+03  0.00000000000E+00 0.  1.
        -13    1    3    3    0    0 -0.22365171387E+03 -0.15681354871E+03 -0.53750274349E+03  0.60292601323E+03  0.00000000000E+00 0. -1.
          1    1    6    6  502    0 -0.53888437445E+01  0.11373448873E+03  0.26340170682E+02  0.11686906415E+03  0.00000000000E+00 0. -1.
          1    1    5    5  503    0  0.70913913142E+02 -0.82191500114E+02 -0.12531145447E+03  0.16579260052E+03  0.00000000000E+00 0. -1.
         -1    1    5    5    0  503  0.19788563339E+03 -0.64406778953E+02 -0.35305493258E+03  0.40982281842E+03  0.00000000000E+00 0.  1.
         -1    1    6    6    0  502  0.14843116814E+03  0.42145482325E+03  0.36039080055E+02  0.44827981775E+03  0.00000000000E+00 0.  1.
<mgrwt>
<rscale>  0 0.18133222E+04</rscale>
<asrwt>0</asrwt>
<pdfrwt beam="1">  1        1 0.28944919E+00 0.18133222E+04</pdfrwt>
<pdfrwt beam="2">  1       -1 0.67218827E-01 0.18133222E+04</pdfrwt>
<totfact> 0.75786134E+00</totfact>
</mgrwt>
</event>
<event>
12    1  0.4403484E-008  0.1684360E+04  0.7818608E-02  0.8770335E-01
          1   -1    0    0  501    0  0.00000000000E+00  0.00000000000E+00  0.12085894890E+04  0.12085894890E+04  0.00000000000E+00 0. -1.
         -1   -1    0    0    0  501 -0.00000000000E+00 -0.00000000000E+00 -0.58685544913E+03  0.58685544913E+03  0.00000000000E+00 0.  1.
         23    2    1    2    0    0  0.12213736917E+03  0.30536004576E+03  0.70708618815E+03  0.78518944459E+03  0.91593077970E+02 0.  0.
        254    2    1    2    0    0 -0.12213736917E+03 -0.30536004576E+03 -0.85352148294E+02  0.10102554935E+04  0.95140363594E+03 0.  0.
         23    2    4    4    0    0 -0.16581328573E+03 -0.45019060277E+03 -0.41196179367E+03  0.63881685766E+03  0.90602613889E+02 0.  0.
         23    2    4    4    0    0  0.43675916556E+02  0.14483055701E+03  0.32660964537E+03  0.37143863586E+03  0.91702365428E+02 0.  0.
         13    1    3    3    0    0  0.36013228547E+01  0.68348996200E+02  0.22361616583E+03  0.23385624736E+03  0.00000000000E+00 0. -1.
        -13    1    3    3    0    0  0.11853604632E+03  0.23701104956E+03  0.48347002231E+03  0.55133319723E+03  0.00000000000E+00 0.  1.
          4    1    5    5  502    0 -0.10182854518E+03 -0.21530287637E+03 -0.25620374425E+03  0.34980671771E+03  0.00000000000E+00 0.  1.
          1    1    6    6  503    0 -0.30571846674E+01  0.16570240700E+02 -0.63637583465E+00  0.16861916533E+02  0.00000000000E+00 0. -1.
         -4    1    5    5    0  502 -0.63984740552E+02 -0.23488772640E+03 -0.15575804942E+03  0.28901013995E+03  0.00000000000E+00 0. -1.
         -1    1    6    6    0  503  0.46733101224E+02  0.12826031631E+03  0.32724602121E+03  0.35457671932E+03  0.00000000000E+00 0.  1.
<mgrwt>
<rscale>  0 0.16843602E+04</rscale>
<asrwt>0</asrwt>
<pdfrwt beam="1">  1        1 0.18593684E+00 0.16843602E+04</pdfrwt>
<pdfrwt beam="2">  1       -1 0.90285454E-01 0.16843602E+04</pdfrwt>
<totfact> 0.12039137E+01</totfact>
</mgrwt>
</event>
<event>
12    1  0.4403484E-008  0.2087703E+04  0.7818608E-02  0.8566680E-01
         -2   -1    0    0    0  501 -0.00000000000E+00  0.00000000000E+00  0.19602604516E+04  0.19602604516E+04  0.00000000000E+00 0. -1.
          2   -1    0    0  501    0  0.00000000000E+00 -0.00000000000E+00 -0.55585786031E+03  0.55585786031E+03  0.00000000000E+00 0.  1.
         23    2    1    2    0    0 -0.26462430289E+03  0.83642734172E+02  0.15420304066E+04  0.15694320426E+04  0.90758100629E+02 0.  0.
        254    2    1    2    0    0  0.26462430289E+03 -0.83642734172E+02 -0.13762781526E+03  0.94668626934E+03  0.89456768797E+03 0.  0.
         23    2    4    4    0    0  0.29620391501E+03  0.34982191657E+03  0.37491286267E+02  0.46901411308E+03  0.91959279795E+02 0.  0.
         23    2    4    4    0    0 -0.31579612120E+02 -0.43346465074E+03 -0.17511910153E+03  0.47767215626E+03  0.92817637334E+02 0.  0.
         13    1    3    3    0    0 -0.22483540541E+03  0.79478634571E+02  0.14439009180E+04  0.14634608549E+04  0.00000000000E+00 0. -1.
        -13    1    3    3    0    0 -0.39788897479E+02  0.41640996004E+01  0.98129488642E+02  0.10597118773E+03  0.00000000000E+00 0.  1.
          2    1    5    5  502    0  0.17226886008E+03  0.21943358039E+03  0.66515537985E+02  0.28679604800E+03  0.00000000000E+00 0. -1.
          4    1    6    6  503    0 -0.46395499848E+01 -0.29967703163E+02 -0.42253998156E+02  0.52009508910E+02  0.00000000000E+00 0. -1.
         -2    1    5    5    0  502  0.12393505493E+03  0.13038833618E+03 -0.29024251718E+02  0.18221806507E+03  0.00000000000E+00 0.  1.
         -4    1    6    6    0  503 -0.26940062135E+02 -0.40349694758E+03 -0.13286510338E+03  0.42566264735E+03  0.00000000000E+00 0.  1.
<mgrwt>
<rscale>  0 0.20877032E+04</rscale>
<asrwt>0</asrwt>
<pdfrwt beam="1">  1        2 0.85516595E-01 0.20877032E+04</pdfrwt>
<pdfrwt beam="2">  1       -2 0.30157853E+00 0.20877032E+04</pdfrwt>
<totfact> 0.15601248E+00</totfact>
</mgrwt>
</event>
<event>
12    1  0.4403484E-008  0.1637885E+04  0.7818608E-02  0.8797606E-01
          2   -1    0    0  501    0  0.00000000000E+00  0.00000000000E+00  0.19585526080E+04  0.19585526080E+04  0.00000000000E+00 0. -1.
         -2   -1    0    0    0  501 -0.00000000000E+00 -0.00000000000E+00 -0.34242986968E+03  0.34242986968E+03  0.00000000000E+00 0.  1.
         23    2    1    2    0    0  0.52131550615E+02 -0.14261364647E+03 -0.19780556681E+03  0.27284862186E+03  0.11073832878E+03 0.  0.
        254    2    1    2    0    0 -0.52131550615E+02  0.14261364647E+03  0.18139283051E+04  0.20281338558E+04  0.89439068096E+03 0.  0.
         23    2    4    4    0    0 -0.34732368942E+03  0.28005319468E+03  0.52179611857E+03  0.69242098959E+03  0.90067199301E+02 0.  0.
         23    2    4    4    0    0  0.29519213880E+03 -0.13743954821E+03  0.12921321866E+04  0.13357128662E+04  0.92169654483E+02 0.  0.
         13    1    3    3    0    0  0.34296089579E+02 -0.13324077215E+03 -0.20867977687E+03  0.24995314441E+03  0.00000000000E+00 0.  1.
        -13    1    3    3    0    0  0.17835461036E+02 -0.93728743158E+01  0.10874210061E+02  0.22895477452E+02  0.00000000000E+00 0. -1.
          4    1    5    5  502    0 -0.25764215035E+03  0.20337920877E+03  0.31850940134E+03  0.45737382844E+03  0.00000000000E+00 0. -1.
          1    1    6    6  503    0  0.23986488215E+03 -0.11666993980E+03  0.11701921954E+04  0.12002069866E+04  0.00000000000E+00 0. -1.
         -4    1    5    5    0  502 -0.89681539069E+02  0.76673985912E+02  0.20328671723E+03  0.23504716115E+03  0.00000000000E+00 0.  1.
         -1    1    6    6    0  503  0.55327256649E+02 -0.20769608414E+02  0.12193999113E+03  0.13550587958E+03  0.00000000000E+00 0.  1.
<mgrwt>
<rscale>  0 0.16378851E+04</rscale>
<asrwt>0</asrwt>
<pdfrwt beam="1">  1        2 0.30131578E+00 0.16378851E+04</pdfrwt>
<pdfrwt beam="2">  1       -2 0.52681520E-01 0.16378851E+04</pdfrwt>
<totfact> 0.22901873E+01</totfact>
</mgrwt>
</event>
<event>
12    1  0.4403484E-008  0.1765375E+04  0.7818608E-02  0.8724933E-01
         -2   -1    0    0    0  501 -0.00000000000E+00  0.00000000000E+00  0.91970486818E+03  0.91970486818E+03  0.00000000000E+00 0.  1.
          2   -1    0    0  501    0  0.00000000000E+00 -0.00000000000E+00 -0.84715958021E+03  0.84715958021E+03  0.00000000000E+00 0. -1.
         23    2    1    2    0    0  0.44971295818E+03  0.28466673465E+03 -0.33431044389E+03  0.63514310145E+03  0.91467982664E+02 0.  0.
        254    2    1    2    0    0 -0.44971295818E+03 -0.28466673465E+03  0.40685573185E+03  0.11317213469E+04  0.91213196744E+03 0.  0.
         23    2    4    4    0    0  0.91894924599E+02 -0.46130019974E+03  0.20757462654E+03  0.52199673883E+03  0.90281882591E+02 0.  0.
         23    2    4    4    0    0 -0.54160788278E+03  0.17663346509E+03  0.19928110531E+03  0.60972460811E+03  0.86675597080E+02 0.  0.
         13    1    3    3    0    0  0.13616422760E+03  0.50769530021E+02 -0.12387869349E+03  0.19095594454E+03  0.00000000000E+00 0. -1.
        -13    1    3    3    0    0  0.31354873058E+03  0.23389720463E+03 -0.21043175040E+03  0.44418715691E+03  0.00000000000E+00 0.  1.
          2    1    5    5  502    0  0.84977730695E+02 -0.38201130494E+03  0.20630277171E+03  0.44239652512E+03  0.00000000000E+00 0. -1.
          4    1    6    6  503    0 -0.21813704506E+03  0.99923746789E+02  0.11853249796E+03  0.26761629000E+03  0.00000000000E+00 0.  1.
         -2    1    5    5    0  502  0.69171939048E+01 -0.79288894796E+02  0.12718548289E+01  0.79600213719E+02  0.00000000000E+00 0.  1.
         -4    1    6    6    0  503 -0.32347083771E+03  0.76709718298E+02  0.80748607358E+02  0.34210831812E+03  0.00000000000E+00 0. -1.
<mgrwt>
<rscale>  0 0.17653745E+04</rscale>
<asrwt>0</asrwt>
<pdfrwt beam="1">  1        2 0.13033224E+00 0.17653745E+04</pdfrwt>
<pdfrwt beam="2">  1       -2 0.14149306E+00 0.17653745E+04</pdfrwt>
<totfact> 0.10542724E+01</totfact>
</mgrwt>
</event>
<event>
12    1  0.4403484E-008  0.2502010E+04  0.7818608E-02  0.8402270E-01
          2   -1    0    0  501    0  0.00000000000E+00  0.00000000000E+00  0.92702740351E+03  0.92702740351E+03  0.00000000000E+00 0. -1.
         -2   -1    0    0    0  501 -0.00000000000E+00 -0.00000000000E+00 -0.16882069043E+04  0.16882069043E+04  0.00000000000E+00 0.  1.
         23    2    1    2    0    0 -0.90879246290E+03  0.26723367286E+03  0.24030327449E+03  0.98129867584E+03  0.88791052155E+02 0.  0.
        254    2    1    2    0    0  0.90879246290E+03 -0.26723367286E+03 -0.10014827752E+04  0.16339356319E+04  0.87718887571E+03 0.  0.
         23    2    4    4    0    0  0.54221751293E+03 -0.52927697389E+03 -0.86638956839E+03  0.11546385729E+04  0.91789996150E+02 0.  0.
         23    2    4    4    0    0  0.36657494996E+03  0.26204330102E+03 -0.13509320685E+03  0.47929705903E+03  0.91823802508E+02 0.  0.
         11    1    3    3    0    0 -0.84961514201E+03  0.27171821836E+03  0.22248866122E+03  0.91933556664E+03  0.00000000000E+00 0. -1.
        -11    1    3    3    0    0 -0.59177320884E+02 -0.44845454921E+01  0.17814613267E+02  0.61963109195E+02  0.00000000000E+00 0.  1.
          1    1    5    5  502    0  0.11413748044E+03 -0.64931644032E+02 -0.13564965276E+03  0.18879701039E+03  0.00000000000E+00 0. -1.
          1    1    6    6  503    0 -0.25731446300E+01  0.82185323876E+01  0.49406794802E+01  0.99285276662E+01  0.00000000000E+00 0. -1.
         -1    1    5    5    0  502  0.42808003249E+03 -0.46434532986E+03 -0.73073991563E+03  0.96584156251E+03  0.00000000000E+00 0.  1.
         -1    1    6    6    0  503  0.36914809459E+03  0.25382476864E+03 -0.14003388633E+03  0.46936853136E+03  0.00000000000E+00 0.  1.
<mgrwt>
<rscale>  0 0.25020104E+04</rscale>
<asrwt>0</asrwt>
<pdfrwt beam="1">  1        2 0.14261960E+00 0.25020104E+04</pdfrwt>
<pdfrwt beam="2">  1       -2 0.25972413E+00 0.25020104E+04</pdfrwt>
<totfact> 0.14043406E+00</totfact>
</mgrwt>
</event>
<event>
12    1  0.4403484E-008  0.1886896E+04  0.7818608E-02  0.8661407E-01
         -2   -1    0    0    0  501 -0.00000000000E+00  0.00000000000E+00  0.43633780283E+03  0.43633780283E+03  0.00000000000E+00 0.  1.
          2   -1    0    0  501    0  0.00000000000E+00 -0.00000000000E+00 -0.20399195529E+04  0.20399195529E+04  0.00000000000E+00 0. -1.
         23    2    1    2    0    0  0.13432777012E+03 -0.94050758594E+02  0.30718480251E+03  0.36025685783E+03  0.92374269716E+02 0.  0.
        254    2    1    2    0    0 -0.13432777012E+03  0.94050758594E+02 -0.19107665525E+04  0.21160004979E+04  0.89416989083E+03 0.  0.
         23    2    4    4    0    0 -0.67854817587E+02 -0.30291434937E+03 -0.26361451947E+03  0.41824087110E+03  0.95244065737E+02 0.  0.
         23    2    4    4    0    0 -0.66472952529E+02  0.39696510797E+03 -0.16471520331E+04  0.16977596268E+04  0.85311077131E+02 0.  0.
         11    1    3    3    0    0  0.10781444347E+03 -0.50007834244E+02  0.13169816243E+03  0.17739544440E+03  0.00000000000E+00 0. -1.
        -11    1    3    3    0    0  0.26513326643E+02 -0.44042924350E+02  0.17548664008E+03  0.18286141343E+03  0.00000000000E+00 0.  1.
          2    1    5    5  502    0  0.50030018777E+00 -0.19932635055E+03 -0.18018796472E+03  0.26869861733E+03  0.00000000000E+00 0. -1.
          1    1    6    6  503    0 -0.19916240751E+02  0.31845187676E+03 -0.13295680663E+04  0.13673183599E+04  0.00000000000E+00 0.  1.
         -2    1    5    5    0  502 -0.68355117775E+02 -0.10358799882E+03 -0.83426554747E+02  0.14954225377E+03  0.00000000000E+00 0.  1.
         -1    1    6    6    0  503 -0.46556711778E+02  0.78513231205E+02 -0.31758396679E+03  0.33044126687E+03  0.00000000000E+00 0. -1.
<mgrwt>
<rscale>  0 0.18868959E+04</rscale>
<asrwt>0</asrwt>
<pdfrwt beam="1">  1        2 0.31383378E+00 0.18868959E+04</pdfrwt>
<pdfrwt beam="2">  1       -2 0.67128893E-01 0.18868959E+04</pdfrwt>
<totfact> 0.12118576E+01</totfact>
</mgrwt>
</event>
<event>
12    1  0.4403484E-008  0.2774468E+04  0.7818608E-02  0.8311239E-01
         -1   -1    0    0    0  501 -0.00000000000E+00  0.00000000000E+00  0.16756286863E+04  0.16756286863E+04  0.00000000000E+00 0.  1.
          1   -1    0    0  501    0  0.00000000000E+00 -0.00000000000E+00 -0.11484754757E+04  0.11484754757E+04  0.00000000000E+00 0. -1.
         23    2    1    2    0    0 -0.37168391116E+03 -0.75212297761E+03  0.11669167834E+04  0.14399599398E+04  0.89173682038E+02 0.  0.
        254    2    1    2    0    0  0.37168391116E+03  0.75212297761E+03 -0.63976357287E+03  0.13841442222E+04  0.89594636867E+03 0.  0.
         23    2    4    4    0    0 -0.19903381320E+02  0.50877834602E+03 -0.74071485238E+03  0.90354370035E+03  0.92093300217E+02 0.  0.
         23    2    4    4    0    0  0.39158729248E+03  0.24334463159E+03  0.10095127951E+03  0.48060052189E+03  0.90710988582E+02 0.  0.
         13    1    3    3    0    0 -0.17959916395E+03 -0.26594417479E+03  0.44858913987E+03  0.55155632550E+03  0.00000000000E+00 0. -1.
        -13    1    3    3    0    0 -0.19208474722E+03 -0.48617880283E+03  0.71832764358E+03  0.88840361433E+03  0.00000000000E+00 0.  1.
          1    1    5    5  502    0 -0.18279245409E+02  0.10927332858E+03 -0.22857005687E+03  0.25400602758E+03  0.00000000000E+00 0. -1.
          3    1    6    6  503    0  0.43342167487E+02  0.49979242302E+01 -0.89208483399E+01  0.44532058836E+02  0.00000000000E+00 0. -1.
         -1    1    5    5    0  502 -0.16241359114E+01  0.39950501744E+03 -0.51214479551E+03  0.64953767277E+03  0.00000000000E+00 0.  1.
         -3    1    6    6    0  503  0.34824512499E+03  0.23834670736E+03  0.10987212785E+03  0.43606846306E+03  0.00000000000E+00 0.  1.
<mgrwt>
<rscale>  0 0.27744682E+04</rscale>
<asrwt>0</asrwt>
<pdfrwt beam="1">  1        1 0.17668853E+00 0.27744682E+04</pdfrwt>
<pdfrwt beam="2">  1       -1 0.25778903E+00 0.27744682E+04</pdfrwt>
<totfact> 0.62755398E-01</totfact>
</mgrwt>
</event>
<event>
12    1  0.4403484E-008  0.1484498E+04  0.7818608E-02  0.8894827E-01
          2   -1    0    0  501    0  0.00000000000E+00  0.00000000000E+00  0.23910227121E+03  0.23910227121E+03  0.00000000000E+00 0. -1.
         -2   -1    0    0    0  501 -0.00000000000E+00 -0.00000000000E+00 -0.23041761561E+04  0.23041761561E+04  0.00000000000E+00 0.  1.
         23    2    1    2    0    0 -0.10418226793E+03 -0.37579798869E+03 -0.10840662385E+04  0.11552332289E+04  0.85358834105E+02 0.  0.
        254    2    1    2    0    0  0.10418226793E+03  0.37579798869E+03 -0.98100764643E+03  0.13880451984E+04  0.90122993580E+03 0.  0.
         23    2    4    4    0    0  0.33495183298E+03 -0.11164272492E+03 -0.15429676153E+03  0.39595258008E+03  0.91181832662E+02 0.  0.
         23    2    4    4    0    0 -0.23076956506E+03  0.48744071361E+03 -0.82671088490E+03  0.99209261832E+03  0.99718777921E+02 0.  0.
         11    1    3    3    0    0 -0.66780207319E+02 -0.22050117613E+03 -0.75631580747E+03  0.79062884174E+03  0.00000000000E+00 0. -1.
        -11    1    3    3    0    0 -0.37402060608E+02 -0.15529681257E+03 -0.32775043098E+03  0.36460438717E+03  0.00000000000E+00 0.  1.
          2    1    5    5  502    0  0.42488565263E+02  0.11468836401E+02 -0.37507145401E+02  0.57823856172E+02  0.00000000000E+00 0.  1.
          3    1    6    6  503    0 -0.23428697554E+03  0.45752166929E+03 -0.80439048696E+03  0.95459966494E+03  0.00000000000E+00 0. -1.
         -2    1    5    5    0  502  0.29246326772E+03 -0.12311156132E+03 -0.11678961613E+03  0.33812872391E+03  0.00000000000E+00 0. -1.
         -3    1    6    6    0  503  0.35174104837E+01  0.29919044315E+02 -0.22320397939E+02  0.37492953383E+02  0.00000000000E+00 0.  1.
<mgrwt>
<rscale>  0 0.14844982E+04</rscale>
<asrwt>0</asrwt>
<pdfrwt beam="1">  1        2 0.36784965E-01 0.14844982E+04</pdfrwt>
<pdfrwt beam="2">  1       -2 0.35448864E+00 0.14844982E+04</pdfrwt>
<totfact> 0.20102057E+00</totfact>
</mgrwt>
</event>
<event>
12    1  0.4403484E-008  0.1696206E+04  0.7818608E-02  0.8763531E-01
         -2   -1    0    0    0  501 -0.00000000000E+00  0.00000000000E+00  0.58059695937E+03  0.58059695937E+03  0.00000000000E+00 0.  1.
          2   -1    0    0  501    0  0.00000000000E+00 -0.00000000000E+00 -0.12388609487E+04  0.12388609487E+04  0.00000000000E+00 0. -1.
         23    2    1    2    0    0  0.24636307537E+03 -0.22649150658E+03  0.29085773625E+03  0.45385965302E+03  0.96939127548E+02 0.  0.
        254    2    1    2    0    0 -0.24636307537E+03  0.22649150658E+03 -0.94912172556E+03  0.13655982550E+04  0.92305654039E+03 0.  0.
         23    2    4    4    0    0 -0.27280206422E+03 -0.31501057333E+03 -0.34356516668E+03  0.54753374624E+03  0.90019730971E+02 0.  0.
         23    2    4    4    0    0  0.26438988853E+02  0.54150207991E+03 -0.60555655887E+03  0.81806450879E+03  0.92775383927E+02 0.  0.
         11    1    3    3    0    0  0.11943211956E+03 -0.73072256378E+02  0.70147300724E+02  0.15660213802E+03  0.00000000000E+00 0.  1.
        -11    1    3    3    0    0  0.12693095581E+03 -0.15341925020E+03  0.22071043552E+03  0.29725751500E+03  0.00000000000E+00 0. -1.
          2    1    5    5  502    0 -0.11350748735E+03 -0.18393475711E+03 -0.13877980542E+03  0.25685750709E+03  0.00000000000E+00 0. -1.
          3    1    6    6  503    0 -0.20611278190E+01  0.43512518505E+03 -0.52349521864E+03  0.68072418706E+03  0.00000000000E+00 0. -1.
         -2    1    5    5    0  502 -0.15929457688E+03 -0.13107581622E+03 -0.20478536126E+03  0.29067623915E+03  0.00000000000E+00 0.  1.
         -3    1    6    6    0  503  0.28500116672E+02  0.10637689486E+03 -0.82061340235E+02  0.13734032173E+03  0.00000000000E+00 0.  1.
<mgrwt>
<rscale>  0 0.16962062E+04</rscale>
<asrwt>0</asrwt>
<pdfrwt beam="1">  1        2 0.19059399E+00 0.16962062E+04</pdfrwt>
<pdfrwt beam="2">  1       -2 0.89322611E-01 0.16962062E+04</pdfrwt>
<totfact> 0.18384486E+01</totfact>
</mgrwt>
</event>
<event>
12    1  0.4403484E-008  0.1219169E+04  0.7818608E-02  0.9096242E-01
         -2   -1    0    0    0  501 -0.00000000000E+00  0.00000000000E+00  0.21932770425E+03  0.21932770425E+03  0.00000000000E+00 0.  1.
          2   -1    0    0  501    0  0.00000000000E+00 -0.00000000000E+00 -0.16942371088E+04  0.16942371088E+04  0.00000000000E+00 0. -1.
         23    2    1    2    0    0 -0.12139081203E+03 -0.17434385729E+03 -0.94171166190E+02  0.24986479261E+03  0.91829713189E+02 0.  0.
        254    2    1    2    0    0  0.12139081203E+03  0.17434385729E+03 -0.13807382384E+04  0.16637000205E+04  0.90350880756E+03 0.  0.
         23    2    4    4    0    0 -0.32718569538E+03  0.13754707252E+03 -0.25118786354E+03  0.44436159349E+03  0.91608987326E+02 0.  0.
         23    2    4    4    0    0  0.44857650741E+03  0.36796784765E+02 -0.11295503748E+04  0.12193384270E+04  0.91253842712E+02 0.  0.
         11    1    3    3    0    0 -0.12387250380E+03 -0.13244309815E+03 -0.48254578204E+02  0.18765413867E+03  0.00000000000E+00 0.  1.
        -11    1    3    3    0    0  0.24816917694E+01 -0.41900759141E+02 -0.45916587986E+02  0.62210653934E+02  0.00000000000E+00 0. -1.
          1    1    5    5  502    0 -0.12280644769E+03  0.49346099567E+01 -0.86172961765E+02  0.15010514085E+03  0.00000000000E+00 0. -1.
          3    1    6    6  503    0  0.14321551857E+03  0.43149569053E+01 -0.25577962943E+03  0.29317660624E+03  0.00000000000E+00 0. -1.
         -1    1    5    5    0  502 -0.20437924770E+03  0.13261246257E+03 -0.16501490178E+03  0.29425645265E+03  0.00000000000E+00 0.  1.
         -3    1    6    6    0  503  0.30536098884E+03  0.32481827860E+02 -0.87377074542E+03  0.92616182074E+03  0.00000000000E+00 0.  1.
<mgrwt>
<rscale>  0 0.12191688E+04</rscale>
<asrwt>0</asrwt>
<pdfrwt beam="1">  1        2 0.26065187E+00 0.12191688E+04</pdfrwt>
<pdfrwt beam="2">  1       -2 0.33742723E-01 0.12191688E+04</pdfrwt>
<totfact> 0.79973229E+01</totfact>
</mgrwt>
</event>
<event>
12    1  0.4403484E-008  0.2369883E+04  0.7818608E-02  0.8450866E-01
          2   -1    0    0  501    0  0.00000000000E+00  0.00000000000E+00  0.15729469528E+04  0.15729469528E+04  0.00000000000E+00 0.  1.
         -2   -1    0    0    0  501 -0.00000000000E+00 -0.00000000000E+00 -0.89264697205E+03  0.89264697205E+03  0.00000000000E+00 0. -1.
         23    2    1    2    0    0 -0.64416865327E+03  0.44778116001E+03 -0.37599227562E+03  0.87470441566E+03  0.90974734653E+02 0.  0.
        254    2    1    2    0    0  0.64416865327E+03 -0.44778116001E+03  0.10562922564E+04  0.15908895092E+04  0.89426778906E+03 0.  0.
         23    2    4    4    0    0  0.60130276104E+03  0.31069487790E+02  0.27269228921E+03  0.66731005073E+03  0.91713116316E+02 0.  0.
         23    2    4    4    0    0  0.42865892226E+02 -0.47885064780E+03  0.78359996719E+03  0.92357945850E+03  0.88513727617E+02 0.  0.
         13    1    3    3    0    0 -0.55688123722E+03  0.36324078415E+03 -0.34610850014E+03  0.74956765772E+03  0.00000000000E+00 0. -1.
        -13    1    3    3    0    0 -0.87287416050E+02  0.84540375860E+02 -0.29883775479E+02  0.12513675794E+03  0.00000000000E+00 0.  1.
          1    1    5    5  502    0  0.10333473940E+03  0.11129563336E+02  0.11277591783E+02  0.10454242978E+03  0.00000000000E+00 0. -1.
          3    1    6    6  503    0  0.26594499653E+02 -0.59565832186E+02  0.69440944070E+02  0.95275392884E+02  0.00000000000E+00 0. -1.
         -1    1    5    5    0  502  0.49796802164E+03  0.19939924454E+02  0.26141469743E+03  0.56276762095E+03  0.00000000000E+00 0.  1.
         -3    1    6    6    0  503  0.16271392574E+02 -0.41928481561E+03  0.71415902311E+03  0.82830406561E+03  0.00000000000E+00 0.  1.
<mgrwt>
<rscale>  0 0.23698830E+04</rscale>
<asrwt>0</asrwt>
<pdfrwt beam="1">  1        2 0.24199184E+00 0.23698830E+04</pdfrwt>
<pdfrwt beam="2">  1       -2 0.13733030E+00 0.23698830E+04</pdfrwt>
<totfact> 0.39310408E+00</totfact>
</mgrwt>
</event>
<event>
12    1  0.4403484E-008  0.1497291E+04  0.7818608E-02  0.8886256E-01
          1   -1    0    0  501    0  0.00000000000E+00  0.00000000000E+00  0.10787583381E+04  0.10787583381E+04  0.00000000000E+00 0. -1.
         -1   -1    0    0    0  501 -0.00000000000E+00 -0.00000000000E+00 -0.51955125641E+03  0.51955125641E+03  0.00000000000E+00 0.  1.
         23    2    1    2    0    0 -0.14365879804E+03 -0.39119003391E+03 -0.20501469490E+02  0.42702629392E+03  0.90904634471E+02 0.  0.
        254    2    1    2    0    0  0.14365879804E+03  0.39119003391E+03  0.57970855119E+03  0.11712833006E+04  0.92853382979E+03 0.  0.
         23    2    4    4    0    0  0.23548883353E+03 -0.18437231689E+03  0.47802489316E+03  0.57119730280E+03  0.91161495683E+02 0.  0.
         23    2    4    4    0    0 -0.91830035492E+02  0.57556235079E+03  0.10168365803E+03  0.60008599780E+03  0.10029388502E+03 0.  0.
         11    1    3    3    0    0 -0.36439595174E+02 -0.13932908102E+03  0.33871779400E+02  0.14794503829E+03  0.00000000000E+00 0. -1.
        -11    1    3    3    0    0 -0.10721920286E+03 -0.25186095289E+03 -0.54373248890E+02  0.27908125563E+03  0.00000000000E+00 0.  1.
          4    1    5    5  502    0  0.22612433237E+03 -0.15760781514E+03  0.38190235712E+03  0.47097966778E+03  0.00000000000E+00 0. -1.
          1    1    6    6  503    0 -0.75880442079E+02  0.21810719363E+03  0.67786116595E+02  0.24067311235E+03  0.00000000000E+00 0. -1.
         -4    1    5    5    0  502  0.93645011591E+01 -0.26764501750E+02  0.96122536036E+02  0.10021763502E+03  0.00000000000E+00 0.  1.
         -1    1    6    6    0  503 -0.15949593414E+02  0.35745515716E+03  0.33897541431E+02  0.35941288545E+03  0.00000000000E+00 0.  1.
<mgrwt>
<rscale>  0 0.14972912E+04</rscale>
<asrwt>0</asrwt>
<pdfrwt beam="1">  1        1 0.16596282E+00 0.14972912E+04</pdfrwt>
<pdfrwt beam="2">  1       -1 0.79930963E-01 0.14972912E+04</pdfrwt>
<totfact> 0.19897683E+01</totfact>
</mgrwt>
</event>
<event>
12    1  0.4403484E-008  0.1363618E+04  0.7818608E-02  0.8980583E-01
         -1   -1    0    0    0  501 -0.00000000000E+00  0.00000000000E+00  0.15148384924E+03  0.15148384924E+03  0.00000000000E+00 0.  1.
          1   -1    0    0  501    0  0.00000000000E+00 -0.00000000000E+00 -0.30687319636E+04  0.30687319636E+04  0.00000000000E+00 0. -1.
         23    2    1    2    0    0  0.19391375113E+03 -0.28522787512E+03 -0.45548201301E+03  0.57897715648E+03  0.93772063728E+02 0.  0.
        254    2    1    2    0    0 -0.19391375113E+03  0.28522787512E+03 -0.24617661014E+04  0.26412386564E+04  0.89268797376E+03 0.  0.
         23    2    4    4    0    0  0.11779763121E+03  0.38460765615E+03 -0.21177494879E+04  0.21575146860E+04  0.90594676217E+02 0.  0.
         23    2    4    4    0    0 -0.31171138234E+03 -0.99379781035E+02 -0.34401661343E+03  0.48372397043E+03  0.92742236832E+02 0.  0.
         13    1    3    3    0    0  0.48871352247E+02 -0.64267673812E+02 -0.50035198211E+02  0.94985599054E+02  0.00000000000E+00 0. -1.
        -13    1    3    3    0    0  0.14504239888E+03 -0.22096020130E+03 -0.40544681480E+03  0.48399155743E+03  0.00000000000E+00 0.  1.
          4    1    5    5  502    0  0.27237268884E+02  0.23733660312E+03 -0.11738259069E+04  0.11978888895E+04  0.00000000000E+00 0. -1.
          3    1    6    6  503    0 -0.28201473799E+03 -0.97357031685E+02 -0.26410810369E+03  0.39845174676E+03  0.00000000000E+00 0. -1.
         -4    1    5    5    0  502  0.90560362326E+02  0.14727105303E+03 -0.94392358108E+03  0.95962579644E+03  0.00000000000E+00 0.  1.
         -3    1    6    6    0  503 -0.29696644351E+02 -0.20227493491E+01 -0.79908509737E+02  0.85272223667E+02  0.00000000000E+00 0.  1.
<mgrwt>
<rscale>  0 0.13636177E+04</rscale>
<asrwt>0</asrwt>
<pdfrwt beam="1">  1        1 0.47211257E+00 0.13636177E+04</pdfrwt>
<pdfrwt beam="2">  1       -1 0.23305210E-01 0.13636177E+04</pdfrwt>
<totfact> 0.82981288E+00</totfact>
</mgrwt>
</event>
<event>
12    1  0.4403484E-008  0.1358014E+04  0.7818608E-02  0.8984784E-01
         -3   -1    0    0    0  501 -0.00000000000E+00  0.00000000000E+00  0.23548472757E+03  0.23548472757E+03  0.00000000000E+00 0.  1.
          3   -1    0    0  501    0  0.00000000000E+00 -0.00000000000E+00 -0.19578773456E+04  0.19578773456E+04  0.00000000000E+00 0. -1.
         23    2    1    2    0    0 -0.39205883716E+02 -0.29105161916E+03 -0.86232142709E+03  0.91551500109E+03  0.91221309325E+02 0.  0.
        254    2    1    2    0    0  0.39205883716E+02  0.29105161916E+03 -0.86007119097E+03  0.12778470721E+04  0.89828867289E+03 0.  0.
         23    2    4    4    0    0  0.20172962494E+03  0.56924043430E+03 -0.55582836369E+03  0.82583458228E+03  0.91258280650E+02 0.  0.
         23    2    4    4    0    0 -0.16252374122E+03 -0.27818881514E+03 -0.30424282728E+03  0.45201248983E+03  0.89154975623E+02 0.  0.
         11    1    3    3    0    0  0.33316768949E+01 -0.24006736148E+03 -0.64294729540E+03  0.68631236531E+03  0.00000000000E+00 0. -1.
        -11    1    3    3    0    0 -0.42537560611E+02 -0.50984257676E+02 -0.21937413169E+03  0.22920263578E+03  0.00000000000E+00 0.  1.
          4    1    5    5  502    0  0.10891304327E+02  0.91438029020E+02 -0.12192728984E+03  0.15279331684E+03  0.00000000000E+00 0. -1.
          3    1    6    6  503    0 -0.11314229084E+03 -0.17817679250E+03 -0.25238395544E+03  0.32900730741E+03  0.00000000000E+00 0.  1.
         -4    1    5    5    0  502  0.19083832061E+03  0.47780240528E+03 -0.43390107384E+03  0.67304126544E+03  0.00000000000E+00 0.  1.
         -3    1    6    6    0  503 -0.49381450384E+02 -0.10001202264E+03 -0.51858871843E+02  0.12300518243E+03  0.00000000000E+00 0. -1.
<mgrwt>
<rscale>  0 0.13580136E+04</rscale>
<asrwt>0</asrwt>
<pdfrwt beam="1">  1        3 0.30121190E+00 0.13580136E+04</pdfrwt>
<pdfrwt beam="2">  1       -3 0.36228420E-01 0.13580136E+04</pdfrwt>
<totfact> 0.74065942E-01</totfact>
</mgrwt>
</event>
<event>
12    1  0.4403484E-008  0.1487651E+04  0.7818608E-02  0.8892706E-01
          2   -1    0    0  501    0  0.00000000000E+00  0.00000000000E+00  0.20437063858E+04  0.20437063858E+04  0.00000000000E+00 0. -1.
         -2   -1    0    0    0  501 -0.00000000000E+00 -0.00000000000E+00 -0.27072222771E+03  0.27072222771E+03  0.00000000000E+00 0.  1.
         23    2    1    2    0    0  0.42150451226E+03 -0.90437148644E+02  0.28937870531E+03  0.52731631263E+03  0.92073485680E+02 0.  0.
        254    2    1    2    0    0 -0.42150451226E+03  0.90437148644E+02  0.14836054528E+04  0.17871123009E+04  0.89824289854E+03 0.  0.
         23    2    4    4    0    0 -0.58518365509E+03 -0.21095956222E+03  0.10831625676E+04  0.12524096051E+04  0.91350008160E+02 0.  0.
         23    2    4    4    0    0  0.16367914283E+03  0.30139671086E+03  0.40044288519E+03  0.53470269581E+03  0.89003536423E+02 0.  0.
         13    1    3    3    0    0  0.31249468881E+03 -0.73361545046E+02  0.26014297189E+03  0.41316971410E+03  0.00000000000E+00 0.  1.
        -13    1    3    3    0    0  0.10900982345E+03 -0.17075603598E+02  0.29235733425E+02  0.11414659853E+03  0.00000000000E+00 0. -1.
          4    1    5    5  502    0 -0.54978777795E+02 -0.24184411627E+02  0.59447319134E+02  0.84507606319E+02  0.00000000000E+00 0.  1.
          3    1    6    6  503    0  0.12228656803E+03  0.27968578645E+03  0.32434305811E+03  0.44539483967E+03  0.00000000000E+00 0. -1.
         -4    1    5    5    0  502 -0.53020487730E+03 -0.18677515059E+03  0.10237152485E+04  0.11679019988E+04  0.00000000000E+00 0. -1.
         -3    1    6    6    0  503  0.41392574796E+02  0.21710924414E+02  0.76099827077E+02  0.89307856140E+02  0.00000000000E+00 0.  1.
<mgrwt>
<rscale>  0 0.14876515E+04</rscale>
<asrwt>0</asrwt>
<pdfrwt beam="1">  1        2 0.31441636E+00 0.14876515E+04</pdfrwt>
<pdfrwt beam="2">  1       -2 0.41649575E-01 0.14876515E+04</pdfrwt>
<totfact> 0.33386504E+01</totfact>
</mgrwt>
</event>
<event>
12    1  0.4403484E-008  0.2534610E+04  0.7818608E-02  0.8390758E-01
          2   -1    0    0  501    0  0.00000000000E+00  0.00000000000E+00  0.92175722740E+03  0.92175722740E+03  0.00000000000E+00 0. -1.
         -2   -1    0    0    0  501 -0.00000000000E+00 -0.00000000000E+00 -0.17423912479E+04  0.17423912479E+04  0.00000000000E+00 0.  1.
         23    2    1    2    0    0  0.40775009566E+02  0.47750863116E+03  0.68884605217E+03  0.84386283889E+03  0.88986027162E+02 0.  0.
        254    2    1    2    0    0 -0.40775009566E+02 -0.47750863116E+03 -0.15094800727E+04  0.18202856364E+04  0.89734754362E+03 0.  0.
         23    2    4    4    0    0 -0.61278830445E+02 -0.36388296882E+03 -0.85354072362E+02  0.38868438462E+03  0.87317370097E+02 0.  0.
         23    2    4    4    0    0  0.20503820879E+02 -0.11362566234E+03 -0.14241260003E+04  0.14316012518E+04  0.89532572433E+02 0.  0.
         11    1    3    3    0    0  0.59354512346E+02  0.25924322178E+03  0.41929413742E+03  0.49652550775E+03  0.00000000000E+00 0. -1.
        -11    1    3    3    0    0 -0.18579502780E+02  0.21826540938E+03  0.26955191475E+03  0.34733733114E+03  0.00000000000E+00 0.  1.
          2    1    5    5  502    0  0.95600097992E-01 -0.12033134920E+01 -0.13924987440E+02  0.13977209233E+02  0.00000000000E+00 0. -1.
          1    1    6    6  503    0  0.36828456847E+02 -0.83531358518E+02 -0.61372700179E+03  0.62047937582E+03  0.00000000000E+00 0. -1.
         -2    1    5    5    0  502 -0.61374430543E+02 -0.36267965533E+03 -0.71429084922E+02  0.37470717539E+03  0.00000000000E+00 0.  1.
         -1    1    6    6    0  503 -0.16324635968E+02 -0.30094303825E+02 -0.81039899851E+03  0.81112187595E+03  0.00000000000E+00 0.  1.
<mgrwt>
<rscale>  0 0.25346098E+04</rscale>
<asrwt>0</asrwt>
<pdfrwt beam="1">  1        2 0.14180881E+00 0.25346098E+04</pdfrwt>
<pdfrwt beam="2">  1       -2 0.26806019E+00 0.25346098E+04</pdfrwt>
<totfact> 0.12556757E+00</totfact>
</mgrwt>
</event>
<event>
12    1  0.4403484E-008  0.2878088E+04  0.7818608E-02  0.8279427E-01
         -1   -1    0    0    0  501 -0.00000000000E+00  0.00000000000E+00  0.85516604274E+03  0.85516604274E+03  0.00000000000E+00 0.  1.
          1   -1    0    0  501    0  0.00000000000E+00 -0.00000000000E+00 -0.24215744793E+04  0.24215744793E+04  0.00000000000E+00 0. -1.
         23    2    1    2    0    0 -0.11446255908E+04 -0.15708947612E+03 -0.38733403381E+02  0.11595965234E+04  0.91208408086E+02 0.  0.
        254    2    1    2    0    0  0.11446255908E+04  0.15708947612E+03 -0.15276750332E+04  0.21171439987E+04  0.90203262546E+03 0.  0.
         23    2    4    4    0    0  0.15031149306E+03  0.17401451007E+03 -0.91051382633E+03  0.94329403265E+03  0.88845987132E+02 0.  0.
         23    2    4    4    0    0  0.99431409779E+03 -0.16925033950E+02 -0.61716120682E+03  0.11738499660E+04  0.89937787635E+02 0.  0.
         13    1    3    3    0    0 -0.47280125653E+03 -0.69288514227E+02  0.28694932858E+02  0.47871215312E+03  0.00000000000E+00 0. -1.
        -13    1    3    3    0    0 -0.67182433432E+03 -0.87800961898E+02 -0.67428336238E+02  0.68088437023E+03  0.00000000000E+00 0.  1.
          1    1    5    5  502    0  0.12449021167E+03  0.12648710328E+03 -0.80933524828E+03  0.82856523231E+03  0.00000000000E+00 0. -1.
          1    1    6    6  503    0  0.77200844478E+03 -0.34617379944E+02 -0.44185331731E+03  0.89018523680E+03  0.00000000000E+00 0. -1.
         -1    1    5    5    0  502  0.25821281388E+02  0.47527406794E+02 -0.10117857806E+03  0.11472880034E+03  0.00000000000E+00 0.  1.
         -1    1    6    6    0  503  0.22230565301E+03  0.17692345994E+02 -0.17530788951E+03  0.28366472920E+03  0.00000000000E+00 0.  1.
<mgrwt>
<rscale>  0 0.28780884E+04</rscale>
<asrwt>0</asrwt>
<pdfrwt beam="1">  1        1 0.37254991E+00 0.28780884E+04</pdfrwt>
<pdfrwt beam="2">  1       -1 0.13156401E+00 0.28780884E+04</pdfrwt>
<totfact> 0.64929195E-01</totfact>
</mgrwt>
</event>
<event>
12    1  0.4403484E-008  0.1949907E+04  0.7818608E-02  0.8630405E-01
          1   -1    0    0  501    0  0.00000000000E+00  0.00000000000E+00  0.26858141968E+04  0.26858141968E+04  0.00000000000E+00 0. -1.
         -1   -1    0    0    0  501 -0.00000000000E+00 -0.00000000000E+00 -0.35390929213E+03  0.35390929213E+03  0.00000000000E+00 0.  1.
         23    2    1    2    0    0  0.62434474523E+03  0.43690773308E+03  0.92541230002E+03  0.12019888720E+04  0.87718841660E+02 0.  0.
        254    2    1    2    0    0 -0.62434474523E+03 -0.43690773308E+03  0.14064926047E+04  0.18377346170E+04  0.90462829237E+03 0.  0.
         23    2    4    4    0    0 -0.55183052518E+03 -0.62209062648E+03  0.67639931305E+03  0.10758307808E+04  0.91554148770E+02 0.  0.
         23    2    4    4    0    0 -0.72514220057E+02  0.18518289339E+03  0.73009329161E+03  0.76190383618E+03  0.88939445750E+02 0.  0.
         11    1    3    3    0    0  0.96625738134E+02  0.10668275177E+03  0.15559217429E+03  0.21195911751E+03  0.00000000000E+00 0.  1.
        -11    1    3    3    0    0  0.52771900710E+03  0.33022498131E+03  0.76982012573E+03  0.99002975446E+03  0.00000000000E+00 0. -1.
          4    1    6    6  502    0 -0.33827016719E+02  0.16282598437E+03  0.64116109845E+03  0.66237762825E+03  0.00000000000E+00 0. -1.
          4    1    5    5  503    0 -0.41492242667E+03 -0.50891506234E+03  0.56427955943E+03  0.86577513364E+03  0.00000000000E+00 0. -1.
         -4    1    5    5    0  503 -0.13690809851E+03 -0.11317556414E+03  0.11211975362E+03  0.21005564717E+03  0.00000000000E+00 0.  1.
         -4    1    6    6    0  502 -0.38687203338E+02  0.22356909021E+02  0.88932193167E+02  0.99526207928E+02  0.00000000000E+00 0.  1.
<mgrwt>
<rscale>  0 0.19499073E+04</rscale>
<asrwt>0</asrwt>
<pdfrwt beam="1">  1        1 0.41320217E+00 0.19499073E+04</pdfrwt>
<pdfrwt beam="2">  1       -1 0.54447585E-01 0.19499073E+04</pdfrwt>
<totfact> 0.31913010E+00</totfact>
</mgrwt>
</event>
<event>
12    1  0.4403484E-008  0.1248516E+04  0.7818608E-02  0.9071419E-01
         -2   -1    0    0    0  501 -0.00000000000E+00  0.00000000000E+00  0.13492986027E+03  0.13492986027E+03  0.00000000000E+00 0.  1.
          2   -1    0    0  501    0  0.00000000000E+00 -0.00000000000E+00 -0.28881519348E+04  0.28881519348E+04  0.00000000000E+00 0. -1.
         23    2    1    2    0    0  0.93873016147E+02  0.22809061245E+03 -0.30540841654E+03  0.40326804046E+03  0.92267767480E+02 0.  0.
        254    2    1    2    0    0 -0.93873016147E+02 -0.22809061245E+03 -0.24478136580E+04  0.26198137546E+04  0.90044152167E+03 0.  0.
         23    2    4    4    0    0 -0.31832475115E+03  0.17619748729E+03 -0.16569216413E+04  0.16989264424E+04  0.92658133439E+02 0.  0.
         23    2    4    4    0    0  0.22445173500E+03 -0.40428809974E+03 -0.79089201668E+03  0.92088731216E+03  0.93251330860E+02 0.  0.
         13    1    3    3    0    0  0.38863482164E+02  0.87820137308E+02 -0.54023632391E+02  0.11018756563E+03  0.00000000000E+00 0. -1.
        -13    1    3    3    0    0  0.55009533983E+02  0.14027047514E+03 -0.25138478415E+03  0.29308047483E+03  0.00000000000E+00 0.  1.
          3    1    5    5  502    0 -0.13318153531E+03  0.25453291190E+02 -0.53885205252E+03  0.55564982307E+03  0.00000000000E+00 0. -1.
          3    1    6    6  503    0  0.20234082088E+03 -0.28598765781E+03 -0.56106453690E+03  0.66145609286E+03  0.00000000000E+00 0. -1.
         -3    1    5    5    0  502 -0.18514321584E+03  0.15074419610E+03 -0.11180695888E+04  0.11432766193E+04  0.00000000000E+00 0.  1.
         -3    1    6    6    0  503  0.22110914120E+02 -0.11830044193E+03 -0.22982747978E+03  0.25943121929E+03  0.00000000000E+00 0.  1.
<mgrwt>
<rscale>  0 0.12485158E+04</rscale>
<asrwt>0</asrwt>
<pdfrwt beam="1">  1        2 0.44433105E+00 0.12485158E+04</pdfrwt>
<pdfrwt beam="2">  1       -2 0.20758441E-01 0.12485158E+04</pdfrwt>
<totfact> 0.40669616E+01</totfact>
</mgrwt>
</event>
<event>
12    1  0.4403484E-008  0.2590582E+04  0.7818608E-02  0.8371407E-01
          1   -1    0    0  501    0  0.00000000000E+00  0.00000000000E+00  0.18819898471E+04  0.18819898471E+04  0.00000000000E+00 0. -1.
         -1   -1    0    0    0  501 -0.00000000000E+00 -0.00000000000E+00 -0.89149182130E+03  0.89149182130E+03  0.00000000000E+00 0.  1.
         23    2    1    2    0    0  0.54518252623E+03  0.98619063860E+03  0.58237020534E+03  0.12715166082E+04  0.88337230010E+02 0.  0.
        254    2    1    2    0    0 -0.54518252623E+03 -0.98619063860E+03  0.40812782050E+03  0.15019650603E+04  0.90528159260E+03 0.  0.
         23    2    4    4    0    0  0.22611441647E+03 -0.28222027709E+03  0.23576866758E+03  0.43964143579E+03  0.83196834781E+02 0.  0.
         23    2    4    4    0    0 -0.77129694269E+03 -0.70397036150E+03  0.17235915293E+03  0.10623236245E+04  0.91381408841E+02 0.  0.
         13    1    3    3    0    0  0.88315124851E+01  0.39341809484E+02  0.35033327560E+02  0.53414488916E+02  0.00000000000E+00 0. -1.
        -13    1    3    3    0    0  0.53635101374E+03  0.94684882911E+03  0.54733687778E+03  0.12181021192E+04  0.00000000000E+00 0.  1.
          4    1    5    5  502    0  0.12621376872E+02 -0.38539173084E+02  0.28971900227E+01  0.40656619710E+02  0.00000000000E+00 0. -1.
          3    1    6    6  503    0 -0.84256764933E+01 -0.13908726953E+02 -0.77384614300E+01  0.18009122553E+02  0.00000000000E+00 0. -1.
         -4    1    5    5    0  502  0.21349303960E+03 -0.24368110401E+03  0.23287147755E+03  0.39898481608E+03  0.00000000000E+00 0.  1.
         -3    1    6    6    0  503 -0.76287126620E+03 -0.69006163455E+03  0.18009761436E+03  0.10443145019E+04  0.00000000000E+00 0.  1.
<mgrwt>
<rscale>  0 0.25905818E+04</rscale>
<asrwt>0</asrwt>
<pdfrwt beam="1">  1        1 0.28953690E+00 0.25905818E+04</pdfrwt>
<pdfrwt beam="2">  1       -1 0.13715259E+00 0.25905818E+04</pdfrwt>
<totfact> 0.13967938E+00</totfact>
</mgrwt>
</event>
<event>
12    1  0.4403484E-008  0.1305652E+04  0.7818608E-02  0.9025095E-01
         -2   -1    0    0    0  501 -0.00000000000E+00  0.00000000000E+00  0.95624485673E+03  0.95624485673E+03  0.00000000000E+00 0.  1.
          2   -1    0    0  501    0  0.00000000000E+00 -0.00000000000E+00 -0.44568263093E+03  0.44568263093E+03  0.00000000000E+00 0. -1.
         23    2    1    2    0    0  0.22023871127E+03 -0.12298418617E+01 -0.16329141355E+03  0.30051315706E+03  0.12303442352E+03 0.  0.
        254    2    1    2    0    0 -0.22023871127E+03  0.12298418617E+01  0.67385363936E+03  0.11014143306E+04  0.84292834685E+03 0.  0.
         23    2    4    4    0    0  0.16038875114E+03  0.26695807200E+03  0.64274373255E+02  0.33022563452E+03  0.89031516548E+02 0.  0.
         23    2    4    4    0    0 -0.38062746241E+03 -0.26572823014E+03  0.60957926610E+03  0.77118869608E+03  0.87500662131E+02 0.  0.
         11    1    3    3    0    0  0.15181956868E+03 -0.23346932955E+02 -0.16900797902E+03  0.22838116753E+03  0.00000000000E+00 0. -1.
        -11    1    3    3    0    0  0.68419142597E+02  0.22117091094E+02  0.57165654698E+01  0.72131989525E+02  0.00000000000E+00 0.  1.
          4    1    5    5  502    0  0.28444354934E+02  0.60926838950E+02 -0.22082618058E+02  0.70772897725E+02  0.00000000000E+00 0. -1.
          3    1    6    6  503    0 -0.14157136143E+02 -0.14685668465E+02  0.50696979853E+01  0.21018924799E+02  0.00000000000E+00 0. -1.
         -4    1    5    5    0  502  0.13194439620E+03  0.20603123305E+03  0.86356991313E+02  0.25945273679E+03  0.00000000000E+00 0.  1.
         -3    1    6    6    0  503 -0.36647032627E+03 -0.25104256167E+03  0.60450956812E+03  0.75016977129E+03  0.00000000000E+00 0.  1.
<mgrwt>
<rscale>  0 0.13056519E+04</rscale>
<asrwt>0</asrwt>
<pdfrwt beam="1">  1        2 0.68566558E-01 0.13056519E+04</pdfrwt>
<pdfrwt beam="2">  1       -2 0.14711459E+00 0.13056519E+04</pdfrwt>
<totfact> 0.21711975E+01</totfact>
</mgrwt>
</event>
<event>
12    1  0.4403484E-008  0.1642942E+04  0.7818608E-02  0.8794593E-01
         -1   -1    0    0    0  501 -0.00000000000E+00  0.00000000000E+00  0.46362995370E+03  0.46362995370E+03  0.00000000000E+00 0.  1.
          1   -1    0    0  501    0  0.00000000000E+00 -0.00000000000E+00 -0.14555019737E+04  0.14555019737E+04  0.00000000000E+00 0. -1.
         23    2    1    2    0    0 -0.53357678694E+00  0.29238332986E+03  0.22049727626E+03  0.37715983036E+03  0.90234098407E+02 0.  0.
        254    2    1    2    0    0  0.53357678694E+00 -0.29238332986E+03 -0.12123692962E+04  0.15419720970E+04  0.90683534406E+03 0.  0.
         23    2    4    4    0    0 -0.20163309847E+03  0.16413851229E+03 -0.59234710260E+02  0.28231807184E+03  0.92722085659E+02 0.  0.
         23    2    4    4    0    0  0.20216667526E+03 -0.45652184215E+03 -0.11531345860E+04  0.12596540252E+04  0.87893872522E+02 0.  0.
         13    1    3    3    0    0 -0.31174259900E+01  0.10786115148E+02  0.42627403305E+02  0.44081222049E+02  0.00000000000E+00 0. -1.
        -13    1    3    3    0    0  0.25838492031E+01  0.28159721471E+03  0.17786987296E+03  0.33307860831E+03  0.00000000000E+00 0.  1.
          2    1    5    5  502    0 -0.18560092592E+03  0.10199372838E+03 -0.48235766232E+02  0.21720293156E+03  0.00000000000E+00 0.  1.
          1    1    6    6  503    0 -0.51676232080E+01 -0.33463575275E+01 -0.34317927903E+02  0.34865779984E+02  0.00000000000E+00 0. -1.
         -2    1    5    5    0  502 -0.16032172548E+02  0.62144783911E+02 -0.10998944028E+02  0.65115140280E+02  0.00000000000E+00 0. -1.
         -1    1    6    6    0  503  0.20733429846E+03 -0.45317548462E+03 -0.11188166581E+04  0.12247882452E+04  0.00000000000E+00 0.  1.
<mgrwt>
<rscale>  0 0.16429416E+04</rscale>
<asrwt>0</asrwt>
<pdfrwt beam="1">  1        1 0.22392338E+00 0.16429416E+04</pdfrwt>
<pdfrwt beam="2">  1       -1 0.71327686E-01 0.16429416E+04</pdfrwt>
<totfact> 0.13331441E+01</totfact>
</mgrwt>
</event>
<event>
12    1  0.4403484E-008  0.2195816E+04  0.7818608E-02  0.8520171E-01
         -2   -1    0    0    0  501 -0.00000000000E+00  0.00000000000E+00  0.30899031491E+03  0.30899031491E+03  0.00000000000E+00 0.  1.
          2   -1    0    0  501    0  0.00000000000E+00 -0.00000000000E+00 -0.39011004668E+04  0.39011004668E+04  0.00000000000E+00 0. -1.
         23    2    1    2    0    0  0.70251824749E+02  0.60139107736E+03 -0.28067347990E+04  0.28728612400E+04  0.94683289199E+02 0.  0.
        254    2    1    2    0    0 -0.70251824749E+02 -0.60139107736E+03 -0.78537535286E+03  0.13372295417E+04  0.89708519973E+03 0.  0.
         23    2    4    4    0    0  0.10176505634E+03 -0.36660582749E+03 -0.92300748399E+03  0.10024288952E+04  0.90359918643E+02 0.  0.
         23    2    4    4    0    0 -0.17201688109E+03 -0.23478524987E+03  0.13763213113E+03  0.33480064657E+03  0.91841975634E+02 0.  0.
         11    1    3    3    0    0  0.28009453978E+02  0.12680640937E+03 -0.79039019245E+03  0.80098754753E+03  0.00000000000E+00 0.  1.
        -11    1    3    3    0    0  0.42242370771E+02  0.47458466799E+03 -0.20163446066E+04  0.20718736924E+04  0.00000000000E+00 0. -1.
          1    1    6    6  502    0 -0.42848693678E+01 -0.17876320017E+02 -0.12465061680E+02  0.22210373377E+02  0.00000000000E+00 0. -1.
          1    1    5    5  503    0 -0.16473621185E+02 -0.57998847502E+02 -0.12926160200E+03  0.14263172248E+03  0.00000000000E+00 0. -1.
         -1    1    5    5    0  503  0.11823867752E+03 -0.30860697999E+03 -0.79374588199E+03  0.85979717267E+03  0.00000000000E+00 0.  1.
         -1    1    6    6    0  502 -0.16773201172E+03 -0.21690892985E+03  0.15009719281E+03  0.31259027319E+03  0.00000000000E+00 0.  1.
<mgrwt>
<rscale>  0 0.21958163E+04</rscale>
<asrwt>0</asrwt>
<pdfrwt beam="1">  1        2 0.60016931E+00 0.21958163E+04</pdfrwt>
<pdfrwt beam="2">  1       -2 0.47536971E-01 0.21958163E+04</pdfrwt>
<totfact> 0.15832084E+00</totfact>
</mgrwt>
</event>
<event>
12    1  0.4403484E-008  0.1494951E+04  0.7818608E-02  0.8887817E-01
          2   -1    0    0  501    0  0.00000000000E+00  0.00000000000E+00  0.19883225610E+04  0.19883225610E+04  0.00000000000E+00 0. -1.
         -2   -1    0    0    0  501 -0.00000000000E+00 -0.00000000000E+00 -0.28100058823E+03  0.28100058823E+03  0.00000000000E+00 0.  1.
         23    2    1    2    0    0  0.24114640268E+03 -0.12019760357E+03 -0.39867212986E+02  0.28719318036E+03  0.91057546330E+02 0.  0.
        254    2    1    2    0    0 -0.24114640268E+03  0.12019760357E+03  0.17471891858E+04  0.19821299689E+04  0.89642072222E+03 0.  0.
         23    2    4    4    0    0  0.20932593444E+03 -0.21387929223E+03  0.32680003979E+03  0.45234948633E+03  0.90885055421E+02 0.  0.
         23    2    4    4    0    0 -0.45047233713E+03  0.33407689579E+03  0.14203891460E+04  0.15297804826E+04  0.90500276050E+02 0.  0.
         11    1    3    3    0    0  0.17988024147E+03 -0.11626983859E+03 -0.35699178634E+00  0.21418614352E+03  0.00000000000E+00 0.  1.
        -11    1    3    3    0    0  0.61266161218E+02 -0.39277649783E+01 -0.39510221200E+02  0.73007036835E+02  0.00000000000E+00 0. -1.
          2    1    5    5  502    0  0.62515071616E+01 -0.16632505080E+02 -0.26588489086E+01  0.17966386519E+02  0.00000000000E+00 0. -1.
          3    1    6    6  503    0 -0.54470970438E+02  0.72478589355E+02  0.17652982093E+03  0.19845153114E+03  0.00000000000E+00 0. -1.
         -2    1    5    5    0  502  0.20307442728E+03 -0.19724678715E+03  0.32945888870E+03  0.43438309981E+03  0.00000000000E+00 0.  1.
         -3    1    6    6    0  503 -0.39600136669E+03  0.26159830644E+03  0.12438593251E+04  0.13313289514E+04  0.00000000000E+00 0.  1.
<mgrwt>
<rscale>  0 0.14949512E+04</rscale>
<asrwt>0</asrwt>
<pdfrwt beam="1">  1        2 0.30589577E+00 0.14949512E+04</pdfrwt>
<pdfrwt beam="2">  1       -2 0.43230861E-01 0.14949512E+04</pdfrwt>
<totfact> 0.33268809E+01</totfact>
</mgrwt>
</event>
<event>
12    1  0.4403484E-008  0.2156592E+04  0.7818608E-02  0.8536716E-01
         -2   -1    0    0    0  501 -0.00000000000E+00  0.00000000000E+00  0.60414467229E+03  0.60414467229E+03  0.00000000000E+00 0.  1.
          2   -1    0    0  501    0  0.00000000000E+00 -0.00000000000E+00 -0.19245767445E+04  0.19245767445E+04  0.00000000000E+00 0. -1.
         23    2    1    2    0    0  0.47579068946E+03 -0.70463219688E+03 -0.85139259934E+03  0.12068307459E+04  0.93208251210E+02 0.  0.
        254    2    1    2    0    0 -0.47579068946E+03  0.70463219688E+03 -0.46903947286E+03  0.13218906708E+04  0.89694682421E+03 0.  0.
         23    2    4    4    0    0 -0.22110808023E+03 -0.15455210843E+03 -0.28480723288E+03  0.40247351298E+03  0.89970169437E+02 0.  0.
         23    2    4    4    0    0 -0.25468260923E+03  0.85918430531E+03 -0.18423223998E+03  0.91941715784E+03  0.91244122854E+02 0.  0.
         11    1    3    3    0    0  0.23860343082E+02 -0.60587520453E+02 -0.39037292464E+02  0.75921497677E+02  0.00000000000E+00 0. -1.
        -11    1    3    3    0    0  0.45193034638E+03 -0.64404467643E+03 -0.81235530687E+03  0.11309092483E+04  0.00000000000E+00 0.  1.
          2    1    6    6  502    0 -0.38815440316E+02  0.22916652494E+03 -0.18711856412E+02  0.23318247818E+03  0.00000000000E+00 0.  1.
          2    1    5    5  503    0 -0.21311424291E+02 -0.59123166491E+02 -0.67727978387E+02  0.92394830361E+02  0.00000000000E+00 0. -1.
         -2    1    5    5    0  503 -0.19979665594E+03 -0.95428941936E+02 -0.21707925449E+03  0.31007868262E+03  0.00000000000E+00 0.  1.
         -2    1    6    6    0  502 -0.21586716891E+03  0.63001778037E+03 -0.16552038357E+03  0.68623467967E+03  0.00000000000E+00 0. -1.
<mgrwt>
<rscale>  0 0.21565925E+04</rscale>
<asrwt>0</asrwt>
<pdfrwt beam="1">  1        2 0.29608873E+00 0.21565925E+04</pdfrwt>
<pdfrwt beam="2">  1       -2 0.92945335E-01 0.21565925E+04</pdfrwt>
<totfact> 0.66198693E+00</totfact>
</mgrwt>
</event>
<event>
12    1  0.4403484E-008  0.2229146E+04  0.7818608E-02  0.8506394E-01
         -2   -1    0    0    0  501 -0.00000000000E+00  0.00000000000E+00  0.48094345054E+03  0.48094345054E+03  0.00000000000E+00 0. -1.
          2   -1    0    0  501    0  0.00000000000E+00 -0.00000000000E+00 -0.25829928097E+04  0.25829928097E+04  0.00000000000E+00 0.  1.
         23    2    1    2    0    0  0.77092267047E+03 -0.20762640476E+03 -0.16065370832E+04  0.17963506972E+04  0.92108305920E+02 0.  0.
        254    2    1    2    0    0 -0.77092267047E+03  0.20762640476E+03 -0.49551227596E+03  0.12675855630E+04  0.85077038975E+03 0.  0.
         23    2    4    4    0    0 -0.46168297100E+03 -0.21896281211E+03 -0.51655096181E+03  0.73224659737E+03  0.90908219710E+02 0.  0.
         23    2    4    4    0    0 -0.30923969947E+03  0.42658921687E+03  0.21038685856E+02  0.53533896562E+03  0.92399297249E+02 0.  0.
         11    1    3    3    0    0  0.40663087263E+03 -0.13118044299E+03 -0.94942482835E+03  0.10411361486E+04  0.00000000000E+00 0. -1.
        -11    1    3    3    0    0  0.36429179784E+03 -0.76445961766E+02 -0.65711225481E+03  0.75521454863E+03  0.00000000000E+00 0.  1.
          2    1    5    5  502    0 -0.37063045093E+03 -0.19993487456E+03 -0.38128621064E+03  0.56808455326E+03  0.00000000000E+00 0. -1.
          3    1    6    6  503    0 -0.23910434459E+03  0.28617623613E+03 -0.18853171808E+02  0.37339411861E+03  0.00000000000E+00 0. -1.
         -2    1    5    5    0  502 -0.91052520067E+02 -0.19027937553E+02 -0.13526475117E+03  0.16416204411E+03  0.00000000000E+00 0.  1.
         -3    1    6    6    0  503 -0.70135354874E+02  0.14041298074E+03  0.39891857664E+02  0.16194484701E+03  0.00000000000E+00 0.  1.
<mgrwt>
<rscale>  0 0.22291465E+04</rscale>
<asrwt>0</asrwt>
<pdfrwt beam="1">  1        2 0.39738351E+00 0.22291465E+04</pdfrwt>
<pdfrwt beam="2">  1       -2 0.73991301E-01 0.22291465E+04</pdfrwt>
<totfact> 0.46730440E+00</totfact>
</mgrwt>
</event>
<event>
12    1  0.4403484E-008  0.2181145E+04  0.7818608E-02  0.8526317E-01
          3   -1    0    0  501    0  0.00000000000E+00  0.00000000000E+00  0.57320575247E+03  0.57320575247E+03  0.00000000000E+00 0. -1.
         -3   -1    0    0    0  501 -0.00000000000E+00 -0.00000000000E+00 -0.20749069805E+04  0.20749069805E+04  0.00000000000E+00 0.  1.
         23    2    1    2    0    0 -0.58767225699E+03 -0.24653400485E+03  0.15204723046E+03  0.66175314634E+03  0.93065402953E+02 0.  0.
        254    2    1    2    0    0  0.58767225699E+03  0.24653400485E+03 -0.16537484585E+04  0.19863595866E+04  0.89699651405E+03 0.  0.
         23    2    4    4    0    0 -0.73430392719E+02 -0.66578749016E+02 -0.97617472690E+03  0.98542017269E+03  0.91165053166E+02 0.  0.
         23    2    4    4    0    0  0.66110264970E+03  0.31311275386E+03 -0.67757373158E+03  0.10009394139E+04  0.87619852369E+02 0.  0.
         11    1    3    3    0    0 -0.23302745889E+03 -0.14712233309E+03  0.72142383009E+02  0.28487067402E+03  0.00000000000E+00 0.  1.
        -11    1    3    3    0    0 -0.35464479810E+03 -0.99411671759E+02  0.79904847454E+02  0.37688247232E+03  0.00000000000E+00 0. -1.
          4    1    5    5  502    0 -0.43384521742E+02 -0.40680297786E+02 -0.87076749309E+03  0.87279615626E+03  0.00000000000E+00 0. -1.
          1    1    6    6  503    0  0.39522139441E+03  0.23170746884E+03 -0.43996971543E+03  0.63518631299E+03  0.00000000000E+00 0. -1.
         -4    1    5    5    0  502 -0.30045870977E+02 -0.25898451230E+02 -0.10540723380E+03  0.11262401643E+03  0.00000000000E+00 0.  1.
         -1    1    6    6    0  503  0.26588125530E+03  0.81405285022E+02 -0.23760401615E+03  0.36575310093E+03  0.00000000000E+00 0.  1.
<mgrwt>
<rscale>  0 0.21811452E+04</rscale>
<asrwt>0</asrwt>
<pdfrwt beam="1">  1        3 0.88185498E-01 0.21811452E+04</pdfrwt>
<pdfrwt beam="2">  1       -3 0.31921647E+00 0.21811452E+04</pdfrwt>
<totfact> 0.82950953E-02</totfact>
</mgrwt>
</event>
<event>
12    1  0.4403484E-008  0.2360254E+04  0.7818608E-02  0.8454536E-01
          2   -1    0    0  501    0  0.00000000000E+00  0.00000000000E+00  0.10187181724E+04  0.10187181724E+04  0.00000000000E+00 0. -1.
         -2   -1    0    0    0  501 -0.00000000000E+00 -0.00000000000E+00 -0.13671098669E+04  0.13671098669E+04  0.00000000000E+00 0.  1.
         23    2    1    2    0    0 -0.67672251459E+03  0.41480434978E+03 -0.77031543041E+03  0.11100339428E+04  0.93666864113E+02 0.  0.
        254    2    1    2    0    0  0.67672251459E+03 -0.41480434978E+03  0.42192373588E+03  0.12757940965E+04  0.90532586808E+03 0.  0.
         23    2    4    4    0    0  0.80776054149E+03 -0.16336285832E+03  0.49879599912E+03  0.96769317553E+03  0.92022374344E+02 0.  0.
         23    2    4    4    0    0 -0.13103802689E+03 -0.25144149146E+03 -0.76872263231E+02  0.30810092097E+03  0.92860349590E+02 0.  0.
         11    1    3    3    0    0 -0.78789845121E+02  0.23432200344E+02 -0.54957845025E+02  0.98880091206E+02  0.00000000000E+00 0. -1.
        -11    1    3    3    0    0 -0.59793266947E+03  0.39137214944E+03 -0.71535758538E+03  0.10111538516E+04  0.00000000000E+00 0.  1.
          1    1    5    5  502    0  0.31229650467E+02 -0.30063755482E+01  0.84222377392E+00  0.31385326239E+02  0.00000000000E+00 0. -1.
          3    1    6    6  503    0  0.12030654402E+02 -0.26428182632E+02 -0.20546306872E+02  0.35571564608E+02  0.00000000000E+00 0. -1.
         -1    1    5    5    0  502  0.77653089102E+03 -0.16035648277E+03  0.49795377534E+03  0.93630784929E+03  0.00000000000E+00 0.  1.
         -3    1    6    6    0  503 -0.14306868130E+03 -0.22501330883E+03 -0.56325956360E+02  0.27252935636E+03  0.00000000000E+00 0.  1.
<mgrwt>
<rscale>  0 0.23602539E+04</rscale>
<asrwt>0</asrwt>
<pdfrwt beam="1">  1        2 0.15672587E+00 0.23602539E+04</pdfrwt>
<pdfrwt beam="2">  1       -2 0.21032459E+00 0.23602539E+04</pdfrwt>
<totfact> 0.25185700E+00</totfact>
</mgrwt>
</event>
<event>
12    1  0.4403484E-008  0.1613378E+04  0.7818608E-02  0.8812371E-01
         -2   -1    0    0    0  501 -0.00000000000E+00  0.00000000000E+00  0.41490763893E+03  0.41490763893E+03  0.00000000000E+00 0.  1.
          2   -1    0    0  501    0  0.00000000000E+00 -0.00000000000E+00 -0.15684149623E+04  0.15684149623E+04  0.00000000000E+00 0. -1.
         23    2    1    2    0    0 -0.33943535887E+03 -0.30012197763E+03  0.37850692543E+01  0.46190219110E+03  0.89720360469E+02 0.  0.
        254    2    1    2    0    0  0.33943535887E+03  0.30012197763E+03 -0.11572923927E+04  0.15214204102E+04  0.87755616234E+03 0.  0.
         23    2    4    4    0    0 -0.19998821049E+03  0.29929041742E+03 -0.20963272319E+03  0.42700170933E+03  0.93885796839E+02 0.  0.
         23    2    4    4    0    0  0.53942356936E+03  0.83156021483E+00 -0.94765966948E+03  0.10944187008E+04  0.93353976568E+02 0.  0.
         11    1    3    3    0    0 -0.13499509151E+03 -0.10931350306E+03 -0.41544124534E+02  0.17860299820E+03  0.00000000000E+00 0.  1.
        -11    1    3    3    0    0 -0.20444026736E+03 -0.19080847457E+03  0.45329193788E+02  0.28329919289E+03  0.00000000000E+00 0. -1.
          2    1    5    5  502    0 -0.96677246136E+02  0.21850904640E+03 -0.15574505431E+03  0.28521783819E+03  0.00000000000E+00 0.  1.
          4    1    6    6  503    0  0.41741479269E+03  0.39817881938E+02 -0.71981322282E+03  0.83303760337E+03  0.00000000000E+00 0. -1.
         -2    1    5    5    0  502 -0.10331096435E+03  0.80781371013E+02 -0.53887668882E+02  0.14178387114E+03  0.00000000000E+00 0. -1.
         -4    1    6    6    0  503  0.12200877666E+03 -0.38986321723E+02 -0.22784644665E+03  0.26138109748E+03  0.00000000000E+00 0.  1.
<mgrwt>
<rscale>  0 0.16133783E+04</rscale>
<asrwt>0</asrwt>
<pdfrwt beam="1">  1        2 0.24129461E+00 0.16133783E+04</pdfrwt>
<pdfrwt beam="2">  1       -2 0.63831944E-01 0.16133783E+04</pdfrwt>
<totfact> 0.25255453E+01</totfact>
</mgrwt>
</event>
<event>
12    1  0.4403484E-008  0.1704806E+04  0.7818608E-02  0.8758628E-01
         -2   -1    0    0    0  501 -0.00000000000E+00  0.00000000000E+00  0.24462023012E+03  0.24462023012E+03  0.00000000000E+00 0.  1.
          2   -1    0    0  501    0  0.00000000000E+00 -0.00000000000E+00 -0.29702828670E+04  0.29702828670E+04  0.00000000000E+00 0. -1.
         23    2    1    2    0    0 -0.29186921756E+03 -0.40245930832E+03 -0.31720032090E+03  0.59711705717E+03  0.93656827667E+02 0.  0.
        254    2    1    2    0    0  0.29186921756E+03  0.40245930832E+03 -0.24084623160E+04  0.26177860400E+04  0.89719111037E+03 0.  0.
         23    2    4    4    0    0  0.32619037582E+03  0.12298823632E+03 -0.25083745611E+03  0.44005694251E+03  0.95939646219E+02 0.  0.
         23    2    4    4    0    0 -0.34321158255E+02  0.27947107199E+03 -0.21576248599E+04  0.21777290975E+04  0.88752261816E+02 0.  0.
         13    1    3    3    0    0 -0.60068360908E+02 -0.44126952761E+02 -0.20366362463E+02  0.77266970059E+02  0.00000000000E+00 0. -1.
        -13    1    3    3    0    0 -0.23180085665E+03 -0.35833235555E+03 -0.29683395844E+03  0.51985008711E+03  0.00000000000E+00 0.  1.
          1    1    5    5  502    0  0.10352223088E+03  0.34237175167E+02 -0.27541885652E+02  0.11246151304E+03  0.00000000000E+00 0. -1.
          3    1    6    6  503    0  0.67256405788E+00  0.36325900542E+02 -0.57565243581E+03  0.57679784175E+03  0.00000000000E+00 0. -1.
         -1    1    5    5    0  502  0.22266814494E+03  0.88751061154E+02 -0.22329557046E+03  0.32759542948E+03  0.00000000000E+00 0.  1.
         -3    1    6    6    0  503 -0.34993722313E+02  0.24314517145E+03 -0.15819724241E+04  0.16009312557E+04  0.00000000000E+00 0.  1.
<mgrwt>
<rscale>  0 0.17048065E+04</rscale>
<asrwt>0</asrwt>
<pdfrwt beam="1">  1        2 0.45696660E+00 0.17048065E+04</pdfrwt>
<pdfrwt beam="2">  1       -2 0.37633881E-01 0.17048065E+04</pdfrwt>
<totfact> 0.11566763E+01</totfact>
</mgrwt>
</event>
<event>
12    1  0.4403484E-008  0.2144805E+04  0.7818608E-02  0.8541759E-01
         -1   -1    0    0    0  501 -0.00000000000E+00  0.00000000000E+00  0.21435096961E+04  0.21435096961E+04  0.00000000000E+00 0.  1.
          1   -1    0    0  501    0  0.00000000000E+00 -0.00000000000E+00 -0.53652512771E+03  0.53652512771E+03  0.00000000000E+00 0. -1.
         23    2    1    2    0    0 -0.45664689959E+03 -0.65486948156E+03  0.67047659590E+03  0.10464857150E+04  0.90625919710E+02 0.  0.
        254    2    1    2    0    0  0.45664689959E+03  0.65486948156E+03  0.93650797248E+03  0.16335491088E+04  0.10742695562E+04 0.  0.
         23    2    4    4    0    0  0.96104012663E+02 -0.28359752688E+03  0.12109226577E+03  0.33589214791E+03  0.92177327445E+02 0.  0.
         23    2    4    4    0    0  0.36054288693E+03  0.93846700844E+03  0.81541570671E+03  0.12976569609E+04  0.91100571262E+02 0.  0.
         13    1    3    3    0    0 -0.40165178950E+03 -0.51682752706E+03  0.55816434491E+03  0.86022223213E+03  0.00000000000E+00 0.  1.
        -13    1    3    3    0    0 -0.54995110092E+02 -0.13804195450E+03  0.11231225099E+03  0.18626348289E+03  0.00000000000E+00 0. -1.
          1    1    5    5  502    0  0.88311381820E+02 -0.25515086161E+03  0.73373292089E+02  0.27979367814E+03  0.00000000000E+00 0. -1.
          1    1    6    6  503    0  0.34727493686E+03  0.92747247956E+03  0.81051576650E+03  0.12797425092E+04  0.00000000000E+00 0. -1.
         -1    1    5    5    0  502  0.77926308428E+01 -0.28446665272E+02  0.47718973682E+02  0.56098469763E+02  0.00000000000E+00 0.  1.
         -1    1    6    6    0  503  0.13267950062E+02  0.10994528879E+02  0.48999402024E+01  0.17914451655E+02  0.00000000000E+00 0.  1.
<mgrwt>
<rscale>  0 0.21448047E+04</rscale>
<asrwt>0</asrwt>
<pdfrwt beam="1">  1        1 0.82542329E-01 0.21448047E+04</pdfrwt>
<pdfrwt beam="2">  1       -1 0.32977072E+00 0.21448047E+04</pdfrwt>
<totfact> 0.77808324E-01</totfact>
</mgrwt>
</event>
<event>
12    1  0.4403484E-008  0.1753027E+04  0.7818608E-02  0.8731686E-01
         -2   -1    0    0    0  501 -0.00000000000E+00  0.00000000000E+00  0.39343639913E+03  0.39343639913E+03  0.00000000000E+00 0. -1.
          2   -1    0    0  501    0  0.00000000000E+00 -0.00000000000E+00 -0.19527328212E+04  0.19527328212E+04  0.00000000000E+00 0.  1.
         23    2    1    2    0    0  0.27418364808E+03 -0.64046819768E+03 -0.70235770050E+03  0.99347551190E+03  0.91165060088E+02 0.  0.
        254    2    1    2    0    0 -0.27418364808E+03  0.64046819768E+03 -0.85693872157E+03  0.13526937084E+04  0.78106344889E+03 0.  0.
         23    2    4    4    0    0 -0.30585964860E+03  0.13845080812E+03  0.59290438267E+01  0.34971578572E+03  0.97709908959E+02 0.  0.
         23    2    4    4    0    0  0.31676000520E+02  0.50201738956E+03 -0.86286776540E+03  0.10029779227E+04  0.91646628217E+02 0.  0.
         11    1    3    3    0    0  0.14569240299E+03 -0.33173846138E+03 -0.30079363853E+03  0.47090709915E+03  0.00000000000E+00 0. -1.
        -11    1    3    3    0    0  0.12849124509E+03 -0.30872973630E+03 -0.40156406197E+03  0.52256841275E+03  0.00000000000E+00 0.  1.
          1    1    6    6  502    0 -0.17334653871E+02  0.25409906908E+03 -0.49483147920E+03  0.55652944211E+03  0.00000000000E+00 0.  1.
          1    1    5    5  503    0 -0.31184606423E+03  0.14191188819E+03  0.71576940993E+01  0.34269255079E+03  0.00000000000E+00 0. -1.
         -1    1    5    5    0  503  0.59864156280E+01 -0.34610800696E+01 -0.12286502726E+01  0.70232349250E+01  0.00000000000E+00 0.  1.
         -1    1    6    6    0  502  0.49010654392E+02  0.24791832048E+03 -0.36803628620E+03  0.44644848060E+03  0.00000000000E+00 0. -1.
<mgrwt>
<rscale>  0 0.17530273E+04</rscale>
<asrwt>0</asrwt>
<pdfrwt beam="1">  1        2 0.30042044E+00 0.17530273E+04</pdfrwt>
<pdfrwt beam="2">  1       -2 0.60528676E-01 0.17530273E+04</pdfrwt>
<totfact> 0.17099410E+01</totfact>
</mgrwt>
</event>
<event>
12    1  0.4403484E-008  0.1590432E+04  0.7818608E-02  0.8826448E-01
          1   -1    0    0  501    0  0.00000000000E+00  0.00000000000E+00  0.14015322645E+04  0.14015322645E+04  0.00000000000E+00 0. -1.
         -1   -1    0    0    0  501 -0.00000000000E+00 -0.00000000000E+00 -0.45119795899E+03  0.45119795899E+03  0.00000000000E+00 0.  1.
         23    2    1    2    0    0 -0.75130898238E+02 -0.47303668626E+03  0.62534484836E+03  0.79262022295E+03  0.88217232109E+02 0.  0.
        254    2    1    2    0    0  0.75130898238E+02  0.47303668626E+03  0.32498945711E+03  0.10601100005E+04  0.88814790857E+03 0.  0.
         23    2    4    4    0    0  0.20960121155E+02  0.34546579703E+03  0.62358604306E+03  0.71883245694E+03  0.89858802883E+02 0.  0.
         23    2    4    4    0    0  0.54170777083E+02  0.12757088923E+03 -0.29859658595E+03  0.34127754356E+03  0.90009086936E+02 0.  0.
         11    1    3    3    0    0 -0.88898406291E+02 -0.43295890565E+03  0.54421144397E+03  0.70108661118E+03  0.00000000000E+00 0. -1.
        -11    1    3    3    0    0  0.13767508053E+02 -0.40077780615E+02  0.81133404388E+02  0.91533611775E+02  0.00000000000E+00 0.  1.
          2    1    5    5  502    0 -0.22714047782E+02  0.41645751392E+02  0.54551902971E+02  0.72292507865E+02  0.00000000000E+00 0. -1.
          4    1    6    6  503    0 -0.10706013051E+02 -0.55064367189E+01 -0.62126544532E+01  0.13547569382E+02  0.00000000000E+00 0. -1.
         -2    1    5    5    0  502  0.43674168937E+02  0.30382004564E+03  0.56903414008E+03  0.64653994907E+03  0.00000000000E+00 0.  1.
         -4    1    6    6    0  503  0.64876790134E+02  0.13307732595E+03 -0.29238393149E+03  0.32772997418E+03  0.00000000000E+00 0.  1.
<mgrwt>
<rscale>  0 0.15904320E+04</rscale>
<asrwt>0</asrwt>
<pdfrwt beam="1">  1        1 0.21562035E+00 0.15904320E+04</pdfrwt>
<pdfrwt beam="2">  1       -1 0.69415071E-01 0.15904320E+04</pdfrwt>
<totfact> 0.15447947E+01</totfact>
</mgrwt>
</event>
<event>
12    1  0.4403484E-008  0.2192552E+04  0.7818608E-02  0.8521534E-01
          4   -1    0    0  501    0  0.00000000000E+00  0.00000000000E+00  0.47218834317E+03  0.47218834317E+03  0.00000000000E+00 0. -1.
         -4   -1    0    0    0  501 -0.00000000000E+00 -0.00000000000E+00 -0.25452160353E+04  0.25452160353E+04  0.00000000000E+00 0.  1.
         23    2    1    2    0    0  0.46545109486E+03  0.10052825878E+03 -0.19300745404E+04  0.19901766257E+04  0.94152097611E+02 0.  0.
        254    2    1    2    0    0 -0.46545109486E+03 -0.10052825878E+03 -0.14295315176E+03  0.10272277528E+04  0.89889409832E+03 0.  0.
         23    2    4    4    0    0  0.92644639999E+02  0.23306489878E+03  0.15219533461E+03  0.30731601355E+03  0.91528334098E+02 0.  0.
         23    2    4    4    0    0 -0.55809573486E+03 -0.33359315756E+03 -0.29514848636E+03  0.71991173924E+03  0.91679001192E+02 0.  0.
         11    1    3    3    0    0  0.22740193890E+03  0.82775175122E+02 -0.11095503876E+04  0.11356343751E+04  0.00000000000E+00 0. -1.
        -11    1    3    3    0    0  0.23804915596E+03  0.17753083657E+02 -0.82052415281E+03  0.85454225055E+03  0.00000000000E+00 0.  1.
          2    1    5    5  502    0 -0.41299310491E+01  0.25325106880E+01 -0.87285583657E+01  0.99828689263E+01  0.00000000000E+00 0. -1.
          4    1    6    6  503    0 -0.39847674435E+02 -0.30619123678E+02  0.15601747434E+01  0.50277251695E+02  0.00000000000E+00 0. -1.
         -2    1    5    5    0  502  0.96774571048E+02  0.23053238810E+03  0.16092389297E+03  0.29733314462E+03  0.00000000000E+00 0.  1.
         -4    1    6    6    0  503 -0.51824806042E+03 -0.30297403389E+03 -0.29670866110E+03  0.66963448755E+03  0.00000000000E+00 0.  1.
<mgrwt>
<rscale>  0 0.21925523E+04</rscale>
<asrwt>0</asrwt>
<pdfrwt beam="1">  1        4 0.72644361E-01 0.21925523E+04</pdfrwt>
<pdfrwt beam="2">  1       -4 0.39157170E+00 0.21925523E+04</pdfrwt>
<totfact> 0.24654609E-02</totfact>
</mgrwt>
</event>
<event>
12    1  0.4403484E-008  0.1810116E+04  0.7818608E-02  0.8700938E-01
          2   -1    0    0  501    0  0.00000000000E+00  0.00000000000E+00  0.53380234991E+03  0.53380234991E+03  0.00000000000E+00 0. -1.
         -2   -1    0    0    0  501 -0.00000000000E+00 -0.00000000000E+00 -0.15345193672E+04  0.15345193672E+04  0.00000000000E+00 0.  1.
         23    2    1    2    0    0  0.41412725079E+03  0.75233161592E+02 -0.97504569048E+03  0.10660146731E+04  0.92259287929E+02 0.  0.
        254    2    1    2    0    0 -0.41412725079E+03 -0.75233161592E+02 -0.25671326852E+02  0.10023070441E+04  0.90928487570E+03 0.  0.
         23    2    4    4    0    0 -0.11931489621E+03 -0.47086424249E+03 -0.64921104511E+02  0.49861568300E+03  0.91943842723E+02 0.  0.
         23    2    4    4    0    0 -0.29481235458E+03  0.39563108090E+03  0.39249777660E+02  0.50369136109E+03  0.93413947601E+02 0.  0.
         13    1    3    3    0    0  0.34908547360E+03  0.52091783036E+02 -0.88322505357E+03  0.95113653961E+03  0.00000000000E+00 0.  1.
        -13    1    3    3    0    0  0.65041777189E+02  0.23141378557E+02 -0.91820636910E+02  0.11487813345E+03  0.00000000000E+00 0. -1.
          2    1    5    5  502    0 -0.52180451775E+02 -0.24559929241E+03 -0.78783131816E+02  0.26315127558E+03  0.00000000000E+00 0. -1.
          4    1    6    6  503    0 -0.12032837341E+03  0.21741780013E+03  0.52312432676E+02  0.25394095352E+03  0.00000000000E+00 0. -1.
         -2    1    5    5    0  502 -0.67134444431E+02 -0.22526495008E+03  0.13862027304E+02  0.23546440743E+03  0.00000000000E+00 0.  1.
         -4    1    6    6    0  503 -0.17448398117E+03  0.17821328076E+03 -0.13062655016E+02  0.24975040757E+03  0.00000000000E+00 0.  1.
<mgrwt>
<rscale>  0 0.18101161E+04</rscale>
<asrwt>0</asrwt>
<pdfrwt beam="1">  1        2 0.82123439E-01 0.18101161E+04</pdfrwt>
<pdfrwt beam="2">  1       -2 0.23607990E+00 0.18101161E+04</pdfrwt>
<totfact> 0.42132763E+00</totfact>
</mgrwt>
</event>
<event>
12    1  0.4403484E-008  0.1292955E+04  0.7818608E-02  0.9035170E-01
         -2   -1    0    0    0  501 -0.00000000000E+00  0.00000000000E+00  0.29350698068E+03  0.29350698068E+03  0.00000000000E+00 0.  1.
          2   -1    0    0  501    0  0.00000000000E+00 -0.00000000000E+00 -0.14239299360E+04  0.14239299360E+04  0.00000000000E+00 0. -1.
         23    2    1    2    0    0 -0.78054589758E+02 -0.20249449745E+03 -0.59957363430E+03  0.64388000871E+03  0.89422492613E+02 0.  0.
        254    2    1    2    0    0  0.78054589758E+02  0.20249449745E+03 -0.53084932098E+03  0.10735569079E+04  0.90753892066E+03 0.  0.
         23    2    4    4    0    0  0.16625626833E+03  0.53919595554E+03 -0.36337382144E+03  0.67735416452E+03  0.91622621991E+02 0.  0.
         23    2    4    4    0    0 -0.88201678570E+02 -0.33670145809E+03 -0.16747549955E+03  0.39620274342E+03  0.88210900477E+02 0.  0.
         11    1    3    3    0    0 -0.21478435440E+01 -0.15370753230E+02 -0.15285160566E+03  0.15363751703E+03  0.00000000000E+00 0.  1.
        -11    1    3    3    0    0 -0.75906746214E+02 -0.18712374422E+03 -0.44672202864E+03  0.49024249167E+03  0.00000000000E+00 0. -1.
          1    1    5    5  502    0  0.52670985625E+02  0.31107333732E+03 -0.17823347300E+03  0.36236449166E+03  0.00000000000E+00 0. -1.
          3    1    6    6  503    0  0.94309769048E+01 -0.98410873133E+02 -0.68721241900E+02  0.12040038357E+03  0.00000000000E+00 0. -1.
         -1    1    5    5    0  502  0.11358528270E+03  0.22812261822E+03 -0.18514034844E+03  0.31498967286E+03  0.00000000000E+00 0.  1.
         -3    1    6    6    0  503 -0.97632655475E+02 -0.23829058495E+03 -0.98754257647E+02  0.27580235985E+03  0.00000000000E+00 0.  1.
<mgrwt>
<rscale>  0 0.12929553E+04</rscale>
<asrwt>0</asrwt>
<pdfrwt beam="1">  1        2 0.21906614E+00 0.12929553E+04</pdfrwt>
<pdfrwt beam="2">  1       -2 0.45154921E-01 0.12929553E+04</pdfrwt>
<totfact> 0.63928890E+01</totfact>
</mgrwt>
</event>
<event>
12    1  0.4403484E-008  0.1246379E+04  0.7818608E-02  0.9073203E-01
         -2   -1    0    0    0  501 -0.00000000000E+00  0.00000000000E+00  0.12589800589E+03  0.12589800589E+03  0.00000000000E+00 0.  1.
          2   -1    0    0  501    0  0.00000000000E+00 -0.00000000000E+00 -0.30847591154E+04  0.30847591154E+04  0.00000000000E+00 0. -1.
         23    2    1    2    0    0  0.11412548967E+03  0.98681706017E+02 -0.11953390926E+04  0.12081744817E+04  0.89929558322E+02 0.  0.
        254    2    1    2    0    0 -0.11412548967E+03 -0.98681706017E+02 -0.17635220169E+04  0.20024826396E+04  0.93657039841E+03 0.  0.
         23    2    4    4    0    0 -0.15890197751E+03  0.39983388980E+03 -0.83348991014E+03  0.94239370384E+03  0.91013651923E+02 0.  0.
         23    2    4    4    0    0  0.44776487845E+02 -0.49851559582E+03 -0.93003210678E+03  0.10600889357E+04  0.91137801776E+02 0.  0.
         13    1    3    3    0    0 -0.13880913907E+02  0.22437484412E+02 -0.20484079051E+03  0.20653297542E+03  0.00000000000E+00 0.  1.
        -13    1    3    3    0    0  0.12800640357E+03  0.76244221605E+02 -0.99049830209E+03  0.10016415063E+04  0.00000000000E+00 0. -1.
          2    1    5    5  502    0 -0.15946832983E+03  0.39429920357E+03 -0.77838922641E+03  0.88701285106E+03  0.00000000000E+00 0. -1.
          4    1    6    6  503    0  0.24868876794E+02 -0.34030428299E+03 -0.71639557149E+03  0.79350367416E+03  0.00000000000E+00 0.  1.
         -2    1    5    5    0  502  0.56635231915E+00  0.55346862275E+01 -0.55100683732E+02  0.55380852777E+02  0.00000000000E+00 0.  1.
         -4    1    6    6    0  503  0.19907611051E+02 -0.15821131283E+03 -0.21363653529E+03  0.26658526158E+03  0.00000000000E+00 0. -1.
<mgrwt>
<rscale>  0 0.12463788E+04</rscale>
<asrwt>0</asrwt>
<pdfrwt beam="1">  1        2 0.47457834E+00 0.12463788E+04</pdfrwt>
<pdfrwt beam="2">  1       -2 0.19368923E-01 0.12463788E+04</pdfrwt>
<totfact> 0.34733636E+01</totfact>
</mgrwt>
</event>
<event>
12    1  0.4403484E-008  0.1539961E+04  0.7818608E-02  0.8858306E-01
         -1   -1    0    0    0  501 -0.00000000000E+00  0.00000000000E+00  0.24501182455E+03  0.24501182455E+03  0.00000000000E+00 0. -1.
          1   -1    0    0  501    0  0.00000000000E+00 -0.00000000000E+00 -0.24197599452E+04  0.24197599452E+04  0.00000000000E+00 0.  1.
         23    2    1    2    0    0 -0.39419289065E+03  0.22168366555E+03 -0.96729309782E+03  0.10716164425E+04  0.90411172831E+02 0.  0.
        254    2    1    2    0    0  0.39419289065E+03 -0.22168366555E+03 -0.12074550228E+04  0.15931553272E+04  0.93576951325E+03 0.  0.
         23    2    4    4    0    0  0.69710826596E+02 -0.37921379687E+02  0.14380903770E+03  0.18842836726E+03  0.92339481708E+02 0.  0.
         23    2    4    4    0    0  0.32448206406E+03 -0.18376228586E+03 -0.13512640605E+04  0.14047269600E+04  0.91027925295E+02 0.  0.
         11    1    3    3    0    0 -0.14794452740E+02 -0.36500585138E+01 -0.70629830654E+02  0.72254908050E+02  0.00000000000E+00 0. -1.
        -11    1    3    3    0    0 -0.37939843791E+03  0.22533372406E+03 -0.89666326716E+03  0.99936153447E+03  0.00000000000E+00 0.  1.
          3    1    5    5  502    0  0.63749846752E+02 -0.10327009219E+02  0.14646693059E+03  0.16007264550E+03  0.00000000000E+00 0.  1.
          3    1    6    6  503    0  0.15038279039E+03 -0.54775470687E+02 -0.71108307854E+03  0.72887206039E+03  0.00000000000E+00 0. -1.
         -3    1    5    5    0  502  0.59609798449E+01 -0.27594370468E+02 -0.26578928871E+01  0.28355721765E+02  0.00000000000E+00 0. -1.
         -3    1    6    6    0  503  0.17409927367E+03 -0.12898681517E+03 -0.64018098201E+03  0.67585489959E+03  0.00000000000E+00 0.  1.
<mgrwt>
<rscale>  0 0.15399608E+04</rscale>
<asrwt>0</asrwt>
<pdfrwt beam="1">  1        1 0.37227075E+00 0.15399608E+04</pdfrwt>
<pdfrwt beam="2">  1       -1 0.37694127E-01 0.15399608E+04</pdfrwt>
<totfact> 0.10096280E+01</totfact>
</mgrwt>
</event>
<event>
12    1  0.4403484E-008  0.1485578E+04  0.7818608E-02  0.8894100E-01
          1   -1    0    0  501    0  0.00000000000E+00  0.00000000000E+00  0.16434476311E+04  0.16434476311E+04  0.00000000000E+00 0. -1.
         -1   -1    0    0    0  501 -0.00000000000E+00 -0.00000000000E+00 -0.33571841901E+03  0.33571841901E+03  0.00000000000E+00 0.  1.
         23    2    1    2    0    0 -0.21647589858E+03 -0.27739700366E+02  0.95762936772E+03  0.98581293182E+03  0.84509318856E+02 0.  0.
        254    2    1    2    0    0  0.21647589858E+03  0.27739700366E+02  0.35009984438E+03  0.99335311831E+03  0.90363112551E+03 0.  0.
         23    2    4    4    0    0  0.52377095823E+03  0.19609049379E+03  0.21170708950E+03  0.60530835173E+03  0.93759322159E+02 0.  0.
         23    2    4    4    0    0 -0.30729505965E+03 -0.16835079342E+03  0.13839275488E+03  0.38804476659E+03  0.93026571168E+02 0.  0.
         13    1    3    3    0    0 -0.12117756494E+03  0.25036134916E+02  0.56194572277E+03  0.57540751267E+03  0.00000000000E+00 0.  1.
        -13    1    3    3    0    0 -0.95298333644E+02 -0.52775835282E+02  0.39568364495E+03  0.41040541915E+03  0.00000000000E+00 0. -1.
          1    1    6    6  502    0 -0.17117990983E+03 -0.55037428787E+02  0.35706097403E+02  0.18332104486E+03  0.00000000000E+00 0. -1.
          1    1    5    5  503    0  0.29790099491E+03  0.80093204865E+02  0.77314864709E+02  0.31802124542E+03  0.00000000000E+00 0. -1.
         -1    1    5    5    0  503  0.22586996332E+03  0.11599728892E+03  0.13439222479E+03  0.28728710631E+03  0.00000000000E+00 0.  1.
         -1    1    6    6    0  502 -0.13611514982E+03 -0.11331336463E+03  0.10268665748E+03  0.20472372173E+03  0.00000000000E+00 0.  1.
<mgrwt>
<rscale>  0 0.14855782E+04</rscale>
<asrwt>0</asrwt>
<pdfrwt beam="1">  1        1 0.25283809E+00 0.14855782E+04</pdfrwt>
<pdfrwt beam="2">  1       -1 0.51648988E-01 0.14855782E+04</pdfrwt>
<totfact> 0.19034241E+01</totfact>
</mgrwt>
</event>
<event>
12    1  0.4403484E-008  0.1446945E+04  0.7818608E-02  0.8920521E-01
          1   -1    0    0  501    0  0.00000000000E+00  0.00000000000E+00  0.88265662202E+03  0.88265662202E+03  0.00000000000E+00 0. -1.
         -1   -1    0    0    0  501 -0.00000000000E+00 -0.00000000000E+00 -0.59299693978E+03  0.59299693978E+03  0.00000000000E+00 0.  1.
         23    2    1    2    0    0 -0.32231647642E+03 -0.28403804051E+03  0.14422508670E+03  0.46801613990E+03  0.11693037304E+03 0.  0.
        254    2    1    2    0    0  0.32231647642E+03  0.28403804051E+03  0.14543459554E+03  0.10076374219E+04  0.89978688200E+03 0.  0.
         23    2    4    4    0    0 -0.79283100388E+02  0.15964543393E+03 -0.31732743356E+03  0.37585896144E+03  0.93812495039E+02 0.  0.
         23    2    4    4    0    0  0.40159957681E+03  0.12439260657E+03  0.46276202910E+03  0.63177846046E+03  0.90772170113E+02 0.  0.
         11    1    3    3    0    0 -0.33022577064E+03 -0.28459860935E+03  0.13617188941E+03  0.45671458429E+03  0.00000000000E+00 0.  1.
        -11    1    3    3    0    0  0.79092942183E+01  0.56056884373E+00  0.80531972881E+01  0.11301555602E+02  0.00000000000E+00 0. -1.
          2    1    5    5  502    0 -0.43368246807E+02  0.12256152745E+03 -0.13949834659E+03  0.19068802150E+03  0.00000000000E+00 0. -1.
          4    1    6    6  503    0  0.13610980745E+03  0.21059935896E+02  0.20875041785E+03  0.25009225805E+03  0.00000000000E+00 0. -1.
         -2    1    5    5    0  502 -0.35914853581E+02  0.37083906486E+02 -0.17782908697E+03  0.18517093995E+03  0.00000000000E+00 0.  1.
         -4    1    6    6    0  503  0.26548976936E+03  0.10333267068E+03  0.25401161124E+03  0.38168620241E+03  0.00000000000E+00 0.  1.
<mgrwt>
<rscale>  0 0.14469453E+04</rscale>
<asrwt>0</asrwt>
<pdfrwt beam="1">  1        1 0.13579333E+00 0.14469453E+04</pdfrwt>
<pdfrwt beam="2">  1       -1 0.91230298E-01 0.14469453E+04</pdfrwt>
<totfact> 0.21422275E+01</totfact>
</mgrwt>
</event>
<event>
12    1  0.4403484E-008  0.2588720E+04  0.7818608E-02  0.8372043E-01
         -2   -1    0    0    0  501 -0.00000000000E+00  0.00000000000E+00  0.80076014560E+03  0.80076014560E+03  0.00000000000E+00 0.  1.
          2   -1    0    0  501    0  0.00000000000E+00 -0.00000000000E+00 -0.20922214961E+04  0.20922214961E+04  0.00000000000E+00 0. -1.
         23    2    1    2    0    0 -0.57558630147E+03 -0.20288841650E+03 -0.16417740857E+04  0.17538719331E+04  0.90450590436E+02 0.  0.
        254    2    1    2    0    0  0.57558630147E+03  0.20288841650E+03  0.35031273525E+03  0.11391097085E+04  0.89576147251E+03 0.  0.
         23    2    4    4    0    0 -0.11378095004E+03 -0.64500668952E+02 -0.16866091486E+03  0.23107131780E+03  0.88549471028E+02 0.  0.
         23    2    4    4    0    0  0.68936725151E+03  0.26738908545E+03  0.51897365011E+03  0.90803839075E+03  0.92064863500E+02 0.  0.
         11    1    3    3    0    0 -0.76386183337E+02 -0.22500361978E+01 -0.15657591055E+03  0.17422952514E+03  0.00000000000E+00 0.  1.
        -11    1    3    3    0    0 -0.49920011813E+03 -0.20063838030E+03 -0.14851981752E+04  0.15796424080E+04  0.00000000000E+00 0. -1.
          4    1    5    5  502    0  0.10394615872E+02  0.47274522949E+01 -0.31570619407E+02  0.33572322739E+02  0.00000000000E+00 0. -1.
          3    1    6    6  503    0  0.12814384248E+03  0.17879797184E+02  0.68816819922E+02  0.14654789735E+03  0.00000000000E+00 0. -1.
         -4    1    5    5    0  502 -0.12417556592E+03 -0.69228121246E+02 -0.13709029545E+03  0.19749899506E+03  0.00000000000E+00 0.  1.
         -3    1    6    6    0  503  0.56122340903E+03  0.24950928826E+03  0.45015683018E+03  0.76149049340E+03  0.00000000000E+00 0.  1.
<mgrwt>
<rscale>  0 0.25887198E+04</rscale>
<asrwt>0</asrwt>
<pdfrwt beam="1">  1        2 0.32188022E+00 0.25887198E+04</pdfrwt>
<pdfrwt beam="2">  1       -2 0.12319387E+00 0.25887198E+04</pdfrwt>
<totfact> 0.26131408E+00</totfact>
</mgrwt>
</event>
<event>
12    1  0.4403484E-008  0.1540493E+04  0.7818608E-02  0.8857963E-01
          1   -1    0    0  501    0  0.00000000000E+00  0.00000000000E+00  0.32907314104E+04  0.32907314104E+04  0.00000000000E+00 0. -1.
         -1   -1    0    0    0  501 -0.00000000000E+00 -0.00000000000E+00 -0.18028818680E+03  0.18028818680E+03  0.00000000000E+00 0.  1.
         23    2    1    2    0    0  0.36979295295E+03  0.33903563294E+03  0.11043383743E+04  0.12165100993E+04  0.92960143082E+02 0.  0.
        254    2    1    2    0    0 -0.36979295295E+03 -0.33903563294E+03  0.20061048493E+04  0.22545094980E+04  0.89814498910E+03 0.  0.
         23    2    4    4    0    0 -0.47223027176E+03  0.21426796848E+02  0.16893920644E+04  0.17564879489E+04  0.87999034775E+02 0.  0.
         23    2    4    4    0    0  0.10243731881E+03 -0.36046242979E+03  0.31671278488E+03  0.49802154904E+03  0.85392667268E+02 0.  0.
         11    1    3    3    0    0  0.29808900209E+03  0.26675710498E+03  0.78040841898E+03  0.87695707229E+03  0.00000000000E+00 0.  1.
        -11    1    3    3    0    0  0.71703950866E+02  0.72278527956E+02  0.32392995532E+03  0.33955302697E+03  0.00000000000E+00 0. -1.
          2    1    5    5  502    0 -0.22977593966E+03 -0.11487748872E+01  0.97597725204E+03  0.10026614078E+04  0.00000000000E+00 0. -1.
          4    1    6    6  503    0  0.81643974141E+01 -0.12776910225E+03  0.69507581260E+02  0.14568083171E+03  0.00000000000E+00 0. -1.
         -2    1    5    5    0  502 -0.24245433210E+03  0.22575571735E+02  0.71341481241E+03  0.75382654116E+03  0.00000000000E+00 0.  1.
         -4    1    6    6    0  503  0.94272921392E+02 -0.23269332754E+03  0.24720520362E+03  0.35234071733E+03  0.00000000000E+00 0.  1.
<mgrwt>
<rscale>  0 0.15404934E+04</rscale>
<asrwt>0</asrwt>
<pdfrwt beam="1">  1        1 0.50626633E+00 0.15404934E+04</pdfrwt>
<pdfrwt beam="2">  1       -1 0.27736647E-01 0.15404934E+04</pdfrwt>
<totfact> 0.41309956E+00</totfact>
</mgrwt>
</event>
<event>
12    1  0.4403484E-008  0.4810046E+04  0.7818608E-02  0.7858497E-01
         -1   -1    0    0    0  501 -0.00000000000E+00  0.00000000000E+00  0.20411284194E+04  0.20411284194E+04  0.00000000000E+00 0.  1.
          1   -1    0    0  501    0  0.00000000000E+00 -0.00000000000E+00 -0.28337931695E+04  0.28337931695E+04  0.00000000000E+00 0. -1.
         23    2    1    2    0    0 -0.17478094176E+04 -0.14665090279E+04 -0.86885811330E+03  0.24430911736E+04  0.91069052608E+02 0.  0.
        254    2    1    2    0    0  0.17478094176E+04  0.14665090279E+04  0.76193363188E+02  0.24318304153E+04  0.83815705626E+03 0.  0.
         23    2    4    4    0    0  0.17729097768E+04  0.12765606086E+04 -0.45002618931E+02  0.21869334137E+04  0.88523761983E+02 0.  0.
         23    2    4    4    0    0 -0.25100359196E+02  0.18994841932E+03  0.12119598212E+03  0.24489700154E+03  0.92604779826E+02 0.  0.
         11    1    3    3    0    0 -0.11958505882E+04 -0.98163222095E+03 -0.54700747352E+03  0.16409989709E+04  0.00000000000E+00 0.  1.
        -11    1    3    3    0    0 -0.55195882942E+03 -0.48487680692E+03 -0.32185063977E+03  0.80209220267E+03  0.00000000000E+00 0. -1.
          1    1    6    6  502    0  0.25658667620E+01  0.50817105210E+02  0.84062037039E+02  0.98261833513E+02  0.00000000000E+00 0. -1.
          1    1    5    5  503    0  0.14182014061E+04  0.10631476363E+04 -0.42843902964E+02  0.17729674912E+04  0.00000000000E+00 0. -1.
         -1    1    5    5    0  503  0.35470837064E+03  0.21341297225E+03 -0.21587159666E+01  0.41396592249E+03  0.00000000000E+00 0.  1.
         -1    1    6    6    0  502 -0.27666225958E+02  0.13913131411E+03  0.37133945080E+02  0.14663516802E+03  0.00000000000E+00 0.  1.
<mgrwt>
<rscale>  0 0.48100461E+04</rscale>
<asrwt>0</asrwt>
<pdfrwt beam="1">  1        1 0.43596817E+00 0.48100461E+04</pdfrwt>
<pdfrwt beam="2">  1       -1 0.31401976E+00 0.48100461E+04</pdfrwt>
<totfact> 0.15468722E-02</totfact>
</mgrwt>
</event>
<event>
12    1  0.4403484E-008  0.1788453E+04  0.7818608E-02  0.8712464E-01
         -1   -1    0    0    0  501 -0.00000000000E+00  0.00000000000E+00  0.15514553919E+04  0.15514553919E+04  0.00000000000E+00 0.  1.
          1   -1    0    0  501    0  0.00000000000E+00 -0.00000000000E+00 -0.51541322643E+03  0.51541322643E+03  0.00000000000E+00 0. -1.
         23    2    1    2    0    0 -0.28421659518E+03  0.44150828107E+03  0.87729271270E+03  0.10266043051E+04  0.92548691528E+02 0.  0.
        254    2    1    2    0    0  0.28421659518E+03 -0.44150828107E+03  0.15874945275E+03  0.10402643132E+04  0.88387771627E+03 0.  0.
         23    2    4    4    0    0  0.51526004907E+03 -0.15220163338E+02  0.15813134426E+03  0.54678928107E+03  0.90820836327E+02 0.  0.
         23    2    4    4    0    0 -0.23104345389E+03 -0.42628811774E+03  0.61810849592E+00  0.49347503212E+03  0.91731065401E+02 0.  0.
         11    1    3    3    0    0 -0.18840981701E+03  0.32705523957E+03  0.55204046271E+03  0.66873915793E+03  0.00000000000E+00 0.  1.
        -11    1    3    3    0    0 -0.95806778171E+02  0.11445304151E+03  0.32525224999E+03  0.35786514720E+03  0.00000000000E+00 0. -1.
          4    1    5    5  502    0  0.36667028853E+02  0.29034424678E+01  0.38274867837E+02  0.53083580239E+02  0.00000000000E+00 0. -1.
          3    1    6    6  503    0 -0.10385029999E+03 -0.26706926902E+03  0.27751265818E+02  0.28789062510E+03  0.00000000000E+00 0. -1.
         -4    1    5    5    0  502  0.47859302022E+03 -0.18123605806E+02  0.11985647642E+03  0.49370570083E+03  0.00000000000E+00 0.  1.
         -3    1    6    6    0  503 -0.12719315390E+03 -0.15921884871E+03 -0.27133157322E+02  0.20558440703E+03  0.00000000000E+00 0.  1.
<mgrwt>
<rscale>  0 0.17884525E+04</rscale>
<asrwt>0</asrwt>
<pdfrwt beam="1">  1        1 0.79294343E-01 0.17884525E+04</pdfrwt>
<pdfrwt beam="2">  1       -1 0.23868544E+00 0.17884525E+04</pdfrwt>
<totfact> 0.33194222E+00</totfact>
</mgrwt>
</event>
<event>
12    1  0.4403484E-008  0.1557141E+04  0.7818608E-02  0.8847319E-01
         -1   -1    0    0    0  501 -0.00000000000E+00  0.00000000000E+00  0.28551061996E+03  0.28551061996E+03  0.00000000000E+00 0.  1.
          1   -1    0    0  501    0  0.00000000000E+00 -0.00000000000E+00 -0.21231167998E+04  0.21231167998E+04  0.00000000000E+00 0. -1.
         23    2    1    2    0    0 -0.17231825349E+03  0.34796482662E+03 -0.11067633022E+04  0.11765329055E+04  0.92366496203E+02 0.  0.
        254    2    1    2    0    0  0.17231825349E+03 -0.34796482662E+03 -0.73084287759E+03  0.12320945142E+04  0.91277186586E+03 0.  0.
         23    2    4    4    0    0 -0.26248896967E+03  0.15189708604E+03 -0.17143187885E+03  0.35988834483E+03  0.90319143679E+02 0.  0.
         23    2    4    4    0    0  0.43480722316E+03 -0.49986191266E+03 -0.55941099874E+03  0.87220616935E+03  0.94253293302E+02 0.  0.
         11    1    3    3    0    0 -0.12694576486E+02  0.11943402240E+03 -0.31389283473E+03  0.33608681865E+03  0.00000000000E+00 0.  1.
        -11    1    3    3    0    0 -0.15962367700E+03  0.22853080422E+03 -0.79287046748E+03  0.84044608687E+03  0.00000000000E+00 0. -1.
          1    1    5    5  502    0 -0.20928963908E+03  0.12716296550E+03 -0.93034315416E+02  0.26196938116E+03  0.00000000000E+00 0. -1.
          3    1    6    6  503    0  0.35299687698E+03 -0.43959633741E+03 -0.50529312521E+03  0.75708181685E+03  0.00000000000E+00 0. -1.
         -1    1    5    5    0  502 -0.53199330587E+02  0.24734120540E+02 -0.78397563434E+02  0.97918963670E+02  0.00000000000E+00 0.  1.
         -3    1    6    6    0  503  0.81810346187E+02 -0.60265575246E+02 -0.54117873534E+02  0.11512435250E+03  0.00000000000E+00 0.  1.
<mgrwt>
<rscale>  0 0.15571415E+04</rscale>
<asrwt>0</asrwt>
<pdfrwt beam="1">  1        1 0.32663333E+00 0.15571415E+04</pdfrwt>
<pdfrwt beam="2">  1       -1 0.43924714E-01 0.15571415E+04</pdfrwt>
<totfact> 0.12135405E+01</totfact>
</mgrwt>
</event>
<event>
12    1  0.4403484E-008  0.1165475E+04  0.7818608E-02  0.9143625E-01
         -1   -1    0    0    0  501 -0.00000000000E+00  0.00000000000E+00  0.41866663408E+03  0.41866663408E+03  0.00000000000E+00 0.  1.
          1   -1    0    0  501    0  0.00000000000E+00 -0.00000000000E+00 -0.81110607527E+03  0.81110607527E+03  0.00000000000E+00 0. -1.
         23    2    1    2    0    0  0.34707169648E+02 -0.19478367568E+03  0.21811712053E+02  0.21914306128E+03  0.91666038361E+02 0.  0.
        254    2    1    2    0    0 -0.34707169648E+02  0.19478367568E+03 -0.41425115324E+03  0.10106296481E+04  0.90034604439E+03 0.  0.
         23    2    4    4    0    0 -0.17224286823E+03  0.43644350184E+03  0.29626050491E+02  0.47871247664E+03  0.90207518897E+02 0.  0.
         23    2    4    4    0    0  0.13753569858E+03 -0.24165982617E+03 -0.44387720373E+03  0.53191717143E+03  0.92700406147E+02 0.  0.
         13    1    3    3    0    0  0.40298136561E+02 -0.13351437988E+03  0.54187498262E+02  0.14962056815E+03  0.00000000000E+00 0. -1.
        -13    1    3    3    0    0 -0.55909669136E+01 -0.61269295795E+02 -0.32375786209E+02  0.69522493129E+02  0.00000000000E+00 0.  1.
          1    1    5    5  502    0  0.38346720666E+01  0.69157435941E+02 -0.77212318698E+01  0.69692704621E+02  0.00000000000E+00 0. -1.
          3    1    6    6  503    0  0.12502771892E+02 -0.10423842877E+03 -0.19338795603E+03  0.22004742869E+03  0.00000000000E+00 0. -1.
         -1    1    5    5    0  502 -0.17607754029E+03  0.36728606590E+03  0.37347282361E+02  0.40901977202E+03  0.00000000000E+00 0.  1.
         -3    1    6    6    0  503  0.12503292669E+03 -0.13742139739E+03 -0.25048924770E+03  0.31186974273E+03  0.00000000000E+00 0.  1.
<mgrwt>
<rscale>  0 0.11654751E+04</rscale>
<asrwt>0</asrwt>
<pdfrwt beam="1">  1        1 0.12478555E+00 0.11654751E+04</pdfrwt>
<pdfrwt beam="2">  1       -1 0.64410253E-01 0.11654751E+04</pdfrwt>
<totfact> 0.52444746E+01</totfact>
</mgrwt>
</event>
<event>
12    1  0.4403484E-008  0.1114223E+04  0.7818608E-02  0.9191439E-01
         -1   -1    0    0    0  501 -0.00000000000E+00  0.00000000000E+00  0.14989018141E+03  0.14989018141E+03  0.00000000000E+00 0.  1.
          1   -1    0    0  501    0  0.00000000000E+00 -0.00000000000E+00 -0.20706689523E+04  0.20706689523E+04  0.00000000000E+00 0. -1.
         23    2    1    2    0    0  0.15355726691E+03  0.79192807555E+02 -0.41066002960E+03  0.45496210946E+03  0.92182027247E+02 0.  0.
        254    2    1    2    0    0 -0.15355726691E+03 -0.79192807555E+02 -0.15101187413E+04  0.17655970243E+04  0.89834453537E+03 0.  0.
         23    2    4    4    0    0  0.21537259636E+03  0.84571084756E+02 -0.12546278466E+04  0.12790125798E+04  0.90799351329E+02 0.  0.
         23    2    4    4    0    0 -0.36892986326E+03 -0.16376389231E+03 -0.25549089477E+03  0.48658444451E+03  0.92525498634E+02 0.  0.
         13    1    3    3    0    0  0.12043854489E+03  0.44070309609E+02 -0.37081902913E+03  0.39237021758E+03  0.00000000000E+00 0.  1.
        -13    1    3    3    0    0  0.33118722021E+02  0.35122497946E+02 -0.39841000468E+02  0.62591891876E+02  0.00000000000E+00 0. -1.
          4    1    5    5  502    0  0.76723090234E+02  0.23594342458E+02 -0.68138703506E+03  0.68609869342E+03  0.00000000000E+00 0. -1.
          1    1    6    6  503    0 -0.21668181046E+03 -0.11961701742E+03 -0.10793268538E+03  0.27001611510E+03  0.00000000000E+00 0. -1.
         -4    1    5    5    0  502  0.13864950612E+03  0.60976742298E+02 -0.57324081150E+03  0.59291388634E+03  0.00000000000E+00 0.  1.
         -1    1    6    6    0  503 -0.15224805281E+03 -0.44146874888E+02 -0.14755820939E+03  0.21656832941E+03  0.00000000000E+00 0.  1.
<mgrwt>
<rscale>  0 0.11142225E+04</rscale>
<asrwt>0</asrwt>
<pdfrwt beam="1">  1        1 0.31856444E+00 0.11142225E+04</pdfrwt>
<pdfrwt beam="2">  1       -1 0.23060029E-01 0.11142225E+04</pdfrwt>
<totfact> 0.42865052E+01</totfact>
</mgrwt>
</event>
<event>
12    1  0.4403484E-008  0.1977158E+04  0.7818608E-02  0.8617375E-01
         -2   -1    0    0    0  501 -0.00000000000E+00  0.00000000000E+00  0.49933421173E+03  0.49933421173E+03  0.00000000000E+00 0. -1.
          2   -1    0    0  501    0  0.00000000000E+00 -0.00000000000E+00 -0.19571823886E+04  0.19571823886E+04  0.00000000000E+00 0.  1.
         23    2    1    2    0    0  0.63454162158E+03  0.15275402621E+03 -0.58854995763E+02  0.66103073686E+03  0.86722906441E+02 0.  0.
        254    2    1    2    0    0 -0.63454162158E+03 -0.15275402621E+03 -0.13989931811E+04  0.17954858634E+04  0.91684824430E+03 0.  0.
         23    2    4    4    0    0 -0.79324736055E+03 -0.32373492282E+03 -0.11891047440E+04  0.14684853639E+04  0.91834071137E+02 0.  0.
         23    2    4    4    0    0  0.15870573897E+03  0.17098089661E+03 -0.20988843709E+03  0.32700049952E+03  0.91946680593E+02 0.  0.
         11    1    3    3    0    0  0.75955240120E+01 -0.81316076126E+01 -0.36330862212E+00  0.11133149623E+02  0.00000000000E+00 0.  1.
        -11    1    3    3    0    0  0.62694609757E+03  0.16088563383E+03 -0.58491687141E+02  0.64989758723E+03  0.00000000000E+00 0. -1.
          3    1    5    5  502    0 -0.58561715951E+03 -0.21482583025E+03 -0.80367606610E+03  0.10173459658E+04  0.00000000000E+00 0. -1.
          3    1    6    6  503    0  0.15643689360E+03  0.11506028031E+03 -0.17201474478E+03  0.25942328771E+03  0.00000000000E+00 0. -1.
         -3    1    5    5    0  502 -0.20763020104E+03 -0.10890909257E+03 -0.38542867787E+03  0.45113939814E+03  0.00000000000E+00 0.  1.
         -3    1    6    6    0  503  0.22688453743E+01  0.55920616299E+02 -0.37873692311E+02  0.67577211809E+02  0.00000000000E+00 0.  1.
<mgrwt>
<rscale>  0 0.19771577E+04</rscale>
<asrwt>0</asrwt>
<pdfrwt beam="1">  1        2 0.30110499E+00 0.19771577E+04</pdfrwt>
<pdfrwt beam="2">  1       -2 0.76820647E-01 0.19771577E+04</pdfrwt>
<totfact> 0.99437843E+00</totfact>
</mgrwt>
</event>
<event>
12    1  0.4403484E-008  0.2183870E+04  0.7818608E-02  0.8525172E-01
          2   -1    0    0  501    0  0.00000000000E+00  0.00000000000E+00  0.32530957311E+04  0.32530957311E+04  0.00000000000E+00 0. -1.
         -2   -1    0    0    0  501 -0.00000000000E+00 -0.00000000000E+00 -0.36651907219E+03  0.36651907219E+03  0.00000000000E+00 0.  1.
         23    2    1    2    0    0  0.43152787267E+03 -0.79311107361E+03  0.12254405311E+04  0.15248473402E+04  0.90628007014E+02 0.  0.
        254    2    1    2    0    0 -0.43152787267E+03  0.79311107361E+03  0.16611361278E+04  0.20947674631E+04  0.90190687400E+03 0.  0.
         23    2    4    4    0    0  0.35153407731E+02  0.25877135915E+03 -0.10199303873E+02  0.27682016628E+03  0.91252398679E+02 0.  0.
         23    2    4    4    0    0 -0.46668128040E+03  0.53433971446E+03  0.16713354317E+04  0.18179472968E+04  0.90883996929E+02 0.  0.
         11    1    3    3    0    0  0.35129926045E+03 -0.70826382380E+03  0.10740934463E+04  0.13336886990E+04  0.00000000000E+00 0.  1.
        -11    1    3    3    0    0  0.80228612224E+02 -0.84847249812E+02  0.15134708480E+03  0.19115864118E+03  0.00000000000E+00 0. -1.
          4    1    5    5  502    0  0.64318711389E+02  0.13933342200E+03 -0.11178682939E+02  0.15386897697E+03  0.00000000000E+00 0. -1.
          3    1    6    6  503    0 -0.41345279098E+03  0.48522667714E+03  0.15588581603E+04  0.16841694994E+04  0.00000000000E+00 0. -1.
         -4    1    5    5    0  502 -0.29165303658E+02  0.11943793715E+03  0.97937906671E+00  0.12295118931E+03  0.00000000000E+00 0.  1.
         -3    1    6    6    0  503 -0.53228489420E+02  0.49113037316E+02  0.11247727137E+03  0.13377779747E+03  0.00000000000E+00 0.  1.
<mgrwt>
<rscale>  0 0.21838696E+04</rscale>
<asrwt>0</asrwt>
<pdfrwt beam="1">  1        2 0.50047625E+00 0.21838696E+04</pdfrwt>
<pdfrwt beam="2">  1       -2 0.56387552E-01 0.21838696E+04</pdfrwt>
<totfact> 0.32402778E+00</totfact>
</mgrwt>
</event>
<event>
12    1  0.4403484E-008  0.1543855E+04  0.7818608E-02  0.8855802E-01
         -2   -1    0    0    0  501 -0.00000000000E+00  0.00000000000E+00  0.48054892675E+03  0.48054892675E+03  0.00000000000E+00 0.  1.
          2   -1    0    0  501    0  0.00000000000E+00 -0.00000000000E+00 -0.12399818986E+04  0.12399818986E+04  0.00000000000E+00 0. -1.
         23    2    1    2    0    0 -0.17210514659E+03  0.26538783074E+03 -0.68688640857E+03  0.76168105627E+03  0.91072559033E+02 0.  0.
        254    2    1    2    0    0  0.17210514659E+03 -0.26538783074E+03 -0.72546563250E+02  0.95884976906E+03  0.90226326181E+03 0.  0.
         23    2    4    4    0    0  0.45390935054E+03 -0.41589650611E+03 -0.31959124634E+02  0.62379881318E+03  0.95393770109E+02 0.  0.
         23    2    4    4    0    0 -0.28180420395E+03  0.15050867537E+03 -0.40587438616E+02  0.33505095588E+03  0.92440965691E+02 0.  0.
         11    1    3    3    0    0 -0.26236416516E+02  0.12131486568E+03 -0.25550704203E+03  0.28405896344E+03  0.00000000000E+00 0. -1.
        -11    1    3    3    0    0 -0.14586873008E+03  0.14407296506E+03 -0.43137936654E+03  0.47762209283E+03  0.00000000000E+00 0.  1.
          2    1    5    5  502    0  0.42119273918E+03 -0.35007342716E+03 -0.43443706490E+02  0.54940156860E+03  0.00000000000E+00 0. -1.
          4    1    6    6  503    0 -0.22005151776E+03  0.69913195164E+02 -0.23404898407E+02  0.23207394209E+03  0.00000000000E+00 0. -1.
         -2    1    5    5    0  502  0.32716611358E+02 -0.65823078950E+02  0.11484581856E+02  0.74397244583E+02  0.00000000000E+00 0.  1.
         -4    1    6    6    0  503 -0.61752686186E+02  0.80595480211E+02 -0.17182540209E+02  0.10297701379E+03  0.00000000000E+00 0.  1.
<mgrwt>
<rscale>  0 0.15438549E+04</rscale>
<asrwt>0</asrwt>
<pdfrwt beam="1">  1        2 0.19076644E+00 0.15438549E+04</pdfrwt>
<pdfrwt beam="2">  1       -2 0.73930605E-01 0.15438549E+04</pdfrwt>
<totfact> 0.28466996E+01</totfact>
</mgrwt>
</event>
<event>
12    1  0.4403484E-008  0.1905521E+04  0.7818608E-02  0.8652113E-01
         -1   -1    0    0    0  501 -0.00000000000E+00  0.00000000000E+00  0.47452317575E+03  0.47452317575E+03  0.00000000000E+00 0.  1.
          1   -1    0    0  501    0  0.00000000000E+00 -0.00000000000E+00 -0.19129786296E+04  0.19129786296E+04  0.00000000000E+00 0. -1.
         23    2    1    2    0    0  0.28168895310E+03  0.35491564236E+02 -0.14807540099E+04  0.15106212244E+04  0.93465118538E+02 0.  0.
        254    2    1    2    0    0 -0.28168895310E+03 -0.35491564236E+02  0.42298556030E+02  0.87688058096E+03  0.82856627254E+03 0.  0.
         23    2    4    4    0    0  0.28476224005E+03  0.16180665842E+02  0.99236685108E+01  0.29967605344E+03  0.91410669517E+02 0.  0.
         23    2    4    4    0    0 -0.56645119314E+03 -0.51672230078E+02  0.32374887520E+02  0.57720452752E+03  0.92628071730E+02 0.  0.
         13    1    3    3    0    0 -0.70608297581E+01  0.23117554468E+01 -0.58716847646E+02  0.59185029591E+02  0.00000000000E+00 0.  1.
        -13    1    3    3    0    0  0.28874978285E+03  0.33179808789E+02 -0.14220371622E+04  0.14514361948E+04  0.00000000000E+00 0. -1.
          1    1    5    5  502    0  0.12734299048E+03  0.52381683367E+02 -0.19808822194E+01  0.13770984668E+03  0.00000000000E+00 0. -1.
          3    1    6    6  503    0 -0.22443125948E+03 -0.60910399555E+02 -0.79892759945E+01  0.23268711940E+03  0.00000000000E+00 0. -1.
         -1    1    5    5    0  502  0.15741924957E+03 -0.36201017526E+02  0.11904550730E+02  0.16196620676E+03  0.00000000000E+00 0.  1.
         -3    1    6    6    0  503 -0.34201993367E+03  0.92381694770E+01  0.40364163514E+02  0.34451740812E+03  0.00000000000E+00 0.  1.
<mgrwt>
<rscale>  0 0.19055211E+04</rscale>
<asrwt>0</asrwt>
<pdfrwt beam="1">  1        1 0.29430441E+00 0.19055211E+04</pdfrwt>
<pdfrwt beam="2">  1       -1 0.73003565E-01 0.19055211E+04</pdfrwt>
<totfact> 0.60388894E+00</totfact>
</mgrwt>
</event>
<event>
12    1  0.4403484E-008  0.1375481E+04  0.7818608E-02  0.8971761E-01
          2   -1    0    0  501    0  0.00000000000E+00  0.00000000000E+00  0.32312665293E+04  0.32312665293E+04  0.00000000000E+00 0. -1.
         -2   -1    0    0    0  501 -0.00000000000E+00 -0.00000000000E+00 -0.14637815827E+03  0.14637815827E+03  0.00000000000E+00 0.  1.
         23    2    1    2    0    0  0.11724830305E+03 -0.19588424329E+03  0.15923238159E+03  0.29275797224E+03  0.90744022526E+02 0.  0.
        254    2    1    2    0    0 -0.11724830305E+03  0.19588424329E+03  0.29256559894E+04  0.30848867153E+04  0.95128611710E+03 0.  0.
         23    2    4    4    0    0  0.14563728281E+03  0.51142335955E+03  0.19140476064E+04  0.19885427011E+04  0.89217509200E+02 0.  0.
         23    2    4    4    0    0 -0.26288558587E+03 -0.31553911625E+03  0.10116083830E+04  0.10963440142E+04  0.99724177794E+02 0.  0.
         11    1    3    3    0    0  0.25281828931E+02 -0.55731680156E+02  0.95486203654E+02  0.11341431186E+03  0.00000000000E+00 0. -1.
        -11    1    3    3    0    0  0.91966474122E+02 -0.14015256314E+03  0.63746177939E+02  0.17934366038E+03  0.00000000000E+00 0.  1.
          4    1    5    5  502    0  0.15698187119E+03  0.46808570697E+03  0.17251039287E+04  0.17943609174E+04  0.00000000000E+00 0. -1.
          1    1    6    6  503    0 -0.23644319070E+03 -0.27260647402E+03  0.78172398615E+03  0.86099480987E+03  0.00000000000E+00 0. -1.
         -4    1    5    5    0  502 -0.11344588376E+02  0.43337652576E+02  0.18894367764E+03  0.19418178374E+03  0.00000000000E+00 0.  1.
         -1    1    6    6    0  503 -0.26442395167E+02 -0.42932642230E+02  0.22988439690E+03  0.23534920431E+03  0.00000000000E+00 0.  1.
<mgrwt>
<rscale>  0 0.13754808E+04</rscale>
<asrwt>0</asrwt>
<pdfrwt beam="1">  1        2 0.49711787E+00 0.13754808E+04</pdfrwt>
<pdfrwt beam="2">  1       -2 0.22519719E-01 0.13754808E+04</pdfrwt>
<totfact> 0.21165122E+01</totfact>
</mgrwt>
</event>
<event>
12    1  0.4403484E-008  0.1944264E+04  0.7818608E-02  0.8633132E-01
         -2   -1    0    0    0  501 -0.00000000000E+00  0.00000000000E+00  0.62134019269E+03  0.62134019269E+03  0.00000000000E+00 0.  1.
          2   -1    0    0  501    0  0.00000000000E+00 -0.00000000000E+00 -0.15209707138E+04  0.15209707138E+04  0.00000000000E+00 0. -1.
         23    2    1    2    0    0  0.22202458392E+02 -0.22345543565E+02  0.48435527666E+03  0.49360440626E+03  0.89738527837E+02 0.  0.
        254    2    1    2    0    0 -0.22202458392E+02  0.22345543565E+02 -0.13839857978E+04  0.16487065002E+04  0.89544634849E+03 0.  0.
         23    2    4    4    0    0 -0.15904147844E+03 -0.59237753462E+02  0.53484078956E+02  0.19962003533E+03  0.90467168091E+02 0.  0.
         23    2    4    4    0    0  0.13683902005E+03  0.81583297027E+02 -0.14374698767E+04  0.14490864649E+04  0.90283910744E+02 0.  0.
         13    1    3    3    0    0  0.56365859750E+02 -0.22161233432E+02  0.33022668451E+03  0.33573485606E+03  0.00000000000E+00 0.  1.
        -13    1    3    3    0    0 -0.34163401358E+02 -0.18431013302E+00  0.15412859215E+03  0.15786955020E+03  0.00000000000E+00 0. -1.
          1    1    5    5  502    0 -0.15194710253E+03 -0.77376792256E+02  0.57078880642E+02  0.17981403883E+03  0.00000000000E+00 0. -1.
          3    1    6    6  503    0  0.12448230938E+03  0.10021527025E+03 -0.12067024100E+04  0.12172385354E+04  0.00000000000E+00 0. -1.
         -1    1    5    5    0  502 -0.70943759125E+01  0.18139038793E+02 -0.35948016855E+01  0.19805996493E+02  0.00000000000E+00 0.  1.
         -3    1    6    6    0  503  0.12356710665E+02 -0.18631973224E+02 -0.23076746674E+03  0.23184792954E+03  0.00000000000E+00 0.  1.
<mgrwt>
<rscale>  0 0.19442636E+04</rscale>
<asrwt>0</asrwt>
<pdfrwt beam="1">  1        2 0.23399549E+00 0.19442636E+04</pdfrwt>
<pdfrwt beam="2">  1       -2 0.95590801E-01 0.19442636E+04</pdfrwt>
<totfact> 0.10590067E+01</totfact>
</mgrwt>
</event>
<event>
12    1  0.4403484E-008  0.2513838E+04  0.7818608E-02  0.8398072E-01
          2   -1    0    0  501    0  0.00000000000E+00  0.00000000000E+00  0.64091988383E+03  0.64091988383E+03  0.00000000000E+00 0. -1.
         -2   -1    0    0    0  501 -0.00000000000E+00 -0.00000000000E+00 -0.24649658017E+04  0.24649658017E+04  0.00000000000E+00 0.  1.
         23    2    1    2    0    0 -0.29298613065E+03 -0.27559039070E+03  0.46143077959E+03  0.62017981756E+03  0.99567592877E+02 0.  0.
        254    2    1    2    0    0  0.29298613065E+03  0.27559039070E+03 -0.22854766974E+04  0.24857058679E+04  0.89080805519E+03 0.  0.
         23    2    4    4    0    0 -0.23987396581E+03 -0.12058241872E+03 -0.45578191243E+03  0.53721936567E+03  0.93743564936E+02 0.  0.
         23    2    4    4    0    0  0.53286009646E+03  0.39617280942E+03 -0.18296947850E+04  0.19484865023E+04  0.89016099443E+02 0.  0.
         13    1    3    3    0    0 -0.43648935301E+02 -0.13336980765E+01  0.45794435686E+02  0.63278263592E+02  0.00000000000E+00 0.  1.
        -13    1    3    3    0    0 -0.24933719535E+03 -0.27425669262E+03  0.41563634391E+03  0.55690155397E+03  0.00000000000E+00 0. -1.
          4    1    5    5  502    0 -0.23551873341E+03 -0.10353196704E+03 -0.37647828691E+03  0.45598666921E+03  0.00000000000E+00 0. -1.
          1    1    6    6  503    0  0.39843451744E+03  0.34156829362E+03 -0.14422563693E+04  0.15347711226E+04  0.00000000000E+00 0. -1.
         -4    1    5    5    0  502 -0.43552324031E+01 -0.17050451687E+02 -0.79303625529E+02  0.81232696459E+02  0.00000000000E+00 0.  1.
         -1    1    6    6    0  503  0.13442557902E+03  0.54604515799E+02 -0.38743841570E+03  0.41371537970E+03  0.00000000000E+00 0.  1.
<mgrwt>
<rscale>  0 0.25138382E+04</rscale>
<asrwt>0</asrwt>
<pdfrwt beam="1">  1        2 0.98603059E-01 0.25138382E+04</pdfrwt>
<pdfrwt beam="2">  1       -2 0.37922551E+00 0.25138382E+04</pdfrwt>
<totfact> 0.41299198E-01</totfact>
</mgrwt>
</event>
<event>
12    1  0.4403484E-008  0.2093963E+04  0.7818608E-02  0.8563907E-01
          2   -1    0    0  501    0  0.00000000000E+00  0.00000000000E+00  0.12387672638E+04  0.12387672638E+04  0.00000000000E+00 0. -1.
         -2   -1    0    0    0  501 -0.00000000000E+00 -0.00000000000E+00 -0.88488796351E+03  0.88488796351E+03  0.00000000000E+00 0.  1.
         23    2    1    2    0    0  0.22074271288E+03  0.49469250424E+03 -0.52520376687E+03  0.76018938213E+03  0.92740934460E+02 0.  0.
        254    2    1    2    0    0 -0.22074271288E+03 -0.49469250424E+03  0.87908306716E+03  0.13634658452E+04  0.89039544752E+03 0.  0.
         23    2    4    4    0    0  0.15524553449E+03 -0.61111004883E+02 -0.10858465871E+03  0.21780689570E+03  0.88393918408E+02 0.  0.
         23    2    4    4    0    0 -0.37598824737E+03 -0.43358149936E+03  0.98766772587E+03  0.11456589495E+04  0.87674472028E+02 0.  0.
         11    1    3    3    0    0  0.14278132669E+03  0.20806206108E+03 -0.25157953893E+03  0.35632652570E+03  0.00000000000E+00 0. -1.
        -11    1    3    3    0    0  0.77961386191E+02  0.28663044316E+03 -0.27362422794E+03  0.40386285643E+03  0.00000000000E+00 0.  1.
          1    1    5    5  502    0  0.13732253722E+03 -0.24827351954E+02 -0.10941588960E+03  0.17732939274E+03  0.00000000000E+00 0. -1.
          3    1    6    6  503    0 -0.32617130862E+03 -0.41334787303E+03  0.88608614242E+03  0.10307244241E+04  0.00000000000E+00 0. -1.
         -1    1    5    5    0  502  0.17922997267E+02 -0.36283652928E+02  0.83123089020E+00  0.40477502957E+02  0.00000000000E+00 0.  1.
         -3    1    6    6    0  503 -0.49816938749E+02 -0.20233626324E+02  0.10158158345E+03  0.11493452535E+03  0.00000000000E+00 0.  1.
<mgrwt>
<rscale>  0 0.20939630E+04</rscale>
<asrwt>0</asrwt>
<pdfrwt beam="1">  1        2 0.19057958E+00 0.20939630E+04</pdfrwt>
<pdfrwt beam="2">  1       -2 0.13613661E+00 0.20939630E+04</pdfrwt>
<totfact> 0.63951048E+00</totfact>
</mgrwt>
</event>
<event>
12    1  0.4403484E-008  0.1600822E+04  0.7818608E-02  0.8820043E-01
         -1   -1    0    0    0  501 -0.00000000000E+00  0.00000000000E+00  0.75754606343E+03  0.75754606343E+03  0.00000000000E+00 0.  1.
          1   -1    0    0  501    0  0.00000000000E+00 -0.00000000000E+00 -0.84570158000E+03  0.84570158000E+03  0.00000000000E+00 0. -1.
         23    2    1    2    0    0 -0.31275278574E+03  0.40154087943E+03  0.14777489133E+03  0.53783168594E+03  0.91521150852E+02 0.  0.
        254    2    1    2    0    0  0.31275278574E+03 -0.40154087943E+03 -0.23593040790E+03  0.10654159575E+04  0.90575858938E+03 0.  0.
         23    2    4    4    0    0 -0.22067720518E+03 -0.41537608585E+03 -0.20942990763E+03  0.52322310387E+03  0.93090325111E+02 0.  0.
         23    2    4    4    0    0  0.53342999092E+03  0.13835206421E+02 -0.26500500266E+02  0.54219285361E+03  0.92367991438E+02 0.  0.
         13    1    3    3    0    0 -0.27568938603E+03  0.32341920627E+03  0.15179109173E+03  0.45127060183E+03  0.00000000000E+00 0.  1.
        -13    1    3    3    0    0 -0.37063399717E+02  0.78121673160E+02 -0.40162004067E+01  0.86561084106E+02  0.00000000000E+00 0. -1.
          2    1    5    5  502    0 -0.21996611266E+03 -0.37089024698E+03 -0.16913562458E+03  0.46319706986E+03  0.00000000000E+00 0. -1.
          4    1    6    6  503    0  0.41863065576E+03  0.46487030036E+02 -0.34215264188E+02  0.42259123774E+03  0.00000000000E+00 0. -1.
         -2    1    5    5    0  502 -0.71109252018E+00 -0.44485838870E+02 -0.40294283046E+02  0.60026034008E+02  0.00000000000E+00 0.  1.
         -4    1    6    6    0  503  0.11479933516E+03 -0.32651823615E+02  0.77147639221E+01  0.11960161588E+03  0.00000000000E+00 0.  1.
<mgrwt>
<rscale>  0 0.16008222E+04</rscale>
<asrwt>0</asrwt>
<pdfrwt beam="1">  1        1 0.13010794E+00 0.16008222E+04</pdfrwt>
<pdfrwt beam="2">  1       -1 0.11654555E+00 0.16008222E+04</pdfrwt>
<totfact> 0.12883502E+01</totfact>
</mgrwt>
</event>
<event>
12    1  0.4403484E-008  0.1460953E+04  0.7818608E-02  0.8910842E-01
          2   -1    0    0  501    0  0.00000000000E+00  0.00000000000E+00  0.15949930339E+04  0.15949930339E+04  0.00000000000E+00 0. -1.
         -2   -1    0    0    0  501 -0.00000000000E+00 -0.00000000000E+00 -0.33454443202E+03  0.33454443202E+03  0.00000000000E+00 0.  1.
         23    2    1    2    0    0  0.20982290692E+03  0.24097552495E+03 -0.25893114277E+02  0.33310784604E+03  0.90529154595E+02 0.  0.
        254    2    1    2    0    0 -0.20982290692E+03 -0.24097552495E+03  0.12863417161E+04  0.15964296198E+04  0.88984137045E+03 0.  0.
         23    2    4    4    0    0 -0.30712889099E+03 -0.21205020853E+03  0.92882976007E+02  0.39524550452E+03  0.91095087649E+02 0.  0.
         23    2    4    4    0    0  0.97305984066E+02 -0.28925316420E+02  0.11934587401E+04  0.12011841153E+04  0.90522848306E+02 0.  0.
         13    1    3    3    0    0  0.14601623860E+03  0.11725956538E+03 -0.44998821235E+02  0.19260176926E+03  0.00000000000E+00 0.  1.
        -13    1    3    3    0    0  0.63806668324E+02  0.12371595957E+03  0.19105706957E+02  0.14050607679E+03  0.00000000000E+00 0. -1.
          2    1    5    5  502    0 -0.25569020055E+03 -0.21256365356E+03  0.75750493896E+02  0.34102627875E+03  0.00000000000E+00 0. -1.
          1    1    6    6  503    0  0.27199133497E+02 -0.16586558192E+02  0.84129662890E+03  0.84189959293E+03  0.00000000000E+00 0. -1.
         -2    1    5    5    0  502 -0.51438690437E+02  0.51344503139E+00  0.17132482111E+02  0.54219225769E+02  0.00000000000E+00 0.  1.
         -1    1    6    6    0  503  0.70106850569E+02 -0.12338758229E+02  0.35216211121E+03  0.35928452239E+03  0.00000000000E+00 0.  1.
<mgrwt>
<rscale>  0 0.14609532E+04</rscale>
<asrwt>0</asrwt>
<pdfrwt beam="1">  1        2 0.24538354E+00 0.14609532E+04</pdfrwt>
<pdfrwt beam="2">  1       -2 0.51468375E-01 0.14609532E+04</pdfrwt>
<totfact> 0.38781315E+01</totfact>
</mgrwt>
</event>
<event>
12    1  0.4403484E-008  0.3613714E+04  0.7818608E-02  0.8087358E-01
          2   -1    0    0  501    0  0.00000000000E+00  0.00000000000E+00  0.17610980442E+04  0.17610980442E+04  0.00000000000E+00 0. -1.
         -2   -1    0    0    0  501 -0.00000000000E+00 -0.00000000000E+00 -0.18538046893E+04  0.18538046893E+04  0.00000000000E+00 0.  1.
         23    2    1    2    0    0 -0.40810765443E+03 -0.85506969588E+03 -0.14404767679E+04  0.17264457680E+04  0.89138254198E+02 0.  0.
        254    2    1    2    0    0  0.40810765443E+03  0.85506969588E+03  0.13477701228E+04  0.18884569656E+04  0.92308686728E+03 0.  0.
         23    2    4    4    0    0  0.54317074797E+03  0.41897689849E+03  0.12227159027E+04  0.14046764112E+04  0.86634510873E+02 0.  0.
         23    2    4    4    0    0 -0.13506309354E+03  0.43609279739E+03  0.12505422007E+03  0.48378055438E+03  0.99930474166E+02 0.  0.
         13    1    3    3    0    0 -0.27173288925E+03 -0.59697294707E+03 -0.10661253166E+04  0.12517342583E+04  0.00000000000E+00 0.  1.
        -13    1    3    3    0    0 -0.13637476518E+03 -0.25809674881E+03 -0.37435145135E+03  0.47471150971E+03  0.00000000000E+00 0. -1.
          2    1    5    5  502    0  0.54421239764E+03  0.41408043805E+03  0.12208711163E+04  0.13993412827E+04  0.00000000000E+00 0. -1.
          4    1    6    6  503    0 -0.14023942199E+03  0.43901219653E+03  0.12595640436E+03  0.47776963066E+03  0.00000000000E+00 0. -1.
         -2    1    5    5    0  502 -0.10416496758E+01  0.48964604409E+01  0.18447864368E+01  0.53351284796E+01  0.00000000000E+00 0.  1.
         -4    1    6    6    0  503  0.51763284462E+01 -0.29193991376E+01 -0.90218429072E+00  0.60109237228E+01  0.00000000000E+00 0.  1.
<mgrwt>
<rscale>  0 0.36137138E+04</rscale>
<asrwt>0</asrwt>
<pdfrwt beam="1">  1        2 0.27093816E+00 0.36137138E+04</pdfrwt>
<pdfrwt beam="2">  1       -2 0.28520072E+00 0.36137138E+04</pdfrwt>
<totfact> 0.28901268E-01</totfact>
</mgrwt>
</event>
<event>
12    1  0.4403484E-008  0.1915535E+04  0.7818608E-02  0.8647162E-01
          1   -1    0    0  501    0  0.00000000000E+00  0.00000000000E+00  0.26127175197E+04  0.26127175197E+04  0.00000000000E+00 0. -1.
         -1   -1    0    0    0  501 -0.00000000000E+00 -0.00000000000E+00 -0.35109756217E+03  0.35109756217E+03  0.00000000000E+00 0.  1.
         23    2    1    2    0    0 -0.30540318140E+02 -0.64837974335E+03  0.13548691897E+04  0.15050382303E+04  0.90225001433E+02 0.  0.
        254    2    1    2    0    0  0.30540318140E+02  0.64837974335E+03  0.90675076785E+03  0.14587768516E+04  0.94048069896E+03 0.  0.
         23    2    4    4    0    0 -0.39097717704E+03  0.52008724247E+03  0.70701185620E+03  0.96421605802E+03  0.80578837176E+02 0.  0.
         23    2    4    4    0    0  0.42151749518E+03  0.12829250088E+03  0.19973891165E+03  0.49456079356E+03  0.10275593015E+03 0.  0.
         13    1    3    3    0    0 -0.18270439962E+01 -0.58948599550E+03  0.12044542756E+04  0.13409724751E+04  0.00000000000E+00 0. -1.
        -13    1    3    3    0    0 -0.28713274143E+02 -0.58893747850E+02  0.15041491407E+03  0.16406575518E+03  0.00000000000E+00 0.  1.
          4    1    5    5  502    0 -0.12069355550E+03  0.19770604552E+03  0.29833259879E+03  0.37769955557E+03  0.00000000000E+00 0. -1.
          1    1    6    6  503    0  0.54252561647E+02  0.54593351203E+02  0.22694032382E+02  0.80242093359E+02  0.00000000000E+00 0. -1.
         -4    1    5    5    0  502 -0.27028362154E+03  0.32238119695E+03  0.40867925741E+03  0.58651650246E+03  0.00000000000E+00 0.  1.
         -1    1    6    6    0  503  0.36726493353E+03  0.73699149675E+02  0.17704487927E+03  0.41431870021E+03  0.00000000000E+00 0.  1.
<mgrwt>
<rscale>  0 0.19155352E+04</rscale>
<asrwt>0</asrwt>
<pdfrwt beam="1">  1        1 0.40195653E+00 0.19155352E+04</pdfrwt>
<pdfrwt beam="2">  1       -1 0.54015011E-01 0.19155352E+04</pdfrwt>
<totfact> 0.36585489E+00</totfact>
</mgrwt>
</event>
<event>
12    1  0.4403484E-008  0.1222976E+04  0.7818608E-02  0.9092980E-01
          2   -1    0    0  501    0  0.00000000000E+00  0.00000000000E+00  0.84916521615E+03  0.84916521615E+03  0.00000000000E+00 0. -1.
         -2   -1    0    0    0  501 -0.00000000000E+00 -0.00000000000E+00 -0.44033583217E+03  0.44033583217E+03  0.00000000000E+00 0.  1.
         23    2    1    2    0    0  0.24102387708E+03  0.15792574976E+03  0.14134747259E+03  0.33381304629E+03  0.91755054939E+02 0.  0.
        254    2    1    2    0    0 -0.24102387708E+03 -0.15792574976E+03  0.26748191139E+03  0.95568800203E+03  0.87106827089E+03 0.  0.
         23    2    4    4    0    0  0.19899749676E+03 -0.31411075691E+03  0.28865007265E+03  0.47933236009E+03  0.90416125020E+02 0.  0.
         23    2    4    4    0    0 -0.44002137384E+03  0.15618500715E+03 -0.21168161264E+02  0.47635564194E+03  0.91945857192E+02 0.  0.
         11    1    3    3    0    0  0.16369279798E+03  0.81631946201E+02  0.44441377430E+02  0.18823958877E+03  0.00000000000E+00 0.  1.
        -11    1    3    3    0    0  0.77331079099E+02  0.76293803558E+02  0.96906095164E+02  0.14557345753E+03  0.00000000000E+00 0. -1.
          4    1    5    5  502    0  0.15829445441E+03 -0.27560539756E+03  0.20348191489E+03  0.37738622013E+03  0.00000000000E+00 0. -1.
          3    1    6    6  503    0 -0.23090724012E+03  0.83338142435E+02  0.34832383636E+02  0.24794494242E+03  0.00000000000E+00 0. -1.
         -4    1    5    5    0  502  0.40703042350E+02 -0.38505359358E+02  0.85168157764E+02  0.10194613996E+03  0.00000000000E+00 0.  1.
         -3    1    6    6    0  503 -0.20911413373E+03  0.72846864720E+02 -0.56000544900E+02  0.22841069951E+03  0.00000000000E+00 0.  1.
<mgrwt>
<rscale>  0 0.12229765E+04</rscale>
<asrwt>0</asrwt>
<pdfrwt beam="1">  1        2 0.13064080E+00 0.12229765E+04</pdfrwt>
<pdfrwt beam="2">  1       -2 0.67743974E-01 0.12229765E+04</pdfrwt>
<totfact> 0.62539021E+01</totfact>
</mgrwt>
</event>
<event>
12    1  0.4403484E-008  0.1824565E+04  0.7818608E-02  0.8693344E-01
          2   -1    0    0  501    0  0.00000000000E+00  0.00000000000E+00  0.11420111662E+04  0.11420111662E+04  0.00000000000E+00 0.  1.
         -2   -1    0    0    0  501 -0.00000000000E+00 -0.00000000000E+00 -0.72876656916E+03  0.72876656916E+03  0.00000000000E+00 0. -1.
         23    2    1    2    0    0  0.46436646144E+03 -0.11093842450E+03  0.66401340516E+03  0.82275137257E+03  0.89791281815E+02 0.  0.
        254    2    1    2    0    0 -0.46436646144E+03  0.11093842450E+03 -0.25076880808E+03  0.10480263628E+04  0.89862712932E+03 0.  0.
         23    2    4    4    0    0  0.14186159536E+03  0.28687692001E+03 -0.23959384896E+03  0.41008574141E+03  0.91334677862E+02 0.  0.
         23    2    4    4    0    0 -0.60622805680E+03 -0.17593849551E+03 -0.11174959122E+02  0.63794062142E+03  0.91523470727E+02 0.  0.
         11    1    3    3    0    0  0.37445596026E+02  0.94964382966E+00  0.98658545097E+02  0.10553000998E+03  0.00000000000E+00 0. -1.
        -11    1    3    3    0    0  0.42692086541E+03 -0.11188806833E+03  0.56535486007E+03  0.71722136259E+03  0.00000000000E+00 0.  1.
          4    1    5    5  502    0  0.12168564662E+03  0.21614235904E+03 -0.22543362345E+03  0.33517940651E+03  0.00000000000E+00 0.  1.
          1    1    6    6  503    0 -0.27539730691E+03 -0.48825709924E+02  0.29318815388E+02  0.28122450025E+03  0.00000000000E+00 0. -1.
         -4    1    5    5    0  502  0.20175948744E+02  0.70734560963E+02 -0.14160225510E+02  0.74906334905E+02  0.00000000000E+00 0. -1.
         -1    1    6    6    0  503 -0.33083074989E+03 -0.12711278558E+03 -0.40493774510E+02  0.35671612117E+03  0.00000000000E+00 0.  1.
<mgrwt>
<rscale>  0 0.18245652E+04</rscale>
<asrwt>0</asrwt>
<pdfrwt beam="1">  1        2 0.17569403E+00 0.18245652E+04</pdfrwt>
<pdfrwt beam="2">  1       -2 0.11211793E+00 0.18245652E+04</pdfrwt>
<totfact> 0.12136623E+01</totfact>
</mgrwt>
</event>
<event>
12    1  0.4403484E-008  0.4087855E+04  0.7818608E-02  0.7987054E-01
          1   -1    0    0  501    0  0.00000000000E+00  0.00000000000E+00  0.24240204782E+04  0.24240204782E+04  0.00000000000E+00 0. -1.
         -1   -1    0    0    0  501 -0.00000000000E+00 -0.00000000000E+00 -0.17234344928E+04  0.17234344928E+04  0.00000000000E+00 0.  1.
         23    2    1    2    0    0 -0.94255636595E+02 -0.19412069770E+04  0.31385920185E+03  0.19708818678E+04  0.93268888398E+02 0.  0.
        254    2    1    2    0    0  0.94255636595E+02  0.19412069770E+04  0.38672678354E+03  0.21765731032E+04  0.90041335832E+03 0.  0.
         23    2    4    4    0    0  0.24950323667E+03  0.24857393291E+03  0.30038424693E+03  0.47175506577E+03  0.91001544166E+02 0.  0.
         23    2    4    4    0    0 -0.15524760007E+03  0.16926330441E+04  0.86342536609E+02  0.17048180374E+04  0.99202156403E+02 0.  0.
         11    1    3    3    0    0  0.14435825996E+02 -0.14335261508E+03  0.11422238556E+02  0.14452969542E+03  0.00000000000E+00 0. -1.
        -11    1    3    3    0    0 -0.10869146259E+03 -0.17978543619E+04  0.30243696329E+03  0.18263521724E+04  0.00000000000E+00 0.  1.
          3    1    5    5  502    0  0.18628383072E+03  0.15579339123E+03  0.15510937972E+03  0.28815302535E+03  0.00000000000E+00 0. -1.
          3    1    6    6  503    0 -0.12946985370E+03  0.98189168304E+03  0.79501379408E+02  0.99357646387E+03  0.00000000000E+00 0. -1.
         -3    1    5    5    0  502  0.63219405942E+02  0.92780541688E+02  0.14527486721E+03  0.18360204042E+03  0.00000000000E+00 0.  1.
         -3    1    6    6    0  503 -0.25777746369E+02  0.71074136106E+03  0.68411572014E+01  0.71124157357E+03  0.00000000000E+00 0.  1.
<mgrwt>
<rscale>  0 0.40878554E+04</rscale>
<asrwt>0</asrwt>
<pdfrwt beam="1">  1        1 0.37292623E+00 0.40878554E+04</pdfrwt>
<pdfrwt beam="2">  1       -1 0.26514377E+00 0.40878554E+04</pdfrwt>
<totfact> 0.66022898E-02</totfact>
</mgrwt>
</event>
<event>
12    1  0.4403484E-008  0.1914050E+04  0.7818608E-02  0.8647894E-01
         -1   -1    0    0    0  501 -0.00000000000E+00  0.00000000000E+00  0.38560084488E+03  0.38560084488E+03  0.00000000000E+00 0.  1.
          1   -1    0    0  501    0  0.00000000000E+00 -0.00000000000E+00 -0.23752456690E+04  0.23752456690E+04  0.00000000000E+00 0. -1.
         23    2    1    2    0    0  0.26423702110E+03  0.61401238250E+03 -0.12388463776E+04  0.14105010617E+04  0.89109417968E+02 0.  0.
        254    2    1    2    0    0 -0.26423702110E+03 -0.61401238250E+03 -0.75079844648E+03  0.13503454522E+04  0.90161084949E+03 0.  0.
         23    2    4    4    0    0  0.29165945031E+02 -0.67990537749E+03 -0.77466379711E+03  0.10351326967E+04  0.90960026817E+02 0.  0.
         23    2    4    4    0    0 -0.29340296613E+03  0.65892994989E+02  0.23865350635E+02  0.31521275555E+03  0.91445825376E+02 0.  0.
         13    1    3    3    0    0  0.26958752262E+03  0.57736876456E+03 -0.11769014364E+04  0.13383307191E+04  0.00000000000E+00 0.  1.
        -13    1    3    3    0    0 -0.53505015221E+01  0.36643617938E+02 -0.61944941183E+02  0.72170342525E+02  0.00000000000E+00 0. -1.
          2    1    5    5  502    0  0.51710335775E+02 -0.33144669659E+03 -0.41847202824E+03  0.53632985179E+03  0.00000000000E+00 0. -1.
          3    1    6    6  503    0 -0.13033489001E+03  0.29930295211E+01 -0.27097438950E+02  0.13315559687E+03  0.00000000000E+00 0. -1.
         -2    1    5    5    0  502 -0.22544390744E+02 -0.34845868090E+03 -0.35619176887E+03  0.49880284488E+03  0.00000000000E+00 0.  1.
         -3    1    6    6    0  503 -0.16306807611E+03  0.62899965468E+02  0.50962789585E+02  0.18205715868E+03  0.00000000000E+00 0.  1.
<mgrwt>
<rscale>  0 0.19140499E+04</rscale>
<asrwt>0</asrwt>
<pdfrwt beam="1">  1        1 0.36542242E+00 0.19140499E+04</pdfrwt>
<pdfrwt beam="2">  1       -1 0.59323205E-01 0.19140499E+04</pdfrwt>
<totfact> 0.44498127E+00</totfact>
</mgrwt>
</event>
<event>
12    1  0.4403484E-008  0.1729276E+04  0.7818608E-02  0.8744841E-01
          1   -1    0    0  501    0  0.00000000000E+00  0.00000000000E+00  0.11775049983E+04  0.11775049983E+04  0.00000000000E+00 0. -1.
         -1   -1    0    0    0  501 -0.00000000000E+00 -0.00000000000E+00 -0.63490110541E+03  0.63490110541E+03  0.00000000000E+00 0.  1.
         23    2    1    2    0    0 -0.59650954695E+03  0.14491559621E+03  0.33069017165E+03  0.70314571919E+03  0.90739975506E+02 0.  0.
        254    2    1    2    0    0  0.59650954695E+03 -0.14491559621E+03  0.21191372128E+03  0.11092603846E+04  0.89929250295E+03 0.  0.
         23    2    4    4    0    0  0.35677191412E+03 -0.51401175806E+03  0.60884407779E+02  0.63445848555E+03  0.85652627788E+02 0.  0.
         23    2    4    4    0    0  0.23973763283E+03  0.36909616184E+03  0.15102931350E+03  0.47480189901E+03  0.94450412864E+02 0.  0.
         13    1    3    3    0    0 -0.49982024502E+03  0.15406514273E+03  0.26977906785E+03  0.58850411298E+03  0.00000000000E+00 0. -1.
        -13    1    3    3    0    0 -0.96689301926E+02 -0.91495465129E+01  0.60911103798E+02  0.11464160621E+03  0.00000000000E+00 0.  1.
          4    1    5    5  502    0  0.58953836651E+02 -0.10271608034E+03 -0.20457546089E+02  0.12018593598E+03  0.00000000000E+00 0.  1.
          3    1    6    6  503    0  0.16878860224E+03  0.32582077944E+03  0.11942904626E+03  0.38589126662E+03  0.00000000000E+00 0. -1.
         -4    1    5    5    0  502  0.29781807747E+03 -0.41129567772E+03  0.81341953867E+02  0.51427254957E+03  0.00000000000E+00 0. -1.
         -3    1    6    6    0  503  0.70949030587E+02  0.43275382401E+02  0.31600267238E+02  0.88910632394E+02  0.00000000000E+00 0.  1.
<mgrwt>
<rscale>  0 0.17292764E+04</rscale>
<asrwt>0</asrwt>
<pdfrwt beam="1">  1        1 0.18115462E+00 0.17292764E+04</pdfrwt>
<pdfrwt beam="2">  1       -1 0.97677093E-01 0.17292764E+04</pdfrwt>
<totfact> 0.10597135E+01</totfact>
</mgrwt>
</event>
<event>
12    1  0.4403484E-008  0.1277467E+04  0.7818608E-02  0.9047628E-01
         -1   -1    0    0    0  501 -0.00000000000E+00  0.00000000000E+00  0.42217034611E+03  0.42217034611E+03  0.00000000000E+00 0.  1.
          1   -1    0    0  501    0  0.00000000000E+00 -0.00000000000E+00 -0.96638795347E+03  0.96638795347E+03  0.00000000000E+00 0. -1.
         23    2    1    2    0    0  0.21374883840E+03  0.14818249165E+02 -0.39138865724E+03  0.45533312810E+03  0.90747066613E+02 0.  0.
        254    2    1    2    0    0 -0.21374883840E+03 -0.14818249165E+02 -0.15282895011E+03  0.93322517148E+03  0.89534595898E+03 0.  0.
         23    2    4    4    0    0  0.13482097318E+03  0.18909310815E+03  0.25176424117E+03  0.35463935242E+03  0.91928987757E+02 0.  0.
         23    2    4    4    0    0 -0.34856981158E+03 -0.20391135732E+03 -0.40459319129E+03  0.57858581906E+03  0.89359635139E+02 0.  0.
         11    1    3    3    0    0  0.18051409498E+03  0.16913375267E+02 -0.37839328282E+03  0.41958655511E+03  0.00000000000E+00 0. -1.
        -11    1    3    3    0    0  0.33234743423E+02 -0.20951261017E+01 -0.12995374423E+02  0.35746572985E+02  0.00000000000E+00 0.  1.
          2    1    5    5  502    0  0.13760303512E+03  0.12615350302E+03  0.18413236153E+03  0.26220989333E+03  0.00000000000E+00 0. -1.
          3    1    6    6  503    0 -0.29312899266E+03 -0.14638184993E+03 -0.28219376886E+03  0.43241828767E+03  0.00000000000E+00 0. -1.
         -2    1    5    5    0  502 -0.27820619382E+01  0.62939605139E+02  0.67631879644E+02  0.92429459091E+02  0.00000000000E+00 0.  1.
         -3    1    6    6    0  503 -0.55440818924E+02 -0.57529507387E+02 -0.12239942242E+03  0.14616753139E+03  0.00000000000E+00 0.  1.
<mgrwt>
<rscale>  0 0.12774668E+04</rscale>
<asrwt>0</asrwt>
<pdfrwt beam="1">  1        1 0.14867507E+00 0.12774668E+04</pdfrwt>
<pdfrwt beam="2">  1       -1 0.64949284E-01 0.12774668E+04</pdfrwt>
<totfact> 0.38048350E+01</totfact>
</mgrwt>
</event>
<event>
12    1  0.4403484E-008  0.1447666E+04  0.7818608E-02  0.8920020E-01
          2   -1    0    0  501    0  0.00000000000E+00  0.00000000000E+00  0.45813037797E+03  0.45813037797E+03  0.00000000000E+00 0. -1.
         -2   -1    0    0    0  501 -0.00000000000E+00 -0.00000000000E+00 -0.11436353825E+04  0.11436353825E+04  0.00000000000E+00 0.  1.
         23    2    1    2    0    0 -0.88753153819E+02  0.16782353712E+03  0.22586820354E+03  0.30910993496E+03  0.92144693786E+02 0.  0.
        254    2    1    2    0    0  0.88753153819E+02 -0.16782353712E+03 -0.91137320806E+03  0.12926558255E+04  0.89683671699E+03 0.  0.
         23    2    4    4    0    0 -0.20327244532E+02 -0.52431366314E+03 -0.53168594504E+03  0.75262347867E+03  0.91837586402E+02 0.  0.
         23    2    4    4    0    0  0.10908039835E+03  0.35649012602E+03 -0.37968726303E+03  0.54003234684E+03  0.92134546580E+02 0.  0.
         11    1    3    3    0    0 -0.51717269517E+02  0.21081529309E+02  0.88912812282E+02  0.10499807156E+03  0.00000000000E+00 0.  1.
        -11    1    3    3    0    0 -0.37035884302E+02  0.14674200781E+03  0.13695539126E+03  0.20411186339E+03  0.00000000000E+00 0. -1.
          3    1    5    5  502    0  0.12696595590E+02 -0.20942808783E+03 -0.26951803128E+03  0.34155716461E+03  0.00000000000E+00 0. -1.
          3    1    6    6  503    0  0.10990141893E+03  0.33457914354E+03 -0.31774621506E+03  0.47432497548E+03  0.00000000000E+00 0. -1.
         -3    1    5    5    0  502 -0.33023840122E+02 -0.31488557530E+03 -0.26216791376E+03  0.41106631406E+03  0.00000000000E+00 0.  1.
         -3    1    6    6    0  503 -0.82102057894E+00  0.21910982478E+02 -0.61941047970E+02  0.65707371364E+02  0.00000000000E+00 0.  1.
<mgrwt>
<rscale>  0 0.14476659E+04</rscale>
<asrwt>0</asrwt>
<pdfrwt beam="1">  1        2 0.70481598E-01 0.14476659E+04</pdfrwt>
<pdfrwt beam="2">  1       -2 0.17594390E+00 0.14476659E+04</pdfrwt>
<totfact> 0.12773453E+01</totfact>
</mgrwt>
</event>
<event>
12    1  0.4403484E-008  0.1306005E+04  0.7818608E-02  0.9024817E-01
         -2   -1    0    0    0  501 -0.00000000000E+00  0.00000000000E+00  0.39530713485E+03  0.39530713485E+03  0.00000000000E+00 0.  1.
          2   -1    0    0  501    0  0.00000000000E+00 -0.00000000000E+00 -0.10786858526E+04  0.10786858526E+04  0.00000000000E+00 0. -1.
         23    2    1    2    0    0  0.17046904484E+03 -0.15606219193E+03  0.86729955018E+02  0.26511349954E+03  0.96684949921E+02 0.  0.
        254    2    1    2    0    0 -0.17046904484E+03  0.15606219193E+03 -0.77010867281E+03  0.12088794879E+04  0.90272207541E+03 0.  0.
         23    2    4    4    0    0 -0.23298819302E+03  0.12645375413E+01 -0.92867890370E+03  0.96153879459E+03  0.88471747958E+02 0.  0.
         23    2    4    4    0    0  0.62519148173E+02  0.15479765439E+03  0.15857023088E+03  0.24734069336E+03  0.90343471138E+02 0.  0.
         13    1    3    3    0    0  0.61196315830E+02 -0.27104978163E+02 -0.13955654696E+02  0.68369797501E+02  0.00000000000E+00 0. -1.
        -13    1    3    3    0    0  0.10927272901E+03 -0.12895721377E+03  0.10068560971E+03  0.19674370204E+03  0.00000000000E+00 0.  1.
          2    1    6    6  502    0  0.27197308135E+01  0.33050193152E+02  0.88836920928E+02  0.94824631415E+02  0.00000000000E+00 0. -1.
          2    1    5    5  503    0 -0.94056219235E+02 -0.88468895192E+01 -0.54993463802E+03  0.55799009483E+03  0.00000000000E+00 0. -1.
         -2    1    5    5    0  503 -0.13893197378E+03  0.10111427061E+02 -0.37874426567E+03  0.40354869976E+03  0.00000000000E+00 0.  1.
         -2    1    6    6    0  502  0.59799417360E+02  0.12174746124E+03  0.69733309955E+02  0.15251606194E+03  0.00000000000E+00 0.  1.
<mgrwt>
<rscale>  0 0.13060049E+04</rscale>
<asrwt>0</asrwt>
<pdfrwt beam="1">  1        2 0.16595167E+00 0.13060049E+04</pdfrwt>
<pdfrwt beam="2">  1       -2 0.60816482E-01 0.13060049E+04</pdfrwt>
<totfact> 0.55386807E+01</totfact>
</mgrwt>
</event>
<event>
12    1  0.4403484E-008  0.1656124E+04  0.7818608E-02  0.8786792E-01
          2   -1    0    0  501    0  0.00000000000E+00  0.00000000000E+00  0.44371347325E+03  0.44371347325E+03  0.00000000000E+00 0. -1.
         -2   -1    0    0    0  501 -0.00000000000E+00 -0.00000000000E+00 -0.15453371584E+04  0.15453371584E+04  0.00000000000E+00 0.  1.
         23    2    1    2    0    0 -0.36891913686E+03  0.42441553048E+03 -0.25897386722E+03  0.62588887696E+03  0.91867025286E+02 0.  0.
        254    2    1    2    0    0  0.36891913686E+03 -0.42441553048E+03 -0.84264981794E+03  0.13631617547E+04  0.91209724358E+03 0.  0.
         23    2    4    4    0    0 -0.13858352861E+03 -0.26249104766E+03 -0.75340176021E+03  0.81499139944E+03  0.92140243007E+02 0.  0.
         23    2    4    4    0    0  0.50750266547E+03 -0.16192448283E+03 -0.89248057729E+02  0.54817035526E+03  0.93525552532E+02 0.  0.
         11    1    3    3    0    0 -0.35075456023E+03  0.37098114269E+03 -0.25094184148E+03  0.56888274500E+03  0.00000000000E+00 0. -1.
        -11    1    3    3    0    0 -0.18164576638E+02  0.53434387798E+02 -0.80320257415E+01  0.57006131962E+02  0.00000000000E+00 0.  1.
          2    1    5    5  502    0 -0.20605882248E+02 -0.29125113291E+02 -0.19701573699E+03  0.20022006700E+03  0.00000000000E+00 0. -1.
          1    1    6    6  503    0  0.24631072426E+02 -0.17693288962E+02 -0.26598983472E+02  0.40339163661E+02  0.00000000000E+00 0. -1.
         -2    1    5    5    0  502 -0.11797764636E+03 -0.23336593437E+03 -0.55638602321E+03  0.61477133244E+03  0.00000000000E+00 0.  1.
         -1    1    6    6    0  503  0.48287159304E+03 -0.14423119386E+03 -0.62649074258E+02  0.50783119160E+03  0.00000000000E+00 0.  1.
<mgrwt>
<rscale>  0 0.16561243E+04</rscale>
<asrwt>0</asrwt>
<pdfrwt beam="1">  1        2 0.68263610E-01 0.16561243E+04</pdfrwt>
<pdfrwt beam="2">  1       -2 0.23774418E+00 0.16561243E+04</pdfrwt>
<totfact> 0.51611796E+00</totfact>
</mgrwt>
</event>
<event>
12    1  0.4403484E-008  0.1488434E+04  0.7818608E-02  0.8892181E-01
         -2   -1    0    0    0  501 -0.00000000000E+00  0.00000000000E+00  0.25296051926E+03  0.25296051926E+03  0.00000000000E+00 0.  1.
          2   -1    0    0  501    0  0.00000000000E+00 -0.00000000000E+00 -0.21895075537E+04  0.21895075537E+04  0.00000000000E+00 0. -1.
         23    2    1    2    0    0  0.21894548353E+03  0.40855310456E+03 -0.53504130196E+03  0.71384176262E+03  0.91913564072E+02 0.  0.
        254    2    1    2    0    0 -0.21894548353E+03 -0.40855310456E+03 -0.14015057325E+04  0.17286263103E+04  0.89948754222E+03 0.  0.
         23    2    4    4    0    0 -0.55008740820E+02  0.24896918841E+03 -0.68735143943E+03  0.73992921369E+03  0.10015798342E+03 0.  0.
         23    2    4    4    0    0 -0.16393674271E+03 -0.65752229296E+03 -0.71415429307E+03  0.98869709666E+03  0.91075645893E+02 0.  0.
         13    1    3    3    0    0  0.14859657990E+02  0.71039318117E+02 -0.12739820199E+03  0.14662092629E+03  0.00000000000E+00 0. -1.
        -13    1    3    3    0    0  0.20408582554E+03  0.33751378644E+03 -0.40764309997E+03  0.56722083634E+03  0.00000000000E+00 0.  1.
          3    1    5    5  502    0 -0.51498364340E+02  0.25076912581E+03 -0.59802936228E+03  0.65052006436E+03  0.00000000000E+00 0. -1.
          3    1    6    6  503    0 -0.16363956637E+03 -0.61144697169E+03 -0.63177103664E+03  0.89430417063E+03  0.00000000000E+00 0. -1.
         -3    1    5    5    0  502 -0.35103764795E+01 -0.17999373968E+01 -0.89322077143E+02  0.89409149324E+02  0.00000000000E+00 0.  1.
         -3    1    6    6    0  503 -0.29717634239E+00 -0.46075321277E+02 -0.82383256426E+02  0.94392926027E+02  0.00000000000E+00 0.  1.
<mgrwt>
<rscale>  0 0.14884340E+04</rscale>
<asrwt>0</asrwt>
<pdfrwt beam="1">  1        2 0.33684732E+00 0.14884340E+04</pdfrwt>
<pdfrwt beam="2">  1       -2 0.38917003E-01 0.14884340E+04</pdfrwt>
<totfact> 0.31622852E+01</totfact>
</mgrwt>
</event>
<event>
12    1  0.4403484E-008  0.1264692E+04  0.7818608E-02  0.9058043E-01
         -1   -1    0    0    0  501 -0.00000000000E+00  0.00000000000E+00  0.21420681671E+04  0.21420681671E+04  0.00000000000E+00 0.  1.
          1   -1    0    0  501    0  0.00000000000E+00 -0.00000000000E+00 -0.18667075146E+03  0.18667075146E+03  0.00000000000E+00 0. -1.
         23    2    1    2    0    0 -0.19195860555E+03  0.75855927356E+02  0.79994466784E+03  0.83130239115E+03  0.92466025949E+02 0.  0.
        254    2    1    2    0    0  0.19195860555E+03 -0.75855927356E+02  0.11554527477E+04  0.14974365274E+04  0.92986174954E+03 0.  0.
         23    2    4    4    0    0  0.35480547157E+02 -0.22515344791E+03  0.12277182516E+04  0.12520500348E+04  0.91565496295E+02 0.  0.
         23    2    4    4    0    0  0.15647805839E+03  0.14929752055E+03 -0.72265503836E+02  0.24538649254E+03  0.90648195103E+02 0.  0.
         11    1    3    3    0    0 -0.12047949253E+03  0.59689417731E+02  0.34111925390E+03  0.36666126069E+03  0.00000000000E+00 0.  1.
        -11    1    3    3    0    0 -0.71479113017E+02  0.16166509625E+02  0.45882541394E+03  0.46464113045E+03  0.00000000000E+00 0. -1.
          2    1    5    5  502    0 -0.86010973903E+01  0.20058718431E+01  0.12517346011E+03  0.12548465051E+03  0.00000000000E+00 0. -1.
          3    1    6    6  503    0  0.12396668991E+02  0.67405508342E+02 -0.26226275157E+02  0.73382541967E+02  0.00000000000E+00 0. -1.
         -2    1    5    5    0  502  0.44081644548E+02 -0.22715931975E+03  0.11025447915E+04  0.11265653843E+04  0.00000000000E+00 0.  1.
         -3    1    6    6    0  503  0.14408138940E+03  0.81892012210E+02 -0.46039228679E+02  0.17200395057E+03  0.00000000000E+00 0.  1.
<mgrwt>
<rscale>  0 0.12646920E+04</rscale>
<asrwt>0</asrwt>
<pdfrwt beam="1">  1        1 0.28718579E-01 0.12646920E+04</pdfrwt>
<pdfrwt beam="2">  1       -1 0.32954893E+00 0.12646920E+04</pdfrwt>
<totfact> 0.34260781E+00</totfact>
</mgrwt>
</event>
<event>
12    1  0.4403484E-008  0.2644052E+04  0.7818608E-02  0.8353390E-01
          1   -1    0    0  501    0  0.00000000000E+00  0.00000000000E+00  0.14070648564E+04  0.14070648564E+04  0.00000000000E+00 0. -1.
         -1   -1    0    0    0  501 -0.00000000000E+00 -0.00000000000E+00 -0.12421270847E+04  0.12421270847E+04  0.00000000000E+00 0.  1.
         23    2    1    2    0    0  0.14110401329E+02  0.10868473013E+04  0.51750069763E+03  0.12062279542E+04  0.75780905849E+02 0.  0.
        254    2    1    2    0    0 -0.14110401329E+02 -0.10868473013E+04 -0.35256292594E+03  0.14429639869E+04  0.88114033551E+03 0.  0.
         23    2    4    4    0    0 -0.24039551097E+03 -0.57112510111E+03 -0.55600017126E+03  0.83741629653E+03  0.90310466896E+02 0.  0.
         23    2    4    4    0    0  0.22628510964E+03 -0.51572220019E+03  0.20343724531E+03  0.60554769033E+03  0.90149619384E+02 0.  0.
         13    1    3    3    0    0  0.18975155469E+02  0.60921001602E+03  0.25019490089E+03  0.65885839797E+03  0.00000000000E+00 0.  1.
        -13    1    3    3    0    0 -0.48647541404E+01  0.47763728528E+03  0.26730579674E+03  0.54736955624E+03  0.00000000000E+00 0. -1.
          3    1    5    5  502    0 -0.66152252120E+02 -0.22894596542E+03 -0.16833772443E+03  0.29177039776E+03  0.00000000000E+00 0. -1.
          3    1    6    6  503    0  0.63762166402E+02 -0.85437525227E+02  0.66471107372E+02  0.12563276920E+03  0.00000000000E+00 0. -1.
         -3    1    5    5    0  502 -0.17424325885E+03 -0.34217913569E+03 -0.38766244683E+03  0.54564589877E+03  0.00000000000E+00 0.  1.
         -3    1    6    6    0  503  0.16252294324E+03 -0.43028467496E+03  0.13696613794E+03  0.47991492113E+03  0.00000000000E+00 0.  1.
<mgrwt>
<rscale>  0 0.26440525E+04</rscale>
<asrwt>0</asrwt>
<pdfrwt beam="1">  1        1 0.21647152E+00 0.26440525E+04</pdfrwt>
<pdfrwt beam="2">  1       -1 0.19109647E+00 0.26440525E+04</pdfrwt>
<totfact> 0.11569359E+00</totfact>
</mgrwt>
</event>
<event>
12    1  0.4403484E-008  0.3251690E+04  0.7818608E-02  0.8175298E-01
          1   -1    0    0  501    0  0.00000000000E+00  0.00000000000E+00  0.30267090989E+04  0.30267090989E+04  0.00000000000E+00 0. -1.
         -1   -1    0    0    0  501 -0.00000000000E+00 -0.00000000000E+00 -0.87334871580E+03  0.87334871580E+03  0.00000000000E+00 0.  1.
         23    2    1    2    0    0 -0.14962275062E+04  0.82667231203E+02  0.10777147733E+04  0.18480731519E+04  0.91512953414E+02 0.  0.
        254    2    1    2    0    0  0.14962275062E+04 -0.82667231203E+02  0.10756456098E+04  0.20519846628E+04  0.89894213221E+03 0.  0.
         23    2    4    4    0    0  0.63820270650E+03 -0.22386800586E+03  0.23312229591E+02  0.68391236747E+03  0.98858928284E+02 0.  0.
         23    2    4    4    0    0  0.85802479971E+03  0.14120077466E+03  0.10523333802E+04  0.13680722953E+04  0.89844568565E+02 0.  0.
         13    1    3    3    0    0 -0.75300875178E+03  0.40222933452E+01  0.57311498649E+03  0.94630816695E+03  0.00000000000E+00 0. -1.
        -13    1    3    3    0    0 -0.74321875443E+03  0.78644937858E+02  0.50459978682E+03  0.90176498493E+03  0.00000000000E+00 0.  1.
          2    1    5    5  502    0  0.34953859457E+03 -0.88030878204E+02 -0.24669344942E+02  0.36129661110E+03  0.00000000000E+00 0. -1.
          4    1    6    6  503    0  0.64515790274E+03  0.99100819680E+02  0.84704252583E+03  0.10693599639E+04  0.00000000000E+00 0. -1.
         -2    1    5    5    0  502  0.28866411193E+03 -0.13583712766E+03  0.47981574533E+02  0.32261575638E+03  0.00000000000E+00 0.  1.
         -4    1    6    6    0  503  0.21286689697E+03  0.42099954977E+02  0.20529085435E+03  0.29871233138E+03  0.00000000000E+00 0.  1.
<mgrwt>
<rscale>  0 0.32516903E+04</rscale>
<asrwt>0</asrwt>
<pdfrwt beam="1">  1        1 0.46564755E+00 0.32516903E+04</pdfrwt>
<pdfrwt beam="2">  1       -1 0.13436134E+00 0.32516903E+04</pdfrwt>
<totfact> 0.22175981E-01</totfact>
</mgrwt>
</event>
<event>
12    1  0.4403484E-008  0.1832233E+04  0.7818608E-02  0.8689344E-01
         -1   -1    0    0    0  501 -0.00000000000E+00  0.00000000000E+00  0.48931669874E+03  0.48931669874E+03  0.00000000000E+00 0.  1.
          1   -1    0    0  501    0  0.00000000000E+00 -0.00000000000E+00 -0.17151864196E+04  0.17151864196E+04  0.00000000000E+00 0. -1.
         23    2    1    2    0    0  0.60616319518E+03  0.33146229946E+03 -0.47269542729E+03  0.84340258659E+03  0.10288771037E+03 0.  0.
        254    2    1    2    0    0 -0.60616319518E+03 -0.33146229946E+03 -0.75317429355E+03  0.13611005317E+04  0.89890047607E+03 0.  0.
         23    2    4    4    0    0 -0.10537427989E+03 -0.31936808990E+03 -0.77656360545E+03  0.85130909978E+03  0.92609040314E+02 0.  0.
         23    2    4    4    0    0 -0.50078891528E+03 -0.12094209558E+02  0.23389311902E+02  0.50979143195E+03  0.91675714377E+02 0.  0.
         11    1    3    3    0    0  0.50649833159E+03  0.27668117782E+03 -0.43791868526E+03  0.72447623077E+03  0.00000000000E+00 0.  1.
        -11    1    3    3    0    0  0.99664863588E+02  0.54781121641E+02 -0.34776742035E+02  0.11892635582E+03  0.00000000000E+00 0. -1.
          2    1    5    5  502    0  0.11727630742E+02 -0.57059913526E+01 -0.43363505519E+02  0.45282328463E+02  0.00000000000E+00 0. -1.
          4    1    6    6  503    0 -0.11358055445E+03 -0.34503287872E+01 -0.33177978466E+02  0.11837746987E+03  0.00000000000E+00 0. -1.
         -2    1    5    5    0  502 -0.11710191063E+03 -0.31366209855E+03 -0.73320009993E+03  0.80602677132E+03  0.00000000000E+00 0.  1.
         -4    1    6    6    0  503 -0.38720836083E+03 -0.86438807708E+01  0.56567290368E+02  0.39141396208E+03  0.00000000000E+00 0.  1.
<mgrwt>
<rscale>  0 0.18322329E+04</rscale>
<asrwt>0</asrwt>
<pdfrwt beam="1">  1        1 0.26387484E+00 0.18322329E+04</pdfrwt>
<pdfrwt beam="2">  1       -1 0.75279491E-01 0.18322329E+04</pdfrwt>
<totfact> 0.77679898E+00</totfact>
</mgrwt>
</event>
<event>
12    1  0.4403484E-008  0.1480784E+04  0.7818608E-02  0.8897333E-01
         -2   -1    0    0    0  501 -0.00000000000E+00  0.00000000000E+00  0.24113161032E+03  0.24113161032E+03  0.00000000000E+00 0.  1.
          2   -1    0    0  501    0  0.00000000000E+00 -0.00000000000E+00 -0.22733665284E+04  0.22733665284E+04  0.00000000000E+00 0. -1.
         23    2    1    2    0    0 -0.23912984779E+02 -0.38863620916E+03 -0.10707053131E+04  0.11435012448E+04  0.97853439493E+02 0.  0.
        254    2    1    2    0    0  0.23912984779E+02  0.38863620916E+03 -0.96152960506E+03  0.13709968939E+04  0.89637233772E+03 0.  0.
         23    2    4    4    0    0  0.64819226204E+02 -0.16821002163E+03 -0.73363306014E+03  0.76117045720E+03  0.93095942513E+02 0.  0.
         23    2    4    4    0    0 -0.40906241425E+02  0.55684623079E+03 -0.22789654491E+03  0.60982643672E+03  0.90556073293E+02 0.  0.
         11    1    3    3    0    0 -0.62193578509E+02 -0.23213730087E+03 -0.64905216214E+03  0.69211594176E+03  0.00000000000E+00 0. -1.
        -11    1    3    3    0    0  0.38280593729E+02 -0.15649890829E+03 -0.42165315092E+03  0.45138530308E+03  0.00000000000E+00 0.  1.
          1    1    5    5  502    0 -0.20983609441E+02 -0.50897249655E+02 -0.25882416347E+03  0.26461441662E+03  0.00000000000E+00 0. -1.
          3    1    6    6  503    0  0.23689563398E+02  0.89273202026E+02 -0.52751280356E+02  0.10636539660E+03  0.00000000000E+00 0. -1.
         -1    1    5    5    0  502  0.85802835644E+02 -0.11731277197E+03 -0.47480889668E+03  0.49655604058E+03  0.00000000000E+00 0.  1.
         -3    1    6    6    0  503 -0.64595804822E+02  0.46757302876E+03 -0.17514526456E+03  0.50346104013E+03  0.00000000000E+00 0.  1.
<mgrwt>
<rscale>  0 0.14807843E+04</rscale>
<asrwt>0</asrwt>
<pdfrwt beam="1">  1        2 0.34974869E+00 0.14807843E+04</pdfrwt>
<pdfrwt beam="2">  1       -2 0.37097171E-01 0.14807843E+04</pdfrwt>
<totfact> 0.31154267E+01</totfact>
</mgrwt>
</event>
<event>
12    1  0.4403484E-008  0.2722818E+04  0.7818608E-02  0.8327639E-01
          1   -1    0    0  501    0  0.00000000000E+00  0.00000000000E+00  0.17152017940E+04  0.17152017940E+04  0.00000000000E+00 0. -1.
         -1   -1    0    0    0  501 -0.00000000000E+00 -0.00000000000E+00 -0.10805927485E+04  0.10805927485E+04  0.00000000000E+00 0.  1.
         23    2    1    2    0    0 -0.66596154795E+03 -0.82052262406E+03  0.88936339394E+03  0.13841430782E+04  0.90125770623E+02 0.  0.
        254    2    1    2    0    0  0.66596154795E+03  0.82052262406E+03 -0.25475434839E+03  0.14116514643E+04  0.90060974831E+03 0.  0.
         23    2    4    4    0    0  0.60998238088E+02 -0.18238697490E+03 -0.21653513982E+02  0.21418739529E+03  0.91769123184E+02 0.  0.
         23    2    4    4    0    0  0.60496330986E+03  0.10029095990E+04 -0.23310083441E+03  0.11974640690E+04  0.88181220554E+02 0.  0.
         11    1    3    3    0    0 -0.30551178822E+03 -0.38764849178E+03  0.35759851111E+03  0.60949610423E+03  0.00000000000E+00 0.  1.
        -11    1    3    3    0    0 -0.36044975973E+03 -0.43287413228E+03  0.53176488283E+03  0.77464697398E+03  0.00000000000E+00 0. -1.
          4    1    5    5  502    0  0.29942352620E+02 -0.38706629719E+02 -0.43622342728E+02  0.65556513404E+02  0.00000000000E+00 0.  1.
          3    1    6    6  503    0  0.55704311728E+03  0.89479226994E+03 -0.23175903691E+03  0.10791952984E+04  0.00000000000E+00 0. -1.
         -4    1    5    5    0  502  0.31055885468E+02 -0.14368034518E+03  0.21968828746E+02  0.14863088188E+03  0.00000000000E+00 0. -1.
         -3    1    6    6    0  503  0.47920192581E+02  0.10811732902E+03 -0.13417974996E+01  0.11826877066E+03  0.00000000000E+00 0.  1.
<mgrwt>
<rscale>  0 0.27228181E+04</rscale>
<asrwt>0</asrwt>
<pdfrwt beam="1">  1        1 0.26387720E+00 0.27228181E+04</pdfrwt>
<pdfrwt beam="2">  1       -1 0.16624504E+00 0.27228181E+04</pdfrwt>
<totfact> 0.10638042E+00</totfact>
</mgrwt>
</event>
<event>
12    1  0.4403484E-008  0.2887028E+04  0.7818608E-02  0.8276748E-01
          2   -1    0    0  501    0  0.00000000000E+00  0.00000000000E+00  0.15645476218E+04  0.15645476218E+04  0.00000000000E+00 0. -1.
         -2   -1    0    0    0  501 -0.00000000000E+00 -0.00000000000E+00 -0.13318435211E+04  0.13318435211E+04  0.00000000000E+00 0.  1.
         23    2    1    2    0    0 -0.72030404329E+02 -0.18576640739E+03 -0.11816739092E+04  0.12025727819E+04  0.10065053880E+03 0.  0.
        254    2    1    2    0    0  0.72030404329E+02  0.18576640739E+03  0.14143780100E+04  0.16938183609E+04  0.91041635945E+03 0.  0.
         23    2    4    4    0    0  0.25507945849E+03  0.38910641662E+03  0.34529833945E+03  0.58646728153E+03  0.90794248039E+02 0.  0.
         23    2    4    4    0    0 -0.18304905416E+03 -0.20334000923E+03  0.10690796705E+04  0.11073510794E+04  0.91874673336E+02 0.  0.
         11    1    3    3    0    0  0.23382552216E+02 -0.35325663798E+02 -0.30998242591E+03  0.31286378929E+03  0.00000000000E+00 0. -1.
        -11    1    3    3    0    0 -0.95412956545E+02 -0.15044074359E+03 -0.87169148327E+03  0.88970899266E+03  0.00000000000E+00 0.  1.
          4    1    5    5  502    0  0.23497869187E+03  0.30069343022E+03  0.25833318814E+03  0.46083354988E+03  0.00000000000E+00 0. -1.
          3    1    6    6  503    0 -0.15174450674E+03 -0.19264355704E+03  0.10128235120E+04  0.10420889606E+04  0.00000000000E+00 0. -1.
         -4    1    5    5    0  502  0.20100766626E+02  0.88412986404E+02  0.86965151316E+02  0.12563373165E+03  0.00000000000E+00 0.  1.
         -3    1    6    6    0  503 -0.31304547420E+02 -0.10696452188E+02  0.56256158503E+02  0.65262118784E+02  0.00000000000E+00 0.  1.
<mgrwt>
<rscale>  0 0.28870280E+04</rscale>
<asrwt>0</asrwt>
<pdfrwt beam="1">  1        2 0.24069963E+00 0.28870280E+04</pdfrwt>
<pdfrwt beam="2">  1       -2 0.20489900E+00 0.28870280E+04</pdfrwt>
<totfact> 0.12462624E+00</totfact>
</mgrwt>
</event>
<event>
12    1  0.4403484E-008  0.1900620E+04  0.7818608E-02  0.8654548E-01
          2   -1    0    0  501    0  0.00000000000E+00  0.00000000000E+00  0.71641605527E+03  0.71641605527E+03  0.00000000000E+00 0. -1.
         -2   -1    0    0    0  501 -0.00000000000E+00 -0.00000000000E+00 -0.12605650251E+04  0.12605650251E+04  0.00000000000E+00 0.  1.
         23    2    1    2    0    0 -0.34436261783E+03  0.62160352665E+03 -0.38044065160E+03  0.81124219395E+03  0.91663793011E+02 0.  0.
        254    2    1    2    0    0  0.34436261783E+03 -0.62160352665E+03 -0.16370831825E+03  0.11657388865E+04  0.90948896696E+03 0.  0.
         23    2    4    4    0    0 -0.12516890217E+03 -0.13600486358E+02 -0.33938004408E+03  0.37250341283E+03  0.87907627386E+02 0.  0.
         23    2    4    4    0    0  0.46953151999E+03 -0.60800304029E+03  0.17567172583E+03  0.79323547362E+03  0.90743683471E+02 0.  0.
         11    1    3    3    0    0 -0.33996508588E+03  0.56276228299E+03 -0.34739347673E+03  0.74361271806E+03  0.00000000000E+00 0.  1.
        -11    1    3    3    0    0 -0.43975319418E+01  0.58841243661E+02 -0.33047174864E+02  0.67629475891E+02  0.00000000000E+00 0. -1.
          2    1    5    5  502    0 -0.78988843071E+02 -0.13089586991E+00 -0.30033185853E+03  0.31054545514E+03  0.00000000000E+00 0. -1.
          4    1    6    6  503    0  0.41301063183E+03 -0.57541909111E+03  0.16052055867E+03  0.72625874327E+03  0.00000000000E+00 0. -1.
         -2    1    5    5    0  502 -0.46180059094E+02 -0.13469590488E+02 -0.39048185551E+02  0.61957957687E+02  0.00000000000E+00 0.  1.
         -4    1    6    6    0  503  0.56520888162E+02 -0.32583949184E+02  0.15151167159E+02  0.66976730358E+02  0.00000000000E+00 0.  1.
<mgrwt>
<rscale>  0 0.19006199E+04</rscale>
<asrwt>0</asrwt>
<pdfrwt beam="1">  1        2 0.11021786E+00 0.19006199E+04</pdfrwt>
<pdfrwt beam="2">  1       -2 0.19393308E+00 0.19006199E+04</pdfrwt>
<totfact> 0.54314066E+00</totfact>
</mgrwt>
</event>
<event>
12    1  0.4403484E-008  0.1914408E+04  0.7818608E-02  0.8647718E-01
          1   -1    0    0  501    0  0.00000000000E+00  0.00000000000E+00  0.69209201748E+03  0.69209201748E+03  0.00000000000E+00 0. -1.
         -1   -1    0    0    0  501 -0.00000000000E+00 -0.00000000000E+00 -0.13238695603E+04  0.13238695603E+04  0.00000000000E+00 0.  1.
         23    2    1    2    0    0  0.10313384848E+03  0.38862158882E+03 -0.90783928373E+03  0.99714089269E+03  0.91948163513E+02 0.  0.
        254    2    1    2    0    0 -0.10313384848E+03 -0.38862158882E+03  0.27606174096E+03  0.10188206851E+04  0.89449548544E+03 0.  0.
         23    2    4    4    0    0  0.25313488575E+03  0.16262164549E+03  0.49553073073E+02  0.31839779594E+03  0.91643763784E+02 0.  0.
         23    2    4    4    0    0 -0.35626873423E+03 -0.55124323432E+03  0.22650866788E+03  0.70042288912E+03  0.92138659657E+02 0.  0.
         13    1    3    3    0    0 -0.77557236708E+01  0.35429372640E+01 -0.44822270255E+02  0.45626084260E+02  0.00000000000E+00 0. -1.
        -13    1    3    3    0    0  0.11088957215E+03  0.38507865156E+03 -0.86301701348E+03  0.95151480843E+03  0.00000000000E+00 0.  1.
          2    1    5    5  502    0  0.11448179878E+03  0.47501656925E+02  0.60355770785E+02  0.13785974296E+03  0.00000000000E+00 0. -1.
          3    1    6    6  503    0 -0.18568334099E+03 -0.21242027823E+03  0.74918339752E+02  0.29191340387E+03  0.00000000000E+00 0. -1.
         -2    1    5    5    0  502  0.13865308697E+03  0.11511998857E+03 -0.10802697713E+02  0.18053805297E+03  0.00000000000E+00 0.  1.
         -3    1    6    6    0  503 -0.17058539324E+03 -0.33882295608E+03  0.15159032813E+03  0.40850948525E+03  0.00000000000E+00 0.  1.
<mgrwt>
<rscale>  0 0.19144081E+04</rscale>
<asrwt>0</asrwt>
<pdfrwt beam="1">  1        1 0.10647570E+00 0.19144081E+04</pdfrwt>
<pdfrwt beam="2">  1       -1 0.20367224E+00 0.19144081E+04</pdfrwt>
<totfact> 0.36774731E+00</totfact>
</mgrwt>
</event>
<event>
12    1  0.4403484E-008  0.1434077E+04  0.7818608E-02  0.8929514E-01
          2   -1    0    0  501    0  0.00000000000E+00  0.00000000000E+00  0.20865166362E+04  0.20865166362E+04  0.00000000000E+00 0. -1.
         -2   -1    0    0    0  501 -0.00000000000E+00 -0.00000000000E+00 -0.24641281408E+03  0.24641281408E+03  0.00000000000E+00 0.  1.
         23    2    1    2    0    0  0.26119383755E+03 -0.14791541031E+03  0.10522417078E+04  0.10977796599E+04  0.88353725355E+02 0.  0.
        254    2    1    2    0    0 -0.26119383755E+03  0.14791541031E+03  0.78786211437E+03  0.12351497904E+04  0.90264450590E+03 0.  0.
         23    2    4    4    0    0 -0.84534419252E+02  0.51664693809E+03  0.46357122633E+03  0.70512582924E+03  0.90741536822E+02 0.  0.
         23    2    4    4    0    0 -0.17665941830E+03 -0.36873152778E+03  0.32429088804E+03  0.53002396114E+03  0.92678636504E+02 0.  0.
         11    1    3    3    0    0  0.11465178001E+03 -0.39271889769E+02  0.55639775608E+03  0.56944339048E+03  0.00000000000E+00 0. -1.
        -11    1    3    3    0    0  0.14654205754E+03 -0.10864352054E+03  0.49584395169E+03  0.52833626944E+03  0.00000000000E+00 0.  1.
          1    1    5    5  502    0 -0.35386401901E+02  0.14596145589E+03  0.83024442655E+02  0.17161002920E+03  0.00000000000E+00 0. -1.
          3    1    6    6  503    0 -0.34360451084E+02 -0.84868882166E+02  0.12567200162E+03  0.15548896987E+03  0.00000000000E+00 0. -1.
         -1    1    5    5    0  502 -0.49148017351E+02  0.37068548220E+03  0.38054678368E+03  0.53351580004E+03  0.00000000000E+00 0.  1.
         -3    1    6    6    0  503 -0.14229896722E+03 -0.28386264561E+03  0.19861888641E+03  0.37453499127E+03  0.00000000000E+00 0.  1.
<mgrwt>
<rscale>  0 0.14340773E+04</rscale>
<asrwt>0</asrwt>
<pdfrwt beam="1">  1        2 0.32100255E+00 0.14340773E+04</pdfrwt>
<pdfrwt beam="2">  1       -2 0.37909665E-01 0.14340773E+04</pdfrwt>
<totfact> 0.38153930E+01</totfact>
</mgrwt>
</event>
<event>
12    1  0.4403484E-008  0.2421912E+04  0.7818608E-02  0.8431345E-01
          1   -1    0    0  501    0  0.00000000000E+00  0.00000000000E+00  0.73442453097E+03  0.73442453097E+03  0.00000000000E+00 0. -1.
         -1   -1    0    0    0  501 -0.00000000000E+00 -0.00000000000E+00 -0.19966851784E+04  0.19966851784E+04  0.00000000000E+00 0.  1.
         23    2    1    2    0    0  0.50374823853E+02  0.39245849202E+02 -0.17193408366E+04  0.17229155872E+04  0.90704733139E+02 0.  0.
        254    2    1    2    0    0 -0.50374823853E+02 -0.39245849202E+02  0.45708018914E+03  0.10081941222E+04  0.89635664174E+03 0.  0.
         23    2    4    4    0    0  0.29966203747E+03 -0.16303147074E+03 -0.67059414399E+02  0.35957562608E+03  0.91766380878E+02 0.  0.
         23    2    4    4    0    0 -0.35003686132E+03  0.12378562154E+03  0.52413960354E+03  0.64861849613E+03  0.90193930718E+02 0.  0.
         13    1    3    3    0    0  0.22659236270E+02 -0.17122350256E+02 -0.17432235846E+03  0.17662078169E+03  0.00000000000E+00 0. -1.
        -13    1    3    3    0    0  0.27715587582E+02  0.56368199458E+02 -0.15450184781E+04  0.15462948055E+04  0.00000000000E+00 0.  1.
          4    1    5    5  502    0  0.14388507621E+03 -0.77842830520E+02  0.14413930272E+02  0.16422601136E+03  0.00000000000E+00 0. -1.
          3    1    6    6  503    0 -0.22483153700E+03  0.11662669122E+03  0.30839317121E+03  0.39907061178E+03  0.00000000000E+00 0. -1.
         -4    1    5    5    0  502  0.15577696126E+03 -0.85188640218E+02 -0.81473344670E+02  0.19534961472E+03  0.00000000000E+00 0.  1.
         -3    1    6    6    0  503 -0.12520532432E+03  0.71589303172E+01  0.21574643233E+03  0.24954788435E+03  0.00000000000E+00 0.  1.
<mgrwt>
<rscale>  0 0.24219121E+04</rscale>
<asrwt>0</asrwt>
<pdfrwt beam="1">  1        1 0.11298839E+00 0.24219121E+04</pdfrwt>
<pdfrwt beam="2">  1       -1 0.30718233E+00 0.24219121E+04</pdfrwt>
<totfact> 0.67152264E-01</totfact>
</mgrwt>
</event>
<event>
12    1  0.4403484E-008  0.1363019E+04  0.7818608E-02  0.8981031E-01
          1   -1    0    0  501    0  0.00000000000E+00  0.00000000000E+00  0.20944439638E+04  0.20944439638E+04  0.00000000000E+00 0. -1.
         -1   -1    0    0    0  501 -0.00000000000E+00 -0.00000000000E+00 -0.22175580037E+03  0.22175580037E+03  0.00000000000E+00 0.  1.
         23    2    1    2    0    0 -0.12319172133E+03  0.20528214762E+03  0.92576413870E+03  0.96054575706E+03  0.91060148122E+02 0.  0.
        254    2    1    2    0    0  0.12319172133E+03 -0.20528214762E+03  0.94692402476E+03  0.13556540071E+04  0.94011473666E+03 0.  0.
         23    2    4    4    0    0 -0.29542898783E+03  0.75736115824E+02  0.48973177101E+02  0.32183028680E+03  0.90344426167E+02 0.  0.
         23    2    4    4    0    0  0.41862070916E+03 -0.28101826344E+03  0.89795084766E+03  0.10338237203E+04  0.90891129413E+02 0.  0.
         11    1    3    3    0    0 -0.11426648754E+03  0.21466021038E+03  0.87645890728E+03  0.90956915748E+03  0.00000000000E+00 0. -1.
        -11    1    3    3    0    0 -0.89252337878E+01 -0.93780627630E+01  0.49305231420E+02  0.50976599580E+02  0.00000000000E+00 0.  1.
          3    1    5    5  502    0 -0.11176920951E+03 -0.12395539193E+02  0.60529636745E+00  0.11245608907E+03  0.00000000000E+00 0. -1.
          3    1    6    6  503    0  0.34814915540E+02 -0.24088717662E+02  0.13977074822E+03  0.14604179786E+03  0.00000000000E+00 0. -1.
         -3    1    5    5    0  502 -0.18365977832E+03  0.88131655017E+02  0.48367880734E+02  0.20937419773E+03  0.00000000000E+00 0.  1.
         -3    1    6    6    0  503  0.38380579362E+03 -0.25692954578E+03  0.75818009944E+03  0.88778192249E+03  0.00000000000E+00 0.  1.
<mgrwt>
<rscale>  0 0.13630189E+04</rscale>
<asrwt>0</asrwt>
<pdfrwt beam="1">  1        1 0.32222213E+00 0.13630189E+04</pdfrwt>
<pdfrwt beam="2">  1       -1 0.34116278E-01 0.13630189E+04</pdfrwt>
<totfact> 0.20450881E+01</totfact>
</mgrwt>
</event>
<event>
12    1  0.4403484E-008  0.2091725E+04  0.7818608E-02  0.8564897E-01
          1   -1    0    0  501    0  0.00000000000E+00  0.00000000000E+00  0.12394916539E+04  0.12394916539E+04  0.00000000000E+00 0. -1.
         -1   -1    0    0    0  501 -0.00000000000E+00 -0.00000000000E+00 -0.88248183434E+03  0.88248183434E+03  0.00000000000E+00 0.  1.
         23    2    1    2    0    0 -0.39319738568E+03 -0.41790614682E+03  0.77921969944E+03  0.97175972344E+03  0.88791263275E+02 0.  0.
        254    2    1    2    0    0  0.39319738568E+03  0.41790614682E+03 -0.42220987985E+03  0.11502137648E+04  0.90303975025E+03 0.  0.
         23    2    4    4    0    0  0.16232872623E+03  0.52087507673E+03  0.10151106713E+03  0.56208639003E+03  0.89303707609E+02 0.  0.
         23    2    4    4    0    0  0.23086865945E+03 -0.10296892991E+03 -0.52372094697E+03  0.58812737481E+03  0.87790889360E+02 0.  0.
         11    1    3    3    0    0 -0.10889244052E+02 -0.43683683687E+02  0.73374455678E+02  0.86085135782E+02  0.00000000000E+00 0.  1.
        -11    1    3    3    0    0 -0.38230814163E+03 -0.37422246314E+03  0.70584524376E+03  0.88567458765E+03  0.00000000000E+00 0. -1.
          4    1    5    5  502    0  0.50090952721E+02  0.13095749248E+03 -0.12097860118E+02  0.14073139877E+03  0.00000000000E+00 0. -1.
          3    1    6    6  503    0  0.52305309334E+01 -0.18748740588E+02 -0.12828909840E+02  0.23312113914E+02  0.00000000000E+00 0. -1.
         -4    1    5    5    0  502  0.11223777351E+03  0.38991758426E+03  0.11360892724E+03  0.42135499126E+03  0.00000000000E+00 0.  1.
         -3    1    6    6    0  503  0.22563812852E+03 -0.84220189321E+02 -0.51089203713E+03  0.56481526089E+03  0.00000000000E+00 0.  1.
<mgrwt>
<rscale>  0 0.20917255E+04</rscale>
<asrwt>0</asrwt>
<pdfrwt beam="1">  1        1 0.19069102E+00 0.20917255E+04</pdfrwt>
<pdfrwt beam="2">  1       -1 0.13576644E+00 0.20917255E+04</pdfrwt>
<totfact> 0.41787931E+00</totfact>
</mgrwt>
</event>
<event>
12    1  0.4403484E-008  0.1885895E+04  0.7818608E-02  0.8661910E-01
          1   -1    0    0  501    0  0.00000000000E+00  0.00000000000E+00  0.36938307481E+03  0.36938307481E+03  0.00000000000E+00 0. -1.
         -1   -1    0    0    0  501 -0.00000000000E+00 -0.00000000000E+00 -0.24071207065E+04  0.24071207065E+04  0.00000000000E+00 0.  1.
         23    2    1    2    0    0  0.18998856429E+03  0.23470794376E+02  0.24047922541E+03  0.32061942542E+03  0.91214172960E+02 0.  0.
        254    2    1    2    0    0 -0.18998856429E+03 -0.23470794376E+02 -0.22782168571E+04  0.24558843559E+04  0.89691102613E+03 0.  0.
         23    2    4    4    0    0 -0.75078306011E+02 -0.40567310778E+03 -0.63935244169E+03  0.76649637531E+03  0.92399817441E+02 0.  0.
         23    2    4    4    0    0 -0.11491025828E+03  0.38220231341E+03 -0.16388644154E+04  0.16893879805E+04  0.94192361697E+02 0.  0.
         13    1    3    3    0    0 -0.23487005903E+01  0.18957613104E+02  0.15527554880E+02  0.24617320114E+02  0.00000000000E+00 0.  1.
        -13    1    3    3    0    0  0.19233726488E+03  0.45131812722E+01  0.22495167053E+03  0.29600210530E+03  0.00000000000E+00 0. -1.
          2    1    5    5  502    0 -0.41913170786E+02 -0.78793054490E+02 -0.92521006513E+02  0.12855036354E+03  0.00000000000E+00 0. -1.
          3    1    6    6  503    0 -0.16219473861E+02  0.10751731775E+02 -0.34297879835E+02  0.39433686483E+02  0.00000000000E+00 0. -1.
         -2    1    5    5    0  502 -0.33165135225E+02 -0.32688005329E+03 -0.54683143518E+03  0.63794601177E+03  0.00000000000E+00 0.  1.
         -3    1    6    6    0  503 -0.98690784417E+02  0.37145058163E+03 -0.16045665355E+04  0.16499542941E+04  0.00000000000E+00 0.  1.
<mgrwt>
<rscale>  0 0.18858946E+04</rscale>
<asrwt>0</asrwt>
<pdfrwt beam="1">  1        1 0.56828166E-01 0.18858946E+04</pdfrwt>
<pdfrwt beam="2">  1       -1 0.37032626E+00 0.18858946E+04</pdfrwt>
<totfact> 0.71194768E-01</totfact>
</mgrwt>
</event>
<event>
12    1  0.4403484E-008  0.2642470E+04  0.7818608E-02  0.8353917E-01
         -2   -1    0    0    0  501 -0.00000000000E+00  0.00000000000E+00  0.86384645903E+03  0.86384645903E+03  0.00000000000E+00 0.  1.
          2   -1    0    0  501    0  0.00000000000E+00 -0.00000000000E+00 -0.20208009956E+04  0.20208009956E+04  0.00000000000E+00 0. -1.
         23    2    1    2    0    0  0.47733580138E+03  0.50763793039E+03  0.50476036473E+03  0.86497564072E+03  0.88623346722E+02 0.  0.
        254    2    1    2    0    0 -0.47733580138E+03 -0.50763793039E+03 -0.16617149013E+04  0.20196718140E+04  0.91226755235E+03 0.  0.
         23    2    4    4    0    0 -0.83894876271E+02  0.17658626045E+03 -0.87627249552E+03  0.90248253144E+03  0.91652471365E+02 0.  0.
         23    2    4    4    0    0 -0.39344092511E+03 -0.68422419084E+03 -0.78544240583E+03  0.11171892825E+04  0.90739270493E+02 0.  0.
         11    1    3    3    0    0  0.35065453629E+03  0.42235320869E+03  0.37792996856E+03  0.66646222537E+03  0.00000000000E+00 0.  1.
        -11    1    3    3    0    0  0.12668126509E+03  0.85284721703E+02  0.12683039617E+03  0.19851341535E+03  0.00000000000E+00 0. -1.
          2    1    5    5  502    0 -0.98445143281E+02  0.11803351087E+03 -0.57225928565E+03  0.59254033275E+03  0.00000000000E+00 0. -1.
          4    1    6    6  503    0 -0.39552185238E+03 -0.68583183561E+03 -0.78149749738E+03  0.11124482823E+04  0.00000000000E+00 0. -1.
         -2    1    5    5    0  502  0.14550267010E+02  0.58552749572E+02 -0.30401320987E+03  0.30994219869E+03  0.00000000000E+00 0.  1.
         -4    1    6    6    0  503  0.20809272757E+01  0.16076447747E+01 -0.39449084446E+01  0.47410001776E+01  0.00000000000E+00 0.  1.
<mgrwt>
<rscale>  0 0.26424699E+04</rscale>
<asrwt>0</asrwt>
<pdfrwt beam="1">  1        2 0.31089246E+00 0.26424699E+04</pdfrwt>
<pdfrwt beam="2">  1       -2 0.13289945E+00 0.26424699E+04</pdfrwt>
<totfact> 0.23547126E+00</totfact>
</mgrwt>
</event>
<event>
12    1  0.4403484E-008  0.2009640E+04  0.7818608E-02  0.8602127E-01
         -2   -1    0    0    0  501 -0.00000000000E+00  0.00000000000E+00  0.11529167322E+04  0.11529167322E+04  0.00000000000E+00 0. -1.
          2   -1    0    0  501    0  0.00000000000E+00 -0.00000000000E+00 -0.87574705790E+03  0.87574705790E+03  0.00000000000E+00 0.  1.
         23    2    1    2    0    0  0.61020986738E+03  0.42662341241E+03  0.39911252545E+03  0.84976747367E+03  0.91925693181E+02 0.  0.
        254    2    1    2    0    0 -0.61020986738E+03 -0.42662341241E+03 -0.12194285116E+03  0.11788963164E+04  0.90584924115E+03 0.  0.
         23    2    4    4    0    0 -0.29935313498E+03 -0.68834200782E+03 -0.94182913735E+02  0.76219459875E+03  0.92968628969E+02 0.  0.
         23    2    4    4    0    0 -0.31085673240E+03  0.26171859541E+03 -0.27759937422E+02  0.41670171769E+03  0.87983953837E+02 0.  0.
         11    1    3    3    0    0  0.14464569103E+03  0.91415681985E+02  0.50253389507E+02  0.17833845912E+03  0.00000000000E+00 0.  1.
        -11    1    3    3    0    0  0.46556417635E+03  0.33520773042E+03  0.34885913594E+03  0.67142901454E+03  0.00000000000E+00 0. -1.
          4    1    5    5  502    0 -0.29656353360E+03 -0.62853040728E+03 -0.99558630150E+02  0.70207714902E+03  0.00000000000E+00 0. -1.
          3    1    6    6  503    0 -0.28047522049E+03  0.23717838744E+03 -0.51637282709E+02  0.37092633466E+03  0.00000000000E+00 0. -1.
         -4    1    5    5    0  502 -0.27896013756E+01 -0.59811600545E+02  0.53757164143E+01  0.60117449734E+02  0.00000000000E+00 0.  1.
         -3    1    6    6    0  503 -0.30381511909E+02  0.24540207976E+02  0.23877345287E+02  0.45775383027E+02  0.00000000000E+00 0.  1.
<mgrwt>
<rscale>  0 0.20096402E+04</rscale>
<asrwt>0</asrwt>
<pdfrwt beam="1">  1        2 0.13473032E+00 0.20096402E+04</pdfrwt>
<pdfrwt beam="2">  1       -2 0.17737181E+00 0.20096402E+04</pdfrwt>
<totfact> 0.53455672E+00</totfact>
</mgrwt>
</event>
<event>
12    1  0.4403484E-008  0.1996360E+04  0.7818608E-02  0.8608324E-01
         -2   -1    0    0    0  501 -0.00000000000E+00  0.00000000000E+00  0.11766862675E+04  0.11766862675E+04  0.00000000000E+00 0.  1.
          2   -1    0    0  501    0  0.00000000000E+00 -0.00000000000E+00 -0.84675343637E+03  0.84675343637E+03  0.00000000000E+00 0. -1.
         23    2    1    2    0    0  0.26742460775E+03 -0.27787440608E+03 -0.56607691856E+03  0.69064307291E+03  0.88400622376E+02 0.  0.
        254    2    1    2    0    0 -0.26742460775E+03  0.27787440608E+03  0.89600974973E+03  0.13327966310E+04  0.90817579886E+03 0.  0.
         23    2    4    4    0    0  0.25308708762E+03  0.31985936074E+03  0.21481302964E+03  0.46984517654E+03  0.90811715345E+02 0.  0.
         23    2    4    4    0    0 -0.52051169537E+03 -0.41984954656E+02  0.68119672008E+03  0.86295145446E+03  0.89224883702E+02 0.  0.
         13    1    3    3    0    0  0.22113520495E+03 -0.26841339309E+03 -0.48493439504E+03  0.59674776577E+03  0.00000000000E+00 0. -1.
        -13    1    3    3    0    0  0.46289402799E+02 -0.94610129924E+01 -0.81142523525E+02  0.93895307136E+02  0.00000000000E+00 0.  1.
          2    1    5    5  502    0  0.15605800194E+03  0.16593993755E+03  0.73154319753E+02  0.23925241345E+03  0.00000000000E+00 0. -1.
          1    1    6    6  503    0 -0.51625427281E+03 -0.35426250402E+02  0.65019892242E+03  0.83098263046E+03  0.00000000000E+00 0.  1.
         -2    1    5    5    0  502  0.97029085680E+02  0.15391942319E+03  0.14165870989E+03  0.23059276309E+03  0.00000000000E+00 0.  1.
         -1    1    6    6    0  503 -0.42574225684E+01 -0.65587042539E+01  0.30997797658E+02  0.31968824002E+02  0.00000000000E+00 0. -1.
<mgrwt>
<rscale>  0 0.19963598E+04</rscale>
<asrwt>0</asrwt>
<pdfrwt beam="1">  1        2 0.13026976E+00 0.19963598E+04</pdfrwt>
<pdfrwt beam="2">  1       -2 0.18102866E+00 0.19963598E+04</pdfrwt>
<totfact> 0.52869258E+00</totfact>
</mgrwt>
</event>
<event>
12    1  0.4403484E-008  0.2440497E+04  0.7818608E-02  0.8424496E-01
         -1   -1    0    0    0  501 -0.00000000000E+00  0.00000000000E+00  0.67452842043E+03  0.67452842043E+03  0.00000000000E+00 0.  1.
          1   -1    0    0  501    0  0.00000000000E+00 -0.00000000000E+00 -0.22074776305E+04  0.22074776305E+04  0.00000000000E+00 0. -1.
         23    2    1    2    0    0 -0.82066426053E+03  0.55661994305E+03 -0.10987963193E+04  0.14829311465E+04  0.91737910453E+02 0.  0.
        254    2    1    2    0    0  0.82066426053E+03 -0.55661994305E+03 -0.43415289075E+03  0.13990749045E+04  0.88634432716E+03 0.  0.
         23    2    4    4    0    0  0.25717469789E+03 -0.65036945193E+03 -0.54960273540E+02  0.70704743309E+03  0.88182717899E+02 0.  0.
         23    2    4    4    0    0  0.56348956265E+03  0.93749508883E+02 -0.37919261721E+03  0.69202747139E+03  0.93837746065E+02 0.  0.
         11    1    3    3    0    0 -0.58436872507E+03  0.34548783862E+03 -0.75978259780E+03  0.10188808809E+04  0.00000000000E+00 0. -1.
        -11    1    3    3    0    0 -0.23629553546E+03  0.21113210443E+03 -0.33901372154E+03  0.46405026559E+03  0.00000000000E+00 0.  1.
          1    1    5    5  502    0  0.23401551275E+03 -0.57548176126E+03 -0.76030878674E+02  0.62587795317E+03  0.00000000000E+00 0. -1.
          1    1    6    6  503    0  0.41662842925E+03  0.10709190339E+03 -0.26212912036E+03  0.50374557028E+03  0.00000000000E+00 0. -1.
         -1    1    5    5    0  502  0.23159185133E+02 -0.74887690676E+02  0.21070605134E+02  0.81169479926E+02  0.00000000000E+00 0.  1.
         -1    1    6    6    0  503  0.14686113339E+03 -0.13342394503E+02 -0.11706349685E+03  0.18828190111E+03  0.00000000000E+00 0.  1.
<mgrwt>
<rscale>  0 0.24404970E+04</rscale>
<asrwt>0</asrwt>
<pdfrwt beam="1">  1        1 0.33961194E+00 0.24404970E+04</pdfrwt>
<pdfrwt beam="2">  1       -1 0.10377360E+00 0.24404970E+04</pdfrwt>
<totfact> 0.16818585E+00</totfact>
</mgrwt>
</event>
<event>
12    1  0.4403484E-008  0.1052486E+04  0.7818608E-02  0.9252781E-01
         -2   -1    0    0    0  501 -0.00000000000E+00  0.00000000000E+00  0.27777422951E+03  0.27777422951E+03  0.00000000000E+00 0.  1.
          2   -1    0    0  501    0  0.00000000000E+00 -0.00000000000E+00 -0.99696694594E+03  0.99696694594E+03  0.00000000000E+00 0. -1.
         23    2    1    2    0    0 -0.95492826109E+02 -0.36665111864E+02 -0.14751420139E+03  0.20205690843E+03  0.92754214821E+02 0.  0.
        254    2    1    2    0    0  0.95492826109E+02  0.36665111864E+02 -0.57167851504E+03  0.10726842670E+04  0.90187138876E+03 0.  0.
         23    2    4    4    0    0 -0.31279073882E+03 -0.22399689939E+03 -0.36408560978E+03  0.53751951906E+03  0.91412498568E+02 0.  0.
         23    2    4    4    0    0  0.40828356493E+03  0.26066201125E+03 -0.20759290526E+03  0.53516474795E+03  0.93093177123E+02 0.  0.
         13    1    3    3    0    0  0.14776534050E+02 -0.92899592080E+01 -0.21908382866E+01  0.17591164629E+02  0.00000000000E+00 0.  1.
        -13    1    3    3    0    0 -0.11026936016E+03 -0.27375152656E+02 -0.14532336310E+03  0.18446574380E+03  0.00000000000E+00 0. -1.
          2    1    5    5  502    0 -0.26917024908E+03 -0.22637923705E+03 -0.32620480281E+03  0.47969756653E+03  0.00000000000E+00 0.  1.
          4    1    6    6  503    0  0.29318717022E+02  0.32907807717E+02  0.53895269191E+01  0.44402229414E+02  0.00000000000E+00 0. -1.
         -2    1    5    5    0  502 -0.43620489740E+02  0.23823376605E+01 -0.37880806971E+02  0.57821952532E+02  0.00000000000E+00 0. -1.
         -4    1    6    6    0  503  0.37896484791E+03  0.22775420354E+03 -0.21298243218E+03  0.49076251853E+03  0.00000000000E+00 0.  1.
<mgrwt>
<rscale>  0 0.10524861E+04</rscale>
<asrwt>0</asrwt>
<pdfrwt beam="1">  1        2 0.15337953E+00 0.10524861E+04</pdfrwt>
<pdfrwt beam="2">  1       -2 0.42734498E-01 0.10524861E+04</pdfrwt>
<totfact> 0.13068210E+02</totfact>
</mgrwt>
</event>
<event>
12    1  0.4403484E-008  0.2204532E+04  0.7818608E-02  0.8516544E-01
         -2   -1    0    0    0  501 -0.00000000000E+00  0.00000000000E+00  0.68970027360E+03  0.68970027360E+03  0.00000000000E+00 0.  1.
          2   -1    0    0  501    0  0.00000000000E+00 -0.00000000000E+00 -0.17616211694E+04  0.17616211694E+04  0.00000000000E+00 0. -1.
         23    2    1    2    0    0  0.20484551960E+03 -0.32604754772E+03  0.47639572790E+03  0.61939371737E+03  0.91798678031E+02 0.  0.
        254    2    1    2    0    0 -0.20484551960E+03  0.32604754772E+03 -0.15483166237E+04  0.18319277257E+04  0.90022560195E+03 0.  0.
         23    2    4    4    0    0  0.36423953929E+02 -0.29261880055E+03 -0.46957592360E+03  0.56191050445E+03  0.91046142891E+02 0.  0.
         23    2    4    4    0    0 -0.24126947353E+03  0.61866634826E+03 -0.10787407001E+04  0.12700172212E+04  0.91122086727E+02 0.  0.
         11    1    3    3    0    0  0.56081351373E+02 -0.16216499023E+03  0.24577762800E+03  0.29974863545E+03  0.00000000000E+00 0. -1.
        -11    1    3    3    0    0  0.14876416823E+03 -0.16388255749E+03  0.23061809990E+03  0.31964508192E+03  0.00000000000E+00 0.  1.
          4    1    5    5  502    0 -0.91232579190E+01 -0.63780258156E+01 -0.54675646362E+02  0.55797305970E+02  0.00000000000E+00 0. -1.
          3    1    6    6  503    0 -0.32639354917E+02  0.92557281826E+02 -0.22788693520E+03  0.24812221413E+03  0.00000000000E+00 0. -1.
         -4    1    5    5    0  502  0.45547211848E+02 -0.28624077473E+03 -0.41490027724E+03  0.50611319848E+03  0.00000000000E+00 0.  1.
         -3    1    6    6    0  503 -0.20863011862E+03  0.52610906644E+03 -0.85085376494E+03  0.10218950071E+04  0.00000000000E+00 0.  1.
<mgrwt>
<rscale>  0 0.22045322E+04</rscale>
<asrwt>0</asrwt>
<pdfrwt beam="1">  1        2 0.27101864E+00 0.22045322E+04</pdfrwt>
<pdfrwt beam="2">  1       -2 0.10610773E+00 0.22045322E+04</pdfrwt>
<totfact> 0.59355626E+00</totfact>
</mgrwt>
</event>
<event>
12    1  0.4403484E-008  0.1681184E+04  0.7818608E-02  0.8772169E-01
         -1   -1    0    0    0  501 -0.00000000000E+00  0.00000000000E+00  0.83384180108E+03  0.83384180108E+03  0.00000000000E+00 0.  1.
          1   -1    0    0  501    0  0.00000000000E+00 -0.00000000000E+00 -0.84739727617E+03  0.84739727617E+03  0.00000000000E+00 0. -1.
         23    2    1    2    0    0  0.44192764101E+03 -0.31005813229E+03  0.25117176470E+03  0.60263906981E+03  0.93008106037E+02 0.  0.
        254    2    1    2    0    0 -0.44192764101E+03  0.31005813229E+03 -0.26472723979E+03  0.10786000074E+04  0.89546712909E+03 0.  0.
         23    2    4    4    0    0 -0.55953542025E+03 -0.46837807304E+02  0.61566806612E+02  0.57238355349E+03  0.92513749913E+02 0.  0.
         23    2    4    4    0    0  0.11760777925E+03  0.35689593960E+03 -0.32629404640E+03  0.50621645395E+03  0.92633644497E+02 0.  0.
         11    1    3    3    0    0  0.43468548125E+03 -0.30206222520E+03  0.25901007447E+03  0.58930405919E+03  0.00000000000E+00 0.  1.
        -11    1    3    3    0    0  0.72421597572E+01 -0.79959070905E+01 -0.78383097662E+01  0.13335010616E+02  0.00000000000E+00 0. -1.
          2    1    5    5  502    0 -0.30173116878E+03 -0.70229549490E+02  0.44261865049E+02  0.31294248758E+03  0.00000000000E+00 0. -1.
          1    1    6    6  503    0  0.11834426249E+02  0.65349750189E+01  0.30590250161E+01  0.13860634084E+02  0.00000000000E+00 0. -1.
         -2    1    5    5    0  502 -0.25780425147E+03  0.23391742187E+02  0.17304941563E+02  0.25944106591E+03  0.00000000000E+00 0.  1.
         -1    1    6    6    0  503  0.10577335300E+03  0.35036096458E+03 -0.32935307142E+03  0.49235581987E+03  0.00000000000E+00 0.  1.
<mgrwt>
<rscale>  0 0.16811844E+04</rscale>
<asrwt>0</asrwt>
<pdfrwt beam="1">  1        1 0.13036881E+00 0.16811844E+04</pdfrwt>
<pdfrwt beam="2">  1       -1 0.12828335E+00 0.16811844E+04</pdfrwt>
<totfact> 0.10063826E+01</totfact>
</mgrwt>
</event>
<event>
12    1  0.4403484E-008  0.1405100E+04  0.7818608E-02  0.8950135E-01
          2   -1    0    0  501    0  0.00000000000E+00  0.00000000000E+00  0.50749265955E+03  0.50749265955E+03  0.00000000000E+00 0. -1.
         -2   -1    0    0    0  501 -0.00000000000E+00 -0.00000000000E+00 -0.97257846064E+03  0.97257846064E+03  0.00000000000E+00 0.  1.
         23    2    1    2    0    0  0.11346210254E+03 -0.37334523899E+02  0.26624822151E+03  0.30538942868E+03  0.90039282015E+02 0.  0.
        254    2    1    2    0    0 -0.11346210254E+03  0.37334523899E+02 -0.73133402261E+03  0.11746816915E+04  0.91146042610E+03 0.  0.
         23    2    4    4    0    0  0.10867264792E+03  0.30158654969E+03  0.29680723738E+02  0.33449723157E+03  0.90792407236E+02 0.  0.
         23    2    4    4    0    0 -0.22213475046E+03 -0.26425202579E+03 -0.76101474635E+03  0.84018445993E+03  0.87140702633E+02 0.  0.
         13    1    3    3    0    0  0.61625645366E+02 -0.63070774689E+01  0.46417416110E+02  0.77408500252E+02  0.00000000000E+00 0.  1.
        -13    1    3    3    0    0  0.51836457170E+02 -0.31027446431E+02  0.21983080540E+03  0.22798092843E+03  0.00000000000E+00 0. -1.
          1    1    5    5  502    0  0.83344947998E+02  0.10087231055E+03  0.13548291447E+02  0.13154907675E+03  0.00000000000E+00 0. -1.
          1    1    6    6  503    0 -0.14890860739E+03 -0.11223843114E+03 -0.37059661237E+03  0.41486514421E+03  0.00000000000E+00 0. -1.
         -1    1    5    5    0  502  0.25327699924E+02  0.20071423914E+03  0.16132432292E+02  0.20294815483E+03  0.00000000000E+00 0.  1.
         -1    1    6    6    0  503 -0.73226143067E+02 -0.15201359465E+03 -0.39041813398E+03  0.42531931572E+03  0.00000000000E+00 0.  1.
<mgrwt>
<rscale>  0 0.14050999E+04</rscale>
<asrwt>0</asrwt>
<pdfrwt beam="1">  1        2 0.78075794E-01 0.14050999E+04</pdfrwt>
<pdfrwt beam="2">  1       -2 0.14962745E+00 0.14050999E+04</pdfrwt>
<totfact> 0.17743756E+01</totfact>
</mgrwt>
</event>
<event>
12    1  0.4403484E-008  0.1965062E+04  0.7818608E-02  0.8623132E-01
          1   -1    0    0  501    0  0.00000000000E+00  0.00000000000E+00  0.28102999297E+04  0.28102999297E+04  0.00000000000E+00 0. -1.
         -1   -1    0    0    0  501 -0.00000000000E+00 -0.00000000000E+00 -0.34351038817E+03  0.34351038817E+03  0.00000000000E+00 0.  1.
         23    2    1    2    0    0 -0.32559483631E+03  0.64119726535E+03  0.12254081910E+04  0.14237767091E+04  0.91481977547E+02 0.  0.
        254    2    1    2    0    0  0.32559483631E+03 -0.64119726535E+03  0.12413813505E+04  0.17300336088E+04  0.96687263878E+03 0.  0.
         23    2    4    4    0    0 -0.23224689086E+03  0.79359828589E+02  0.44660504843E+03  0.51740988198E+03  0.89556216860E+02 0.  0.
         23    2    4    4    0    0  0.55784172717E+03 -0.72055709394E+03  0.79477630208E+03  0.12126237268E+04  0.91635224004E+02 0.  0.
         11    1    3    3    0    0 -0.65937937008E+02  0.63442898318E+02  0.15428172823E+03  0.17937576355E+03  0.00000000000E+00 0.  1.
        -11    1    3    3    0    0 -0.25965689930E+03  0.57775436703E+03  0.10711264628E+04  0.12444009456E+04  0.00000000000E+00 0. -1.
          3    1    5    5  502    0 -0.15708169222E+03  0.20543313031E+02  0.33493489972E+03  0.37051055692E+03  0.00000000000E+00 0. -1.
          3    1    6    6  503    0  0.41490850286E+03 -0.46767903251E+03  0.55370210241E+03  0.83513996516E+03  0.00000000000E+00 0. -1.
         -3    1    5    5    0  502 -0.75165198643E+02  0.58816515558E+02  0.11167014871E+03  0.14689932506E+03  0.00000000000E+00 0.  1.
         -3    1    6    6    0  503  0.14293322432E+03 -0.25287806143E+03  0.24107419968E+03  0.37748376166E+03  0.00000000000E+00 0.  1.
<mgrwt>
<rscale>  0 0.19650621E+04</rscale>
<asrwt>0</asrwt>
<pdfrwt beam="1">  1        1 0.43235382E+00 0.19650621E+04</pdfrwt>
<pdfrwt beam="2">  1       -1 0.52847754E-01 0.19650621E+04</pdfrwt>
<totfact> 0.27556950E+00</totfact>
</mgrwt>
</event>
<event>
12    1  0.4403484E-008  0.1183310E+04  0.7818608E-02  0.9127592E-01
          1   -1    0    0  501    0  0.00000000000E+00  0.00000000000E+00  0.20853055546E+04  0.20853055546E+04  0.00000000000E+00 0. -1.
         -1   -1    0    0    0  501 -0.00000000000E+00 -0.00000000000E+00 -0.16786768120E+03  0.16786768120E+03  0.00000000000E+00 0.  1.
         23    2    1    2    0    0 -0.16101050291E+03  0.18018206082E+00  0.56046971529E+03  0.58904387754E+03  0.83198397807E+02 0.  0.
        254    2    1    2    0    0  0.16101050291E+03 -0.18018206082E+00  0.13569681581E+04  0.16641293582E+04  0.94975761346E+03 0.  0.
         23    2    4    4    0    0  0.14272286124E+02  0.57810829249E+02  0.14539294740E+04  0.14583189086E+04  0.96111048793E+02 0.  0.
         23    2    4    4    0    0  0.14673821679E+03 -0.57991011310E+02 -0.96961315947E+02  0.20581044959E+03  0.89785203179E+02 0.  0.
         13    1    3    3    0    0 -0.91444764425E+01 -0.20538064861E+02  0.13387820299E+03  0.13575274139E+03  0.00000000000E+00 0.  1.
        -13    1    3    3    0    0 -0.15186602647E+03  0.20718246921E+02  0.42659151230E+03  0.45329113616E+03  0.00000000000E+00 0. -1.
          1    1    6    6  502    0  0.13696465828E+03 -0.77463314548E+02 -0.95295186590E+02  0.18395938494E+03  0.00000000000E+00 0. -1.
          1    1    5    5  503    0  0.35028979530E+02  0.65335550368E+02  0.13517508134E+04  0.13537821188E+04  0.00000000000E+00 0. -1.
         -1    1    5    5    0  503 -0.20756693406E+02 -0.75247211191E+01  0.10217866062E+03  0.10453678987E+03  0.00000000000E+00 0.  1.
         -1    1    6    6    0  502  0.97735585045E+01  0.19472303238E+02 -0.16661293572E+01  0.21851064648E+02  0.00000000000E+00 0.  1.
<mgrwt>
<rscale>  0 0.11833096E+04</rscale>
<asrwt>0</asrwt>
<pdfrwt beam="1">  1        1 0.32081622E+00 0.11833096E+04</pdfrwt>
<pdfrwt beam="2">  1       -1 0.25825799E-01 0.11833096E+04</pdfrwt>
<totfact> 0.34316822E+01</totfact>
</mgrwt>
</event>
<event>
12    1  0.4403484E-008  0.1712837E+04  0.7818608E-02  0.8754076E-01
          2   -1    0    0  501    0  0.00000000000E+00  0.00000000000E+00  0.53050317088E+03  0.53050317088E+03  0.00000000000E+00 0.  1.
         -2   -1    0    0    0  501 -0.00000000000E+00 -0.00000000000E+00 -0.13825607863E+04  0.13825607863E+04  0.00000000000E+00 0. -1.
         23    2    1    2    0    0 -0.12426012876E+03  0.35343039983E+03  0.23458312171E+03  0.45172779833E+03  0.93140408336E+02 0.  0.
        254    2    1    2    0    0  0.12426012876E+03 -0.35343039983E+03 -0.10866407372E+04  0.14613361589E+04  0.90241988592E+03 0.  0.
         23    2    4    4    0    0  0.35072901020E+03 -0.23906453137E+03 -0.10753570018E+03  0.44625540522E+03  0.86123580509E+02 0.  0.
         23    2    4    4    0    0 -0.22646888145E+03 -0.11436586846E+03 -0.97910503699E+03  0.10150807537E+04  0.85875240285E+02 0.  0.
         11    1    3    3    0    0 -0.43201076712E+02  0.25324184508E+03  0.16411443637E+03  0.30484637664E+03  0.00000000000E+00 0.  1.
        -11    1    3    3    0    0 -0.81059052043E+02  0.10018855476E+03  0.70468685340E+02  0.14688142168E+03  0.00000000000E+00 0. -1.
          1    1    5    5  502    0  0.26108024238E+03 -0.19005369887E+03 -0.11740378839E+03  0.34360871779E+03  0.00000000000E+00 0.  1.
          1    1    6    6  503    0 -0.88892445594E+02 -0.89072181661E+02 -0.52781074564E+03  0.54260473979E+03  0.00000000000E+00 0. -1.
         -1    1    5    5    0  502  0.89648767823E+02 -0.49010832502E+02  0.98680882185E+01  0.10264668743E+03  0.00000000000E+00 0. -1.
         -1    1    6    6    0  503 -0.13757643585E+03 -0.25293686803E+02 -0.45129429136E+03  0.47247601389E+03  0.00000000000E+00 0.  1.
<mgrwt>
<rscale>  0 0.17128373E+04</rscale>
<asrwt>0</asrwt>
<pdfrwt beam="1">  1        2 0.81615873E-01 0.17128373E+04</pdfrwt>
<pdfrwt beam="2">  1       -2 0.21270166E+00 0.17128373E+04</pdfrwt>
<totfact> 0.60036840E+00</totfact>
</mgrwt>
</event>
<event>
12    1  0.4403484E-008  0.1789689E+04  0.7818608E-02  0.8711802E-01
          1   -1    0    0  501    0  0.00000000000E+00  0.00000000000E+00  0.56213671294E+03  0.56213671294E+03  0.00000000000E+00 0. -1.
         -1   -1    0    0    0  501 -0.00000000000E+00 -0.00000000000E+00 -0.14244689737E+04  0.14244689737E+04  0.00000000000E+00 0.  1.
         23    2    1    2    0    0 -0.49943012540E+03 -0.40744886495E+03 -0.46249633280E+03  0.79886341079E+03  0.93993954796E+02 0.  0.
        254    2    1    2    0    0  0.49943012540E+03  0.40744886495E+03 -0.39983592797E+03  0.11877422759E+04  0.91401198945E+03 0.  0.
         23    2    4    4    0    0 -0.20525593761E+01 -0.26179892817E+03 -0.94855099896E+02  0.29301189036E+03  0.91189835646E+02 0.  0.
         23    2    4    4    0    0  0.50148268478E+03  0.66924779312E+03 -0.30498082808E+03  0.89473038550E+03  0.90286574449E+02 0.  0.
         13    1    3    3    0    0 -0.38356458308E+03 -0.33939743382E+03 -0.32481991402E+03  0.60648197337E+03  0.00000000000E+00 0. -1.
        -13    1    3    3    0    0 -0.11586554232E+03 -0.68051431129E+02 -0.13767641878E+03  0.19238143742E+03  0.00000000000E+00 0.  1.
          2    1    5    5  502    0  0.21916913035E+02 -0.24796562515E+03 -0.91124591278E+02  0.26508676592E+03  0.00000000000E+00 0. -1.
          1    1    6    6  503    0  0.26866428217E+03  0.35422137986E+03 -0.20986294866E+03  0.49162560926E+03  0.00000000000E+00 0. -1.
         -2    1    5    5    0  502 -0.23969472411E+02 -0.13833303018E+02 -0.37305086180E+01  0.27925124433E+02  0.00000000000E+00 0.  1.
         -1    1    6    6    0  503  0.23281840261E+03  0.31502641326E+03 -0.95117879415E+02  0.40310477624E+03  0.00000000000E+00 0.  1.
<mgrwt>
<rscale>  0 0.17896886E+04</rscale>
<asrwt>0</asrwt>
<pdfrwt beam="1">  1        1 0.86482573E-01 0.17896886E+04</pdfrwt>
<pdfrwt beam="2">  1       -1 0.21914907E+00 0.17896886E+04</pdfrwt>
<totfact> 0.39599071E+00</totfact>
</mgrwt>
</event>
<event>
12    1  0.4403484E-008  0.1915487E+04  0.7818608E-02  0.8647186E-01
          1   -1    0    0  501    0  0.00000000000E+00  0.00000000000E+00  0.29947294235E+04  0.29947294235E+04  0.00000000000E+00 0. -1.
         -1   -1    0    0    0  501 -0.00000000000E+00 -0.00000000000E+00 -0.30629571854E+03  0.30629571854E+03  0.00000000000E+00 0.  1.
         23    2    1    2    0    0 -0.15789666019E+03  0.40433680170E+03  0.22280376744E+04  0.22718256269E+04  0.92845010702E+02 0.  0.
        254    2    1    2    0    0  0.15789666019E+03 -0.40433680170E+03  0.46039603057E+03  0.10291995151E+04  0.81170655566E+03 0.  0.
         23    2    4    4    0    0 -0.24179795896E+03 -0.46506723100E+02  0.40376248329E+03  0.48256272320E+03  0.95987033800E+02 0.  0.
         23    2    4    4    0    0  0.39969461915E+03 -0.35783007860E+03  0.56633547284E+02  0.54663679195E+03  0.88353097889E+02 0.  0.
         13    1    3    3    0    0 -0.16989852394E+03  0.36202783348E+03  0.20056746069E+04  0.20451553216E+04  0.00000000000E+00 0. -1.
        -13    1    3    3    0    0  0.12001863752E+02  0.42308968223E+02  0.22236306755E+03  0.22667030537E+03  0.00000000000E+00 0.  1.
          2    1    5    5  502    0  0.12091900089E+00 -0.15924461952E+02  0.82810191815E+01  0.17949328359E+02  0.00000000000E+00 0. -1.
          1    1    6    6  503    0  0.55579136370E+02 -0.48774890258E+02  0.39404109996E+02  0.83789702254E+02  0.00000000000E+00 0. -1.
         -2    1    5    5    0  502 -0.24191887796E+03 -0.30582261148E+02  0.39548146411E+03  0.46461339484E+03  0.00000000000E+00 0.  1.
         -1    1    6    6    0  503  0.34411548278E+03 -0.30905518834E+03  0.17229437288E+02  0.46284708969E+03  0.00000000000E+00 0.  1.
<mgrwt>
<rscale>  0 0.19154872E+04</rscale>
<asrwt>0</asrwt>
<pdfrwt beam="1">  1        1 0.46072758E+00 0.19154872E+04</pdfrwt>
<pdfrwt beam="2">  1       -1 0.47122420E-01 0.19154872E+04</pdfrwt>
<totfact> 0.25368067E+00</totfact>
</mgrwt>
</event>
<event>
12    1  0.4403484E-008  0.1598051E+04  0.7818608E-02  0.8821746E-01
          1   -1    0    0  501    0  0.00000000000E+00  0.00000000000E+00  0.40499945025E+03  0.40499945025E+03  0.00000000000E+00 0. -1.
         -1   -1    0    0    0  501 -0.00000000000E+00 -0.00000000000E+00 -0.15764018194E+04  0.15764018194E+04  0.00000000000E+00 0.  1.
         23    2    1    2    0    0 -0.70684947239E+02  0.37689397940E+03  0.68185737696E+02  0.39988485982E+03  0.90626556892E+02 0.  0.
        254    2    1    2    0    0  0.70684947239E+02 -0.37689397940E+03 -0.12395881069E+04  0.15815164099E+04  0.90419580097E+03 0.  0.
         23    2    4    4    0    0  0.84572355135E+02  0.28184737945E+03 -0.49466268672E+03  0.58276399029E+03  0.91281247704E+02 0.  0.
         23    2    4    4    0    0 -0.13887407896E+02 -0.65874135884E+03 -0.74492542016E+03  0.99875241959E+03  0.91975410171E+02 0.  0.
         11    1    3    3    0    0 -0.92615760303E+02  0.29187095192E+03  0.54169642560E+02  0.31096733238E+03  0.00000000000E+00 0. -1.
        -11    1    3    3    0    0  0.21930813065E+02  0.85023027478E+02  0.14016095137E+02  0.88917527440E+02  0.00000000000E+00 0.  1.
          4    1    5    5  502    0  0.15537706111E+02  0.19711784401E+03 -0.34135759953E+03  0.39448938578E+03  0.00000000000E+00 0.  1.
          3    1    6    6  503    0 -0.52226240971E+02 -0.44383684531E+03 -0.49317279448E+03  0.66553597251E+03  0.00000000000E+00 0. -1.
         -4    1    5    5    0  502  0.69034649024E+02  0.84729535441E+02 -0.15330508720E+03  0.18827460451E+03  0.00000000000E+00 0. -1.
         -3    1    6    6    0  503  0.38338833075E+02 -0.21490451354E+03 -0.25175262568E+03  0.33321644707E+03  0.00000000000E+00 0.  1.
<mgrwt>
<rscale>  0 0.15980512E+04</rscale>
<asrwt>0</asrwt>
<pdfrwt beam="1">  1        1 0.62307607E-01 0.15980512E+04</pdfrwt>
<pdfrwt beam="2">  1       -1 0.24252336E+00 0.15980512E+04</pdfrwt>
<totfact> 0.44203962E+00</totfact>
</mgrwt>
</event>
<event>
12    1  0.4403484E-008  0.1255021E+04  0.7818608E-02  0.9066014E-01
         -2   -1    0    0    0  501 -0.00000000000E+00  0.00000000000E+00  0.17161820900E+03  0.17161820900E+03  0.00000000000E+00 0.  1.
          2   -1    0    0  501    0  0.00000000000E+00 -0.00000000000E+00 -0.22944510599E+04  0.22944510599E+04  0.00000000000E+00 0. -1.
         23    2    1    2    0    0  0.48640316038E+02  0.21073242438E+03 -0.13198524663E+03  0.26911103072E+03  0.90700642227E+02 0.  0.
        254    2    1    2    0    0 -0.48640316038E+02 -0.21073242438E+03 -0.19908476043E+04  0.21969582382E+04  0.90353598815E+03 0.  0.
         23    2    4    4    0    0 -0.16751251741E+01 -0.61980174553E+02  0.68839332599E+02  0.12934233274E+03  0.90256508039E+02 0.  0.
         23    2    4    4    0    0 -0.46965190864E+02 -0.14875224982E+03 -0.20596869369E+04  0.20676159055E+04  0.91609462269E+02 0.  0.
         13    1    3    3    0    0  0.49379608108E+02  0.20200212372E+03 -0.90636043243E+02  0.22684377007E+03  0.00000000000E+00 0.  1.
        -13    1    3    3    0    0 -0.73929206976E+00  0.87303006564E+01 -0.41349203389E+02  0.42267260654E+02  0.00000000000E+00 0. -1.
          4    1    5    5  502    0 -0.53391753227E+01 -0.28208144360E+02 -0.19494203375E+02  0.34702019633E+02  0.00000000000E+00 0.  1.
          1    1    6    6  503    0 -0.50581465672E+02 -0.15746368747E+03 -0.20225154683E+04  0.20292663987E+04  0.00000000000E+00 0. -1.
         -4    1    5    5    0  502  0.36640501486E+01 -0.33772030192E+02  0.88333535974E+02  0.94640313104E+02  0.00000000000E+00 0. -1.
         -1    1    6    6    0  503  0.36162748078E+01  0.87114376443E+01 -0.37171468578E+02  0.38349506719E+02  0.00000000000E+00 0.  1.
<mgrwt>
<rscale>  0 0.12550212E+04</rscale>
<asrwt>0</asrwt>
<pdfrwt beam="1">  1        2 0.35299245E+00 0.12550212E+04</pdfrwt>
<pdfrwt beam="2">  1       -2 0.26402803E-01 0.12550212E+04</pdfrwt>
<totfact> 0.58498554E+01</totfact>
</mgrwt>
</event>
<event>
12    1  0.4403484E-008  0.1896575E+04  0.7818608E-02  0.8656563E-01
         -1   -1    0    0    0  501 -0.00000000000E+00  0.00000000000E+00  0.57752705159E+03  0.57752705159E+03  0.00000000000E+00 0.  1.
          1   -1    0    0  501    0  0.00000000000E+00 -0.00000000000E+00 -0.15570681403E+04  0.15570681403E+04  0.00000000000E+00 0. -1.
         23    2    1    2    0    0 -0.48382700705E+03  0.54843417481E+03 -0.39362242951E+03  0.83546971695E+03  0.90567179860E+02 0.  0.
        254    2    1    2    0    0  0.48382700705E+03 -0.54843417481E+03 -0.58591865923E+03  0.12991254750E+04  0.89975424845E+03 0.  0.
         23    2    4    4    0    0 -0.16423083171E+02 -0.25474512339E+03  0.18632635369E+03  0.32904840154E+03  0.91599917691E+02 0.  0.
         23    2    4    4    0    0  0.50025009023E+03 -0.29368905142E+03 -0.77224501292E+03  0.97007707342E+03  0.90464118365E+02 0.  0.
         13    1    3    3    0    0 -0.12357894111E+03  0.14306654630E+03 -0.14817930298E+03  0.24020178432E+03  0.00000000000E+00 0.  1.
        -13    1    3    3    0    0 -0.36024806594E+03  0.40536762851E+03 -0.24544312652E+03  0.59526793263E+03  0.00000000000E+00 0. -1.
          3    1    6    6  502    0  0.38283547305E+03 -0.20059867083E+03 -0.62590775275E+03  0.76063351301E+03  0.00000000000E+00 0. -1.
          3    1    5    5  503    0  0.17641184068E+02 -0.16243633529E+03  0.72969879624E+02  0.17894518080E+03  0.00000000000E+00 0. -1.
         -3    1    5    5    0  503 -0.34064267239E+02 -0.92308788097E+02  0.11335647407E+03  0.15010322074E+03  0.00000000000E+00 0.  1.
         -3    1    6    6    0  502  0.11741461718E+03 -0.93090380586E+02 -0.14633726017E+03  0.20944356041E+03  0.00000000000E+00 0.  1.
<mgrwt>
<rscale>  0 0.18965748E+04</rscale>
<asrwt>0</asrwt>
<pdfrwt beam="1">  1        1 0.23954894E+00 0.18965748E+04</pdfrwt>
<pdfrwt beam="2">  1       -1 0.88850317E-01 0.18965748E+04</pdfrwt>
<totfact> 0.69464924E+00</totfact>
</mgrwt>
</event>
<event>
12    1  0.4403484E-008  0.2454714E+04  0.7818608E-02  0.8419299E-01
         -1   -1    0    0    0  501 -0.00000000000E+00  0.00000000000E+00  0.10442660513E+04  0.10442660513E+04  0.00000000000E+00 0.  1.
          1   -1    0    0  501    0  0.00000000000E+00 -0.00000000000E+00 -0.14425492637E+04  0.14425492637E+04  0.00000000000E+00 0. -1.
         23    2    1    2    0    0  0.15156127053E+03  0.69830922589E+02  0.88818892308E+03  0.90838318812E+03  0.91832874883E+02 0.  0.
        254    2    1    2    0    0 -0.15156127053E+03 -0.69830922589E+02 -0.12864721355E+04  0.15784321268E+04  0.89921646290E+03 0.  0.
         23    2    4    4    0    0 -0.15619828979E+03  0.48120416683E+02  0.80417120563E+02  0.20346566315E+03  0.90652537552E+02 0.  0.
         23    2    4    4    0    0  0.46370192633E+01 -0.11795133927E+03 -0.13668892560E+04  0.13749664637E+04  0.90622941680E+02 0.  0.
         11    1    3    3    0    0  0.14456078703E+03  0.79585524356E+02  0.67583238804E+03  0.69568749706E+03  0.00000000000E+00 0.  1.
        -11    1    3    3    0    0  0.70004834934E+01 -0.97546017676E+01  0.21235653503E+03  0.21269569106E+03  0.00000000000E+00 0. -1.
          4    1    5    5  502    0 -0.49105784701E+02  0.33244995647E+02 -0.12848738704E+02  0.60676996572E+02  0.00000000000E+00 0. -1.
          1    1    6    6  503    0 -0.28651122866E+02 -0.58190829018E+01 -0.39118821018E+03  0.39227919185E+03  0.00000000000E+00 0. -1.
         -4    1    5    5    0  502 -0.10709250509E+03  0.14875421037E+02  0.93265859267E+02  0.14278866657E+03  0.00000000000E+00 0.  1.
         -1    1    6    6    0  503  0.33288142130E+02 -0.11213225637E+03 -0.97570104586E+03  0.98268727183E+03  0.00000000000E+00 0.  1.
<mgrwt>
<rscale>  0 0.24547140E+04</rscale>
<asrwt>0</asrwt>
<pdfrwt beam="1">  1        1 0.22193065E+00 0.24547140E+04</pdfrwt>
<pdfrwt beam="2">  1       -1 0.16065632E+00 0.24547140E+04</pdfrwt>
<totfact> 0.18484135E+00</totfact>
</mgrwt>
</event>
<event>
12    1  0.4917335E-008  0.2224093E+04  0.7818608E-02  0.8508467E-01
          1   -1    0    0  501    0  0.00000000000E+00  0.00000000000E+00  0.26897294172E+04  0.26897294172E+04  0.00000000000E+00 0. -1.
         -1   -1    0    0    0  501 -0.00000000000E+00 -0.00000000000E+00 -0.45976643924E+03  0.45976643924E+03  0.00000000000E+00 0.  1.
         23    2    1    2    0    0 -0.24586508087E+03  0.36161895566E+03  0.19649701534E+04  0.20148477670E+04  0.85357560209E+02 0.  0.
        254    2    1    2    0    0  0.24586508087E+03 -0.36161895566E+03  0.26499282450E+03  0.11346480895E+04  0.10129102541E+04 0.  0.
         23    2    4    4    0    0  0.21461983949E+03 -0.29984533616E+03 -0.34570929109E+03  0.51342970720E+03  0.90145710777E+02 0.  0.
         23    2    4    4    0    0  0.31245241386E+02 -0.61773619501E+02  0.61070211560E+03  0.62121838226E+03  0.90349096773E+02 0.  0.
         13    1    3    3    0    0 -0.24515734688E+03  0.35858509799E+03  0.18684787080E+04  0.19183060443E+04  0.00000000000E+00 0. -1.
        -13    1    3    3    0    0 -0.70773399344E+00  0.30338576707E+01  0.96491445443E+02  0.96541722708E+02  0.00000000000E+00 0.  1.
          4    1    5    5  502    0  0.68358665406E+02 -0.51704432930E+02 -0.12012766681E+03  0.14757002356E+03  0.00000000000E+00 0. -1.
          1    1    6    6  503    0  0.14252197599E+02 -0.52537575693E+02  0.14138038949E+03  0.15149830537E+03  0.00000000000E+00 0. -1.
         -4    1    5    5    0  502  0.14626117408E+03 -0.24814090323E+03 -0.22558162428E+03  0.36585968364E+03  0.00000000000E+00 0.  1.
         -1    1    6    6    0  503  0.16993043787E+02 -0.92360438071E+01  0.46932172610E+03  0.46972007689E+03  0.00000000000E+00 0.  1.
<mgrwt>
<rscale>  0 0.22240929E+04</rscale>
<asrwt>0</asrwt>
<pdfrwt beam="1">  1        1 0.41380451E+00 0.22240929E+04</pdfrwt>
<pdfrwt beam="2">  1       -1 0.70733300E-01 0.22240929E+04</pdfrwt>
<totfact> 0.18338130E+00</totfact>
</mgrwt>
</event>
<event>
12    1  0.4403484E-008  0.1152668E+04  0.7818608E-02  0.9155326E-01
         -1   -1    0    0    0  501 -0.00000000000E+00  0.00000000000E+00  0.39553343388E+03  0.39553343388E+03  0.00000000000E+00 0.  1.
          1   -1    0    0  501    0  0.00000000000E+00 -0.00000000000E+00 -0.83977959151E+03  0.83977959151E+03  0.00000000000E+00 0. -1.
         23    2    1    2    0    0  0.93432237165E+02  0.21815586225E+03 -0.17945929355E+03  0.31019401713E+03  0.87710472844E+02 0.  0.
        254    2    1    2    0    0 -0.93432237165E+02 -0.21815586225E+03 -0.26478686409E+03  0.92511900826E+03  0.85405593077E+03 0.  0.
         23    2    4    4    0    0  0.15576639990E+03 -0.47956743957E+03 -0.17171366147E+03  0.54101276036E+03  0.94663218309E+02 0.  0.
         23    2    4    4    0    0 -0.24919863707E+03  0.26141157733E+03 -0.93073202617E+02  0.38410624790E+03  0.91864112429E+02 0.  0.
         13    1    3    3    0    0  0.63031506856E+02  0.98684116184E+02 -0.13603398148E+03  0.17949030548E+03  0.00000000000E+00 0. -1.
        -13    1    3    3    0    0  0.30400730309E+02  0.11947174606E+03 -0.43425312070E+02  0.13070371165E+03  0.00000000000E+00 0.  1.
          1    1    5    5  502    0  0.10052883032E+03 -0.38795502811E+03 -0.16629172705E+03  0.43389870713E+03  0.00000000000E+00 0. -1.
          3    1    6    6  503    0 -0.23892518476E+03  0.23828131746E+03 -0.60436070096E+02  0.34280570113E+03  0.00000000000E+00 0. -1.
         -1    1    5    5    0  502  0.55237569581E+02 -0.91612411463E+02 -0.54219344207E+01  0.10711405323E+03  0.00000000000E+00 0.  1.
         -3    1    6    6    0  503 -0.10273452312E+02  0.23130259869E+02 -0.32637132521E+02  0.41300546766E+02  0.00000000000E+00 0.  1.
<mgrwt>
<rscale>  0 0.11526680E+04</rscale>
<asrwt>0</asrwt>
<pdfrwt beam="1">  1        1 0.12919686E+00 0.11526680E+04</pdfrwt>
<pdfrwt beam="2">  1       -1 0.60851298E-01 0.11526680E+04</pdfrwt>
<totfact> 0.55570416E+01</totfact>
</mgrwt>
</event>
<event>
12    1  0.4403484E-008  0.1968960E+04  0.7818608E-02  0.8621272E-01
          1   -1    0    0  501    0  0.00000000000E+00  0.00000000000E+00  0.14867459194E+04  0.14867459194E+04  0.00000000000E+00 0. -1.
         -1   -1    0    0    0  501 -0.00000000000E+00 -0.00000000000E+00 -0.65189419019E+03  0.65189419019E+03  0.00000000000E+00 0.  1.
         23    2    1    2    0    0  0.48145991256E+03 -0.60357601698E+03  0.41865828141E+03  0.88283994323E+03  0.89576520875E+02 0.  0.
        254    2    1    2    0    0 -0.48145991256E+03  0.60357601698E+03  0.41619344778E+03  0.12558001663E+04  0.89872655247E+03 0.  0.
         23    2    4    4    0    0 -0.68568337795E+03  0.27270943144E+03  0.10894594241E+03  0.75150753503E+03  0.91445218818E+02 0.  0.
         23    2    4    4    0    0  0.20422346538E+03  0.33086658554E+03  0.30724750537E+03  0.50429263131E+03  0.93435042651E+02 0.  0.
         11    1    3    3    0    0  0.44598484164E+03 -0.55133653673E+03  0.35445816750E+03  0.79278940975E+03  0.00000000000E+00 0. -1.
        -11    1    3    3    0    0  0.35475070923E+02 -0.52239480254E+02  0.64200113915E+02  0.90050533485E+02  0.00000000000E+00 0.  1.
          4    1    5    5  502    0 -0.37399796909E+03  0.11141865817E+03  0.27333438211E+02  0.39119779539E+03  0.00000000000E+00 0. -1.
          3    1    6    6  503    0  0.22317963108E+02  0.22076997471E+02 -0.12495887633E+01  0.31417300437E+02  0.00000000000E+00 0. -1.
         -4    1    5    5    0  502 -0.31168540885E+03  0.16129077328E+03  0.81612504194E+02  0.36030973964E+03  0.00000000000E+00 0.  1.
         -3    1    6    6    0  503  0.18190550227E+03  0.30878958806E+03  0.30849709414E+03  0.47287533087E+03  0.00000000000E+00 0.  1.
<mgrwt>
<rscale>  0 0.19689602E+04</rscale>
<asrwt>0</asrwt>
<pdfrwt beam="1">  1        1 0.22873014E+00 0.19689602E+04</pdfrwt>
<pdfrwt beam="2">  1       -1 0.10029141E+00 0.19689602E+04</pdfrwt>
<totfact> 0.58839678E+00</totfact>
</mgrwt>
</event>
<event>
12    1  0.4403484E-008  0.1307233E+04  0.7818608E-02  0.9023849E-01
         -2   -1    0    0    0  501 -0.00000000000E+00  0.00000000000E+00  0.62303096248E+03  0.62303096248E+03  0.00000000000E+00 0.  1.
          2   -1    0    0  501    0  0.00000000000E+00 -0.00000000000E+00 -0.68570321401E+03  0.68570321401E+03  0.00000000000E+00 0. -1.
         23    2    1    2    0    0 -0.48839168391E+02  0.20406266858E+03  0.24135184419E+03  0.33293721181E+03  0.92572335165E+02 0.  0.
        254    2    1    2    0    0  0.48839168391E+02 -0.20406266858E+03 -0.30402409572E+03  0.97579696468E+03  0.90317342101E+03 0.  0.
         23    2    4    4    0    0 -0.69189169812E+02 -0.52435151543E+03 -0.31443351238E+03  0.62199921511E+03  0.91010641897E+02 0.  0.
         23    2    4    4    0    0  0.11802833820E+03  0.32028884685E+03  0.10409416660E+02  0.35379774957E+03  0.92460032516E+02 0.  0.
         13    1    3    3    0    0 -0.30154352462E+02  0.66427905279E+01  0.36885394546E+02  0.48103471488E+02  0.00000000000E+00 0. -1.
        -13    1    3    3    0    0 -0.18684815929E+02  0.19741987806E+03  0.20446644964E+03  0.28483374033E+03  0.00000000000E+00 0.  1.
          2    1    5    5  502    0 -0.46012553591E+02 -0.24388166434E+03 -0.97424448176E+02  0.26662135022E+03  0.00000000000E+00 0. -1.
          1    1    6    6  503    0  0.10829378357E+03  0.32030054880E+03 -0.18830401224E+01  0.33811762889E+03  0.00000000000E+00 0. -1.
         -2    1    5    5    0  502 -0.23176616221E+02 -0.28046985109E+03 -0.21700906420E+03  0.35537786489E+03  0.00000000000E+00 0.  1.
         -1    1    6    6    0  503  0.97345546355E+01 -0.11701959004E-01  0.12292456783E+02  0.15680120683E+02  0.00000000000E+00 0.  1.
<mgrwt>
<rscale>  0 0.13072327E+04</rscale>
<asrwt>0</asrwt>
<pdfrwt beam="1">  1        2 0.10549280E+00 0.13072327E+04</pdfrwt>
<pdfrwt beam="2">  1       -2 0.95850918E-01 0.13072327E+04</pdfrwt>
<totfact> 0.37618587E+01</totfact>
</mgrwt>
</event>
<event>
12    1  0.4403484E-008  0.1611511E+04  0.7818608E-02  0.8813508E-01
         -1   -1    0    0    0  501 -0.00000000000E+00  0.00000000000E+00  0.19790951740E+03  0.19790951740E+03  0.00000000000E+00 0.  1.
          1   -1    0    0  501    0  0.00000000000E+00 -0.00000000000E+00 -0.32804976052E+04  0.32804976052E+04  0.00000000000E+00 0. -1.
         23    2    1    2    0    0  0.39425475661E+03  0.89037586468E+02 -0.28976125250E+03  0.50522738394E+03  0.89042804940E+02 0.  0.
        254    2    1    2    0    0 -0.39425475661E+03 -0.89037586468E+02 -0.27928268353E+04  0.29731797387E+04  0.93624330251E+03 0.  0.
         23    2    4    4    0    0 -0.45997412180E+03  0.10086422689E+03 -0.26777582133E+04  0.27203758680E+04  0.91137420027E+02 0.  0.
         23    2    4    4    0    0  0.65719365191E+02 -0.18990181336E+03 -0.11506862203E+03  0.25280387069E+03  0.10142620755E+03 0.  0.
         13    1    3    3    0    0  0.36846300250E+03  0.93956971491E+02 -0.29117609703E+03  0.47893258000E+03  0.00000000000E+00 0.  1.
        -13    1    3    3    0    0  0.25791754109E+02 -0.49193850223E+01  0.14148445245E+01  0.26294803936E+02  0.00000000000E+00 0. -1.
          1    1    6    6  502    0  0.64252718334E+02 -0.44951796693E+02 -0.55574433929E+02  0.96112400583E+02  0.00000000000E+00 0. -1.
          1    1    5    5  503    0 -0.30184117770E+02  0.89262916820E+00 -0.33987824635E+03  0.34121708646E+03  0.00000000000E+00 0. -1.
         -1    1    5    5    0  503 -0.42979000403E+03  0.99971597726E+02 -0.23378799669E+04  0.23791587815E+04  0.00000000000E+00 0.  1.
         -1    1    6    6    0  502  0.14666468573E+01 -0.14495001667E+03 -0.59494188101E+02  0.15669147010E+03  0.00000000000E+00 0.  1.
<mgrwt>
<rscale>  0 0.16115107E+04</rscale>
<asrwt>0</asrwt>
<pdfrwt beam="1">  1        1 0.50469194E+00 0.16115107E+04</pdfrwt>
<pdfrwt beam="2">  1       -1 0.30447618E-01 0.16115107E+04</pdfrwt>
<totfact> 0.35473225E+00</totfact>
</mgrwt>
</event>
<event>
12    1  0.4403484E-008  0.1488218E+04  0.7818608E-02  0.8892326E-01
         -2   -1    0    0    0  501 -0.00000000000E+00  0.00000000000E+00  0.20218763775E+04  0.20218763775E+04  0.00000000000E+00 0.  1.
          2   -1    0    0  501    0  0.00000000000E+00 -0.00000000000E+00 -0.27385358309E+03  0.27385358309E+03  0.00000000000E+00 0. -1.
         23    2    1    2    0    0 -0.26390200621E+03 -0.29857400056E+03  0.23260491773E+03  0.47004146296E+03  0.89684036776E+02 0.  0.
        254    2    1    2    0    0  0.26390200621E+03  0.29857400056E+03  0.15154178767E+04  0.18256884976E+04  0.93693993764E+03 0.  0.
         23    2    4    4    0    0 -0.10795340629E+03  0.49646722594E+03  0.48259177249E+03  0.70640202082E+03  0.89304825126E+02 0.  0.
         23    2    4    4    0    0  0.37185541251E+03 -0.19789322537E+03  0.10328261042E+04  0.11192864768E+04  0.92920822286E+02 0.  0.
         11    1    3    3    0    0 -0.10565688320E+03 -0.89347284821E+02  0.12509832008E+03  0.18653660220E+03  0.00000000000E+00 0.  1.
        -11    1    3    3    0    0 -0.15824512301E+03 -0.20922671574E+03  0.10750659765E+03  0.28350486076E+03  0.00000000000E+00 0. -1.
          4    1    5    5  502    0 -0.11499525412E+03  0.45361752061E+03  0.46450464591E+03  0.65936130426E+03  0.00000000000E+00 0.  1.
          3    1    6    6  503    0  0.81737304069E+01 -0.18521805405E+02  0.20729438605E+02  0.28975451146E+02  0.00000000000E+00 0. -1.
         -4    1    5    5    0  502  0.70418478289E+01  0.42849705327E+02  0.18087126574E+02  0.47040716568E+02  0.00000000000E+00 0. -1.
         -3    1    6    6    0  503  0.36368168210E+03 -0.17937141997E+03  0.10120966656E+04  0.10903110257E+04  0.00000000000E+00 0.  1.
<mgrwt>
<rscale>  0 0.14882178E+04</rscale>
<asrwt>0</asrwt>
<pdfrwt beam="1">  1        2 0.42131322E-01 0.14882178E+04</pdfrwt>
<pdfrwt beam="2">  1       -2 0.31105790E+00 0.14882178E+04</pdfrwt>
<totfact> 0.32103745E+00</totfact>
</mgrwt>
</event>
<event>
12    1  0.4403484E-008  0.1622428E+04  0.7818608E-02  0.8806887E-01
         -1   -1    0    0    0  501 -0.00000000000E+00  0.00000000000E+00  0.23421302354E+04  0.23421302354E+04  0.00000000000E+00 0.  1.
          1   -1    0    0  501    0  0.00000000000E+00 -0.00000000000E+00 -0.28097001071E+03  0.28097001071E+03  0.00000000000E+00 0. -1.
         23    2    1    2    0    0 -0.20935693267E+03 -0.46995972643E+03  0.42349617113E+03  0.67264135757E+03  0.91678346564E+02 0.  0.
        254    2    1    2    0    0  0.20935693267E+03  0.46995972643E+03  0.16376640536E+04  0.19504588885E+04  0.92609602839E+03 0.  0.
         23    2    4    4    0    0  0.20547578372E+03  0.54829389446E+03  0.17095966606E+04  0.18099451558E+04  0.10165742697E+03 0.  0.
         23    2    4    4    0    0  0.38811489521E+01 -0.78334168026E+02 -0.71932607069E+02  0.14051373277E+03  0.91752405628E+02 0.  0.
         13    1    3    3    0    0 -0.21919597593E+02 -0.41802668966E+02  0.78949416400E+02  0.91983380245E+02  0.00000000000E+00 0.  1.
        -13    1    3    3    0    0 -0.18743733508E+03 -0.42815705746E+03  0.34454675473E+03  0.58065797733E+03  0.00000000000E+00 0. -1.
          2    1    5    5  502    0  0.30625632010E+02  0.14333498005E+03  0.55293362907E+03  0.57203010760E+03  0.00000000000E+00 0. -1.
          1    1    6    6  503    0 -0.20949745603E+02  0.36168136277E+01 -0.46591189702E+02  0.51212421731E+02  0.00000000000E+00 0. -1.
         -2    1    5    5    0  502  0.17485015171E+03  0.40495891440E+03  0.11566630316E+04  0.12379150482E+04  0.00000000000E+00 0.  1.
         -1    1    6    6    0  503  0.24830894555E+02 -0.81950981653E+02 -0.25341417367E+02  0.89301311035E+02  0.00000000000E+00 0.  1.
<mgrwt>
<rscale>  0 0.16224283E+04</rscale>
<asrwt>0</asrwt>
<pdfrwt beam="1">  1        1 0.43226157E-01 0.16224283E+04</pdfrwt>
<pdfrwt beam="2">  1       -1 0.36032771E+00 0.16224283E+04</pdfrwt>
<totfact> 0.12183398E+00</totfact>
</mgrwt>
</event>
<event>
12    1  0.4403484E-008  0.1641867E+04  0.7818608E-02  0.8795232E-01
          2   -1    0    0  501    0  0.00000000000E+00  0.00000000000E+00  0.18509662511E+04  0.18509662511E+04  0.00000000000E+00 0. -1.
         -2   -1    0    0    0  501 -0.00000000000E+00 -0.00000000000E+00 -0.36409747116E+03  0.36409747116E+03  0.00000000000E+00 0.  1.
         23    2    1    2    0    0 -0.20591671096E+03  0.42865404280E+02 -0.19307015348E+03  0.29986309127E+03  0.91665994796E+02 0.  0.
        254    2    1    2    0    0  0.20591671096E+03 -0.42865404280E+02  0.16799389334E+04  0.19152006310E+04  0.89529855477E+03 0.  0.
         23    2    4    4    0    0  0.52617239609E+03  0.11652287320E+03  0.10926091497E+04  0.12215138811E+04  0.88692938552E+02 0.  0.
         23    2    4    4    0    0 -0.32025568512E+03 -0.15938827748E+03  0.58732978367E+03  0.69368674984E+03  0.90976399452E+02 0.  0.
         11    1    3    3    0    0 -0.13371589281E+03  0.44807722090E+01 -0.67084450699E+02  0.14966743412E+03  0.00000000000E+00 0. -1.
        -11    1    3    3    0    0 -0.72200818148E+02  0.38384632071E+02 -0.12598570278E+03  0.15019565715E+03  0.00000000000E+00 0.  1.
          2    1    5    5  502    0  0.15124504304E+03  0.64697104999E+02  0.39401576751E+03  0.42697681844E+03  0.00000000000E+00 0. -1.
          3    1    6    6  503    0 -0.61244980594E+02 -0.59335445683E+02  0.19708437206E+03  0.21474145495E+03  0.00000000000E+00 0. -1.
         -2    1    5    5    0  502  0.37492735305E+03  0.51825768204E+02  0.69859338222E+03  0.79453706269E+03  0.00000000000E+00 0.  1.
         -3    1    6    6    0  503 -0.25901070453E+03 -0.10005283180E+03  0.39024541161E+03  0.47894529489E+03  0.00000000000E+00 0.  1.
<mgrwt>
<rscale>  0 0.16418674E+04</rscale>
<asrwt>0</asrwt>
<pdfrwt beam="1">  1        2 0.28476403E+00 0.16418674E+04</pdfrwt>
<pdfrwt beam="2">  1       -2 0.56014996E-01 0.16418674E+04</pdfrwt>
<totfact> 0.23125614E+01</totfact>
</mgrwt>
</event>
<event>
12    1  0.4403484E-008  0.1803998E+04  0.7818608E-02  0.8704176E-01
         -2   -1    0    0    0  501 -0.00000000000E+00  0.00000000000E+00  0.40285168220E+03  0.40285168220E+03  0.00000000000E+00 0.  1.
          2   -1    0    0  501    0  0.00000000000E+00 -0.00000000000E+00 -0.20196079562E+04  0.20196079562E+04  0.00000000000E+00 0. -1.
         23    2    1    2    0    0 -0.54655350829E+03  0.29251137748E+03 -0.95038456002E+03  0.11382939572E+04  0.90546549889E+02 0.  0.
        254    2    1    2    0    0  0.54655350829E+03 -0.29251137748E+03 -0.66637171394E+03  0.12841656812E+04  0.90595065657E+03 0.  0.
         23    2    4    4    0    0  0.51260568031E+03 -0.55757089513E+03 -0.64730781514E+03  0.10005066143E+04  0.91412204566E+02 0.  0.
         23    2    4    4    0    0  0.33947827986E+02  0.26505951765E+03 -0.19063898799E+02  0.28365906685E+03  0.93220336026E+02 0.  0.
         11    1    3    3    0    0 -0.42528829672E+02  0.15831069234E+01 -0.90233170230E+02  0.99765888913E+02  0.00000000000E+00 0. -1.
        -11    1    3    3    0    0 -0.50402467862E+03  0.29092827056E+03 -0.86015138979E+03  0.10385280683E+04  0.00000000000E+00 0.  1.
          2    1    5    5  502    0  0.15871663255E+03 -0.16035239394E+03 -0.14077555988E+03  0.26593536424E+03  0.00000000000E+00 0. -1.
          4    1    6    6  503    0  0.39835023008E+02  0.35869210161E+02 -0.29714932881E-01  0.53604385815E+02  0.00000000000E+00 0. -1.
         -2    1    5    5    0  502  0.35388904775E+03 -0.39721850119E+03 -0.50653225526E+03  0.73457125007E+03  0.00000000000E+00 0.  1.
         -4    1    6    6    0  503 -0.58871950219E+01  0.22919030749E+03 -0.19034183867E+02  0.23005468104E+03  0.00000000000E+00 0.  1.
<mgrwt>
<rscale>  0 0.18039983E+04</rscale>
<asrwt>0</asrwt>
<pdfrwt beam="1">  1        2 0.31070892E+00 0.18039983E+04</pdfrwt>
<pdfrwt beam="2">  1       -2 0.61977182E-01 0.18039983E+04</pdfrwt>
<totfact> 0.14865799E+01</totfact>
</mgrwt>
</event>
<event>
12    1  0.4403484E-008  0.1638049E+04  0.7818608E-02  0.8797508E-01
          2   -1    0    0  501    0  0.00000000000E+00  0.00000000000E+00  0.29527303565E+03  0.29527303565E+03  0.00000000000E+00 0. -1.
         -2   -1    0    0    0  501 -0.00000000000E+00 -0.00000000000E+00 -0.22717998967E+04  0.22717998967E+04  0.00000000000E+00 0.  1.
         23    2    1    2    0    0  0.26101872924E+03 -0.34152400731E+03 -0.12696884770E+04  0.13435487635E+04  0.90802130677E+02 0.  0.
        254    2    1    2    0    0 -0.26101872924E+03  0.34152400731E+03 -0.70683838414E+03  0.12235241689E+04  0.90145519350E+03 0.  0.
         23    2    4    4    0    0  0.24202030188E+03  0.37983415075E+03 -0.47582578721E+03  0.66121516120E+03  0.89148757892E+02 0.  0.
         23    2    4    4    0    0 -0.50303903112E+03 -0.38310143435E+02 -0.23101259693E+03  0.56230900765E+03  0.91151885483E+02 0.  0.
         13    1    3    3    0    0  0.21608179100E+03 -0.32085263200E+03 -0.11695073197E+04  0.12318218713E+04  0.00000000000E+00 0.  1.
        -13    1    3    3    0    0  0.44936938237E+02 -0.20671375306E+02 -0.10018115730E+03  0.11172689225E+03  0.00000000000E+00 0. -1.
          2    1    5    5  502    0  0.19162724575E+03  0.34988100413E+03 -0.43204531963E+03  0.58804836245E+03  0.00000000000E+00 0. -1.
          1    1    6    6  503    0 -0.34237595852E+03 -0.67010304302E+02 -0.14476512272E+03  0.37771499654E+03  0.00000000000E+00 0. -1.
         -2    1    5    5    0  502  0.50393056127E+02  0.29953146615E+02 -0.43780467581E+02  0.73166798751E+02  0.00000000000E+00 0.  1.
         -1    1    6    6    0  503 -0.16066307260E+03  0.28700160867E+02 -0.86247474214E+02  0.18459401111E+03  0.00000000000E+00 0.  1.
<mgrwt>
<rscale>  0 0.16380491E+04</rscale>
<asrwt>0</asrwt>
<pdfrwt beam="1">  1        2 0.45426619E-01 0.16380491E+04</pdfrwt>
<pdfrwt beam="2">  1       -2 0.34950769E+00 0.16380491E+04</pdfrwt>
<totfact> 0.16832444E+00</totfact>
</mgrwt>
</event>
<event>
12    1  0.4403484E-008  0.1592300E+04  0.7818608E-02  0.8825292E-01
         -1   -1    0    0    0  501 -0.00000000000E+00  0.00000000000E+00  0.41377957782E+03  0.41377957782E+03  0.00000000000E+00 0.  1.
          1   -1    0    0  501    0  0.00000000000E+00 -0.00000000000E+00 -0.15318656359E+04  0.15318656359E+04  0.00000000000E+00 0. -1.
         23    2    1    2    0    0 -0.42136275973E+03  0.13680420660E+03 -0.74927412496E+03  0.87501045592E+03  0.89272713697E+02 0.  0.
        254    2    1    2    0    0  0.42136275973E+03 -0.13680420660E+03 -0.36881193313E+03  0.10706347578E+04  0.90220539589E+03 0.  0.
         23    2    4    4    0    0 -0.77490138809E+02 -0.31457945020E+03  0.10667000162E+03  0.35319476043E+03  0.91668410285E+02 0.  0.
         23    2    4    4    0    0  0.49885289854E+03  0.17777524361E+03 -0.47548193475E+03  0.71743999738E+03  0.90436872681E+02 0.  0.
         11    1    3    3    0    0 -0.21181970959E+03  0.29425254487E+02 -0.40375328440E+03  0.45689183582E+03  0.00000000000E+00 0. -1.
        -11    1    3    3    0    0 -0.20954305014E+03  0.10737895211E+03 -0.34552084056E+03  0.41811862011E+03  0.00000000000E+00 0.  1.
          1    1    5    5  502    0 -0.34518750667E+02 -0.25507134914E+03  0.54394828842E+02  0.26308123214E+03  0.00000000000E+00 0. -1.
          3    1    6    6  503    0  0.35770936425E+03  0.16901788079E+03 -0.34146961651E+03  0.52261317654E+03  0.00000000000E+00 0. -1.
         -1    1    5    5    0  502 -0.42971388142E+02 -0.59508101059E+02  0.52275172778E+02  0.90113528282E+02  0.00000000000E+00 0.  1.
         -3    1    6    6    0  503  0.14114353429E+03  0.87573628192E+01 -0.13401231825E+03  0.19482682084E+03  0.00000000000E+00 0.  1.
<mgrwt>
<rscale>  0 0.15922999E+04</rscale>
<asrwt>0</asrwt>
<pdfrwt beam="1">  1        1 0.23567163E+00 0.15922999E+04</pdfrwt>
<pdfrwt beam="2">  1       -1 0.63658397E-01 0.15922999E+04</pdfrwt>
<totfact> 0.14939328E+01</totfact>
</mgrwt>
</event>
<event>
12    1  0.4403484E-008  0.2067871E+04  0.7818608E-02  0.8575530E-01
          1   -1    0    0  501    0  0.00000000000E+00  0.00000000000E+00  0.16135487915E+04  0.16135487915E+04  0.00000000000E+00 0. -1.
         -1   -1    0    0    0  501 -0.00000000000E+00 -0.00000000000E+00 -0.66252907199E+03  0.66252907199E+03  0.00000000000E+00 0.  1.
         23    2    1    2    0    0 -0.29900401175E+02 -0.40062630727E+02  0.12883966839E+04  0.12934424122E+04  0.10260706691E+03 0.  0.
        254    2    1    2    0    0  0.29900401175E+02  0.40062630727E+02 -0.33737696446E+03  0.98263545125E+03  0.92154770117E+03 0.  0.
         23    2    4    4    0    0  0.13039957227E+03 -0.20386806429E+03  0.23295431920E+03  0.34774879689E+03  0.89973745187E+02 0.  0.
         23    2    4    4    0    0 -0.10049917109E+03  0.24393069501E+03 -0.57033128366E+03  0.63488665436E+03  0.90559502015E+02 0.  0.
         11    1    3    3    0    0 -0.48722635574E+02 -0.39715696398E+02  0.40533393853E+03  0.41017902614E+03  0.00000000000E+00 0. -1.
        -11    1    3    3    0    0  0.18822234399E+02 -0.34693432850E+00  0.88306274541E+03  0.88326338609E+03  0.00000000000E+00 0.  1.
          2    1    5    5  502    0 -0.38536982049E+01  0.52184213998E+01 -0.87890154367E+00  0.65464020411E+01  0.00000000000E+00 0. -1.
          4    1    6    6  503    0 -0.62044805604E+02  0.64271778686E+02 -0.25165703723E+03  0.26704247570E+03  0.00000000000E+00 0. -1.
         -2    1    5    5    0  502  0.13425327047E+03 -0.20908648569E+03  0.23383322074E+03  0.34120239485E+03  0.00000000000E+00 0.  1.
         -4    1    6    6    0  503 -0.38454365487E+02  0.17965891633E+03 -0.31867424642E+03  0.36784417866E+03  0.00000000000E+00 0.  1.
<mgrwt>
<rscale>  0 0.20678714E+04</rscale>
<asrwt>0</asrwt>
<pdfrwt beam="1">  1        1 0.24823827E+00 0.20678714E+04</pdfrwt>
<pdfrwt beam="2">  1       -1 0.10192755E+00 0.20678714E+04</pdfrwt>
<totfact> 0.45941445E+00</totfact>
</mgrwt>
</event>
<event>
12    1  0.4403484E-008  0.1830341E+04  0.7818608E-02  0.8690329E-01
          2   -1    0    0  501    0  0.00000000000E+00  0.00000000000E+00  0.91610977765E+03  0.91610977765E+03  0.00000000000E+00 0. -1.
         -2   -1    0    0    0  501 -0.00000000000E+00 -0.00000000000E+00 -0.91423246778E+03  0.91423246778E+03  0.00000000000E+00 0.  1.
         23    2    1    2    0    0 -0.57624515014E+03  0.26212986586E+03 -0.29028453441E+03  0.70260941079E+03  0.92867290141E+02 0.  0.
        254    2    1    2    0    0  0.57624515014E+03 -0.26212986586E+03  0.29216184428E+03  0.11277328346E+04  0.88637027445E+03 0.  0.
         23    2    4    4    0    0 -0.12330238087E+03 -0.25585612268E+03  0.29857429517E+03  0.42233873024E+03  0.92507084511E+02 0.  0.
         23    2    4    4    0    0  0.69954753101E+03 -0.62737431876E+01 -0.64124508954E+01  0.70539410439E+03  0.90186556625E+02 0.  0.
         11    1    3    3    0    0 -0.47981950832E+03  0.23921880072E+03 -0.21291204705E+03  0.57687428003E+03  0.00000000000E+00 0.  1.
        -11    1    3    3    0    0 -0.96425641815E+02  0.22911065140E+02 -0.77372487368E+02  0.12573513076E+03  0.00000000000E+00 0. -1.
          2    1    5    5  502    0 -0.49518920324E+02 -0.32668186228E+02  0.91626414727E+02  0.10915463223E+03  0.00000000000E+00 0.  1.
          1    1    6    6  503    0  0.69521360267E+03  0.27430862401E+01 -0.46429743723E+01  0.69523451804E+03  0.00000000000E+00 0. -1.
         -2    1    5    5    0  502 -0.73783460543E+02 -0.22318793645E+03  0.20694788045E+03  0.31318409801E+03  0.00000000000E+00 0. -1.
         -1    1    6    6    0  503  0.43339283356E+01 -0.90168294278E+01 -0.17694765231E+01  0.10159586355E+02  0.00000000000E+00 0.  1.
<mgrwt>
<rscale>  0 0.18303413E+04</rscale>
<asrwt>0</asrwt>
<pdfrwt beam="1">  1        2 0.14093997E+00 0.18303413E+04</pdfrwt>
<pdfrwt beam="2">  1       -2 0.14065115E+00 0.18303413E+04</pdfrwt>
<totfact> 0.95553753E+00</totfact>
</mgrwt>
</event>
<event>
12    1  0.4403484E-008  0.2257170E+04  0.7818608E-02  0.8495002E-01
          2   -1    0    0  501    0  0.00000000000E+00  0.00000000000E+00  0.13128275593E+04  0.13128275593E+04  0.00000000000E+00 0.  1.
         -2   -1    0    0    0  501 -0.00000000000E+00 -0.00000000000E+00 -0.97019936211E+03  0.97019936211E+03  0.00000000000E+00 0. -1.
         23    2    1    2    0    0 -0.43516348931E+03  0.51975004621E+03  0.81232418379E+03  0.10615497017E+04  0.86659198179E+02 0.  0.
        254    2    1    2    0    0  0.43516348931E+03 -0.51975004621E+03 -0.46969598664E+03  0.12214772197E+04  0.90104656114E+03 0.  0.
         23    2    4    4    0    0  0.47435364569E+03 -0.23211328188E+03 -0.66985606251E+03  0.85766778191E+03  0.89436697418E+02 0.  0.
         23    2    4    4    0    0 -0.39190156379E+02 -0.28763676433E+03  0.20016007587E+03  0.36380943776E+03  0.89568267169E+02 0.  0.
         11    1    3    3    0    0 -0.20963131015E+03  0.25049974094E+03  0.45893163415E+03  0.56330600142E+03  0.00000000000E+00 0.  1.
        -11    1    3    3    0    0 -0.22553217916E+03  0.26925030527E+03  0.35339254964E+03  0.49824370028E+03  0.00000000000E+00 0. -1.
          2    1    5    5  502    0  0.27199792978E+03 -0.15666495767E+03 -0.45719342259E+03  0.55457425871E+03  0.00000000000E+00 0.  1.
          3    1    6    6  503    0 -0.36902630014E+02 -0.90383591994E+02  0.10951878285E+03  0.14671523984E+03  0.00000000000E+00 0. -1.
         -2    1    5    5    0  502  0.20235571591E+03 -0.75448324216E+02 -0.21266263991E+03  0.30309352320E+03  0.00000000000E+00 0. -1.
         -3    1    6    6    0  503 -0.22875263652E+01 -0.19725317233E+03  0.90641293018E+02  0.21709419793E+03  0.00000000000E+00 0.  1.
<mgrwt>
<rscale>  0 0.22571703E+04</rscale>
<asrwt>0</asrwt>
<pdfrwt beam="1">  1        2 0.20197347E+00 0.22571703E+04</pdfrwt>
<pdfrwt beam="2">  1       -2 0.14926144E+00 0.22571703E+04</pdfrwt>
<totfact> 0.44882976E+00</totfact>
</mgrwt>
</event>
<event>
12    1  0.4403484E-008  0.2055683E+04  0.7818608E-02  0.8581020E-01
          2   -1    0    0  501    0  0.00000000000E+00  0.00000000000E+00  0.96631533955E+03  0.96631533955E+03  0.00000000000E+00 0. -1.
         -2   -1    0    0    0  501 -0.00000000000E+00 -0.00000000000E+00 -0.10932856087E+04  0.10932856087E+04  0.00000000000E+00 0.  1.
         23    2    1    2    0    0  0.24829089697E+03 -0.33556889054E+03 -0.81613544160E+03  0.92173313896E+03  0.96229260624E+02 0.  0.
        254    2    1    2    0    0 -0.24829089697E+03  0.33556889054E+03  0.68916517247E+03  0.11378678093E+04  0.80345483172E+03 0.  0.
         23    2    4    4    0    0 -0.34572330273E+03 -0.14904555945E+03  0.40886584840E+03  0.56260887577E+03  0.87282783317E+02 0.  0.
         23    2    4    4    0    0  0.97432405759E+02  0.48461444999E+03  0.28029932407E+03  0.57525893350E+03  0.89503579070E+02 0.  0.
         11    1    3    3    0    0  0.14597892074E+02 -0.38004833811E+01 -0.77562312055E+02  0.79015532512E+02  0.00000000000E+00 0. -1.
        -11    1    3    3    0    0  0.23369300490E+03 -0.33176840716E+03 -0.73857312955E+03  0.84271760645E+03  0.00000000000E+00 0.  1.
          2    1    5    5  502    0 -0.47828677975E+02  0.96981020687E+01  0.56293622965E+02  0.74502400009E+02  0.00000000000E+00 0. -1.
          3    1    6    6  503    0  0.62391195490E+01  0.15700988760E+03  0.51358686359E+02  0.16531408313E+03  0.00000000000E+00 0. -1.
         -2    1    5    5    0  502 -0.29789462475E+03 -0.15874366152E+03  0.35257222544E+03  0.48810647576E+03  0.00000000000E+00 0.  1.
         -3    1    6    6    0  503  0.91193286210E+02  0.32760456239E+03  0.22894063771E+03  0.40994485037E+03  0.00000000000E+00 0.  1.
<mgrwt>
<rscale>  0 0.20556835E+04</rscale>
<asrwt>0</asrwt>
<pdfrwt beam="1">  1        2 0.14866390E+00 0.20556835E+04</pdfrwt>
<pdfrwt beam="2">  1       -2 0.16819779E+00 0.20556835E+04</pdfrwt>
<totfact> 0.53773355E+00</totfact>
</mgrwt>
</event>
<event>
12    1  0.4403484E-008  0.1924937E+04  0.7818608E-02  0.8642542E-01
         -1   -1    0    0    0  501 -0.00000000000E+00  0.00000000000E+00  0.12385916429E+04  0.12385916429E+04  0.00000000000E+00 0.  1.
          1   -1    0    0  501    0  0.00000000000E+00 -0.00000000000E+00 -0.74790232572E+03  0.74790232572E+03  0.00000000000E+00 0. -1.
         23    2    1    2    0    0 -0.10526507735E+03  0.31520848550E+03 -0.50492429897E+03  0.61131745017E+03  0.91232402940E+02 0.  0.
        254    2    1    2    0    0  0.10526507735E+03 -0.31520848550E+03  0.99561361619E+03  0.13751765185E+04  0.88849696590E+03 0.  0.
         23    2    4    4    0    0 -0.24175936100E+03 -0.83314796584E+02 -0.21174807305E+02  0.27231342676E+03  0.91199155522E+02 0.  0.
         23    2    4    4    0    0  0.34702443835E+03 -0.23189368892E+03  0.10167884235E+04  0.11028630917E+04  0.90816612903E+02 0.  0.
         11    1    3    3    0    0 -0.78943184453E+02  0.22288156744E+03 -0.27822111535E+03  0.36512355238E+03  0.00000000000E+00 0. -1.
        -11    1    3    3    0    0 -0.26321892898E+02  0.92326918066E+02 -0.22670318362E+03  0.24619389779E+03  0.00000000000E+00 0.  1.
          2    1    5    5  502    0 -0.21140887195E+03 -0.46312089360E+02 -0.41419565328E+02  0.22034995156E+03  0.00000000000E+00 0.  1.
          3    1    6    6  503    0  0.70062134291E+01 -0.31907181843E+02  0.78619236676E+02  0.85136006809E+02  0.00000000000E+00 0. -1.
         -2    1    5    5    0  502 -0.30350489051E+02 -0.37002707224E+02  0.20244758024E+02  0.51963475201E+02  0.00000000000E+00 0. -1.
         -3    1    6    6    0  503  0.34001822492E+03 -0.19998650708E+03  0.93816918682E+03  0.10177270849E+04  0.00000000000E+00 0.  1.
<mgrwt>
<rscale>  0 0.19249370E+04</rscale>
<asrwt>0</asrwt>
<pdfrwt beam="1">  1        1 0.11506190E+00 0.19249370E+04</pdfrwt>
<pdfrwt beam="2">  1       -1 0.19055256E+00 0.19249370E+04</pdfrwt>
<totfact> 0.40217565E+00</totfact>
</mgrwt>
</event>
<event>
12    1  0.4403484E-008  0.1850753E+04  0.7818608E-02  0.8679766E-01
         -1   -1    0    0    0  501 -0.00000000000E+00  0.00000000000E+00  0.27259473686E+04  0.27259473686E+04  0.00000000000E+00 0.  1.
          1   -1    0    0  501    0  0.00000000000E+00 -0.00000000000E+00 -0.31413733193E+03  0.31413733193E+03  0.00000000000E+00 0. -1.
         23    2    1    2    0    0 -0.36949811802E+03  0.45474866235E+03  0.16106344751E+04  0.17163297507E+04  0.91209624132E+02 0.  0.
        254    2    1    2    0    0  0.36949811802E+03 -0.45474866235E+03  0.80117556156E+03  0.13237549498E+04  0.87585368736E+03 0.  0.
         23    2    4    4    0    0  0.46768297023E+03  0.52695143834E+02  0.18478501035E+03  0.51406146351E+03  0.92787657531E+02 0.  0.
         23    2    4    4    0    0 -0.98184852210E+02 -0.50744380618E+03  0.61639055121E+03  0.80969348633E+03  0.92340395038E+02 0.  0.
         11    1    3    3    0    0 -0.36755995354E+03  0.43457749961E+03  0.15818096102E+04  0.16810947521E+04  0.00000000000E+00 0.  1.
        -11    1    3    3    0    0 -0.19381644761E+01  0.20171162732E+02  0.28824864867E+02  0.35234998540E+02  0.00000000000E+00 0. -1.
          4    1    5    5  502    0  0.41479207888E+03  0.60938633245E+02  0.18997951997E+03  0.46028057067E+03  0.00000000000E+00 0. -1.
          3    1    6    6  503    0 -0.99007245352E+02 -0.28013612315E+03  0.32974362488E+03  0.44385756755E+03  0.00000000000E+00 0. -1.
         -4    1    5    5    0  502  0.52890891345E+02 -0.82434894104E+01 -0.51945096153E+01  0.53780892844E+02  0.00000000000E+00 0.  1.
         -3    1    6    6    0  503  0.82239314187E+00 -0.22730768303E+03  0.28664692633E+03  0.36583591878E+03  0.00000000000E+00 0.  1.
<mgrwt>
<rscale>  0 0.18507532E+04</rscale>
<asrwt>0</asrwt>
<pdfrwt beam="1">  1        1 0.48328822E-01 0.18507532E+04</pdfrwt>
<pdfrwt beam="2">  1       -1 0.41937650E+00 0.18507532E+04</pdfrwt>
<totfact> 0.40944005E-01</totfact>
</mgrwt>
</event>
<event>
12    1  0.4403484E-008  0.2370597E+04  0.7818608E-02  0.8450594E-01
          2   -1    0    0  501    0  0.00000000000E+00  0.00000000000E+00  0.27197483885E+04  0.27197483885E+04  0.00000000000E+00 0. -1.
         -2   -1    0    0    0  501 -0.00000000000E+00 -0.00000000000E+00 -0.51656707982E+03  0.51656707982E+03  0.00000000000E+00 0.  1.
         23    2    1    2    0    0  0.69958453802E+03 -0.44443775938E+03  0.17612604788E+04  0.19486772610E+04  0.91439298321E+02 0.  0.
        254    2    1    2    0    0 -0.69958453802E+03  0.44443775938E+03  0.44192082984E+03  0.12876382073E+04  0.88078072491E+03 0.  0.
         23    2    4    4    0    0 -0.22180781648E+03 -0.21879096015E+03  0.31800242427E+03  0.45530428727E+03  0.95437206949E+02 0.  0.
         23    2    4    4    0    0 -0.47777672154E+03  0.66322871953E+03  0.12391840557E+03  0.83233392008E+03  0.96338223074E+02 0.  0.
         13    1    3    3    0    0  0.25525443838E+03 -0.17041583041E+03  0.75671472358E+03  0.81658652722E+03  0.00000000000E+00 0.  1.
        -13    1    3    3    0    0  0.44433009964E+03 -0.27402192897E+03  0.10045457553E+04  0.11320907337E+04  0.00000000000E+00 0. -1.
          4    1    5    5  502    0 -0.22954754871E+02  0.72548533741E+01  0.16225209186E+02  0.29031208755E+02  0.00000000000E+00 0. -1.
          3    1    6    6  503    0 -0.26774868438E+03  0.35410956756E+03  0.11462110706E+03  0.45849857361E+03  0.00000000000E+00 0. -1.
         -4    1    5    5    0  502 -0.19885306161E+03 -0.22604581352E+03  0.30177721508E+03  0.42627307851E+03  0.00000000000E+00 0.  1.
         -3    1    6    6    0  503 -0.21002803715E+03  0.30911915197E+03  0.92972985138E+01  0.37383534646E+03  0.00000000000E+00 0.  1.
<mgrwt>
<rscale>  0 0.23705970E+04</rscale>
<asrwt>0</asrwt>
<pdfrwt beam="1">  1        2 0.41842282E+00 0.23705970E+04</pdfrwt>
<pdfrwt beam="2">  1       -2 0.79471860E-01 0.23705970E+04</pdfrwt>
<totfact> 0.32687967E+00</totfact>
</mgrwt>
</event>
<event>
12    1  0.4403484E-008  0.1452112E+04  0.7818608E-02  0.8916938E-01
         -1   -1    0    0    0  501 -0.00000000000E+00  0.00000000000E+00  0.11998361210E+04  0.11998361210E+04  0.00000000000E+00 0.  1.
          1   -1    0    0  501    0  0.00000000000E+00 -0.00000000000E+00 -0.43935774066E+03  0.43935774066E+03  0.00000000000E+00 0. -1.
         23    2    1    2    0    0 -0.88760438001E+02 -0.40330567675E+03  0.36771902775E+03  0.56049838356E+03  0.91691168349E+02 0.  0.
        254    2    1    2    0    0  0.88760438001E+02  0.40330567675E+03  0.39275935259E+03  0.10786954781E+04  0.91585486904E+03 0.  0.
         23    2    4    4    0    0 -0.35466561362E+03 -0.50127205997E+01  0.27454408615E+03  0.45787433154E+03  0.91987082751E+02 0.  0.
         23    2    4    4    0    0  0.44342605162E+03  0.40831839735E+03  0.11821526643E+03  0.62082114654E+03  0.89963714412E+02 0.  0.
         11    1    3    3    0    0 -0.53929420032E+01 -0.83142567650E+02  0.32264642625E+02  0.89346390764E+02  0.00000000000E+00 0. -1.
        -11    1    3    3    0    0 -0.83367495998E+02 -0.32016310910E+03  0.33545438513E+03  0.47115199280E+03  0.00000000000E+00 0.  1.
          1    1    5    5  502    0 -0.64231366447E+02 -0.15892946145E+02  0.14182887753E+02  0.67671326851E+02  0.00000000000E+00 0. -1.
          1    1    6    6  503    0  0.33168337027E+02  0.36317758797E+02  0.35996985393E+02  0.60949988864E+02  0.00000000000E+00 0. -1.
         -1    1    5    5    0  502 -0.29043424717E+03  0.10880225545E+02  0.26036119840E+03  0.39020300469E+03  0.00000000000E+00 0.  1.
         -1    1    6    6    0  503  0.41025771459E+03  0.37200063855E+03  0.82218281042E+02  0.55987115768E+03  0.00000000000E+00 0.  1.
<mgrwt>
<rscale>  0 0.14521120E+04</rscale>
<asrwt>0</asrwt>
<pdfrwt beam="1">  1        1 0.67593499E-01 0.14521120E+04</pdfrwt>
<pdfrwt beam="2">  1       -1 0.18459017E+00 0.14521120E+04</pdfrwt>
<totfact> 0.99092505E+00</totfact>
</mgrwt>
</event>
<event>
12    1  0.4403484E-008  0.2468346E+04  0.7818608E-02  0.8414350E-01
          2   -1    0    0  501    0  0.00000000000E+00  0.00000000000E+00  0.13057618162E+04  0.13057618162E+04  0.00000000000E+00 0.  1.
         -2   -1    0    0    0  501 -0.00000000000E+00 -0.00000000000E+00 -0.11665086335E+04  0.11665086335E+04  0.00000000000E+00 0. -1.
         23    2    1    2    0    0  0.10029000374E+04 -0.25614318806E+03  0.32576495426E+03  0.10886255202E+04  0.86976433446E+02 0.  0.
        254    2    1    2    0    0 -0.10029000374E+04  0.25614318806E+03 -0.18651177155E+03  0.13836449295E+04  0.89903772568E+03 0.  0.
         23    2    4    4    0    0 -0.34466561347E+03  0.21629520511E+03  0.33736675712E+03  0.53632370617E+03  0.90822839220E+02 0.  0.
         23    2    4    4    0    0 -0.65823442397E+03  0.39847982942E+02 -0.52387852867E+03  0.84732122335E+03  0.92973781792E+02 0.  0.
         13    1    3    3    0    0  0.60744071284E+03 -0.11391709587E+03  0.17809708415E+03  0.64317952061E+03  0.00000000000E+00 0.  1.
        -13    1    3    3    0    0  0.39545932460E+03 -0.14222609218E+03  0.14766787011E+03  0.44544599962E+03  0.00000000000E+00 0. -1.
          4    1    5    5  502    0 -0.77138260549E+02  0.86383077856E+01  0.74835098620E+02  0.10782033012E+03  0.00000000000E+00 0. -1.
          1    1    6    6  503    0 -0.35258450870E+03  0.66259308212E+02 -0.29729499368E+03  0.46592965667E+03  0.00000000000E+00 0. -1.
         -4    1    5    5    0  502 -0.26752735292E+03  0.20765689733E+03  0.26253165850E+03  0.42850337605E+03  0.00000000000E+00 0.  1.
         -1    1    6    6    0  503 -0.30564991527E+03 -0.26411325269E+02 -0.22658353499E+03  0.38139156668E+03  0.00000000000E+00 0.  1.
<mgrwt>
<rscale>  0 0.24683455E+04</rscale>
<asrwt>0</asrwt>
<pdfrwt beam="1">  1        2 0.20088643E+00 0.24683455E+04</pdfrwt>
<pdfrwt beam="2">  1       -2 0.17946287E+00 0.24683455E+04</pdfrwt>
<totfact> 0.26828479E+00</totfact>
</mgrwt>
</event>
<event>
12    1  0.4403484E-008  0.2672856E+04  0.7818608E-02  0.8343866E-01
         -3   -1    0    0    0  501 -0.00000000000E+00  0.00000000000E+00  0.17007391743E+04  0.17007391743E+04  0.00000000000E+00 0.  1.
          3   -1    0    0  501    0  0.00000000000E+00 -0.00000000000E+00 -0.10501549364E+04  0.10501549364E+04  0.00000000000E+00 0. -1.
         23    2    1    2    0    0 -0.19886096301E+03 -0.49604016881E+02  0.14876866426E+04  0.15044743938E+04  0.90694067897E+02 0.  0.
        254    2    1    2    0    0  0.19886096301E+03  0.49604016881E+02 -0.83710240465E+03  0.12464197169E+04  0.90045290484E+03 0.  0.
         23    2    4    4    0    0  0.44075831679E+03  0.30252032282E+03 -0.37045741762E+03  0.65614072054E+03  0.86576598062E+02 0.  0.
         23    2    4    4    0    0 -0.24189735378E+03 -0.25291630594E+03 -0.46664498703E+03  0.59027899641E+03  0.90502829305E+02 0.  0.
         11    1    3    3    0    0 -0.15511029756E+03 -0.21792141466E+02  0.82324705889E+03  0.83801540667E+03  0.00000000000E+00 0. -1.
        -11    1    3    3    0    0 -0.43750665452E+02 -0.27811875414E+02  0.66443958367E+03  0.66645898710E+03  0.00000000000E+00 0.  1.
          2    1    5    5  502    0  0.40925949866E+03  0.30396781578E+03 -0.34426247758E+03  0.61514748129E+03  0.00000000000E+00 0. -1.
          2    1    6    6  503    0 -0.21716096694E+03 -0.24417187174E+03 -0.45806682997E+03  0.56267575852E+03  0.00000000000E+00 0. -1.
         -2    1    5    5    0  502  0.31498818131E+02 -0.14474929593E+01 -0.26194940048E+02  0.40993239243E+02  0.00000000000E+00 0.  1.
         -2    1    6    6    0  503 -0.24736386843E+02 -0.87444342020E+01 -0.85781570564E+01  0.27603237890E+02  0.00000000000E+00 0.  1.
<mgrwt>
<rscale>  0 0.26728559E+04</rscale>
<asrwt>0</asrwt>
<pdfrwt beam="1">  1        3 0.16156230E+00 0.26728559E+04</pdfrwt>
<pdfrwt beam="2">  1       -3 0.26165218E+00 0.26728559E+04</pdfrwt>
<totfact> 0.38133012E-02</totfact>
</mgrwt>
</event>
<event>
12    1  0.4403484E-008  0.1575317E+04  0.7818608E-02  0.8835857E-01
         -2   -1    0    0    0  501 -0.00000000000E+00  0.00000000000E+00  0.34889097511E+03  0.34889097511E+03  0.00000000000E+00 0.  1.
          2   -1    0    0  501    0  0.00000000000E+00 -0.00000000000E+00 -0.17782221709E+04  0.17782221709E+04  0.00000000000E+00 0. -1.
         23    2    1    2    0    0  0.15622565072E+03  0.41063598146E+03 -0.90204736563E+02  0.45776905492E+03  0.91581930156E+02 0.  0.
        254    2    1    2    0    0 -0.15622565072E+03 -0.41063598146E+03 -0.13391264592E+04  0.16693440911E+04  0.89466287362E+03 0.  0.
         23    2    4    4    0    0  0.94410036320E+01  0.27252064201E+03 -0.40546437953E+03  0.49707717465E+03  0.91256351122E+02 0.  0.
         23    2    4    4    0    0 -0.16566665435E+03 -0.68315662347E+03 -0.93366207966E+03  0.11722669164E+04  0.91304062056E+02 0.  0.
         13    1    3    3    0    0  0.22748783710E+02  0.11865194941E+02 -0.17389182195E+02  0.30994736145E+02  0.00000000000E+00 0. -1.
        -13    1    3    3    0    0  0.13347686701E+03  0.39877078652E+03 -0.72815554368E+02  0.42677431878E+03  0.00000000000E+00 0.  1.
          2    1    5    5  502    0  0.24500716648E+02  0.26699885767E+03 -0.36006149054E+03  0.44892421641E+03  0.00000000000E+00 0. -1.
          3    1    6    6  503    0 -0.85624869151E+01 -0.11544421299E+03 -0.20350490125E+03  0.23412587924E+03  0.00000000000E+00 0. -1.
         -2    1    5    5    0  502 -0.15059713016E+02  0.55217843413E+01 -0.45402888985E+02  0.48152958233E+02  0.00000000000E+00 0.  1.
         -3    1    6    6    0  503 -0.15710416743E+03 -0.56771241048E+03 -0.73015717842E+03  0.93814103717E+03  0.00000000000E+00 0.  1.
<mgrwt>
<rscale>  0 0.15753167E+04</rscale>
<asrwt>0</asrwt>
<pdfrwt beam="1">  1        2 0.27357264E+00 0.15753167E+04</pdfrwt>
<pdfrwt beam="2">  1       -2 0.53675535E-01 0.15753167E+04</pdfrwt>
<totfact> 0.27875113E+01</totfact>
</mgrwt>
</event>
<event>
12    1  0.4403484E-008  0.1368012E+04  0.7818608E-02  0.8977304E-01
          1   -1    0    0  501    0  0.00000000000E+00  0.00000000000E+00  0.12249025759E+04  0.12249025759E+04  0.00000000000E+00 0. -1.
         -1   -1    0    0    0  501 -0.00000000000E+00 -0.00000000000E+00 -0.38196025839E+03  0.38196025839E+03  0.00000000000E+00 0.  1.
         23    2    1    2    0    0  0.69664040140E+02 -0.32121294075E+03  0.15684870635E+02  0.34116586774E+03  0.90096072902E+02 0.  0.
        254    2    1    2    0    0 -0.69664040140E+02  0.32121294075E+03  0.82725744690E+03  0.12656969666E+04  0.89977947074E+03 0.  0.
         23    2    4    4    0    0 -0.22661120018E+03  0.34834878628E+03  0.95346168793E+03  0.10440303063E+04  0.90612235451E+02 0.  0.
         23    2    4    4    0    0  0.15694716004E+03 -0.27135845536E+02 -0.12620424103E+03  0.22166666026E+03  0.88542829524E+02 0.  0.
         11    1    3    3    0    0  0.46510515165E+02 -0.55184780213E+02 -0.10168745840E+02  0.72883409498E+02  0.00000000000E+00 0. -1.
        -11    1    3    3    0    0  0.23153524975E+02 -0.26602816053E+03  0.25853616475E+02  0.26828245824E+03  0.00000000000E+00 0.  1.
          2    1    5    5  502    0 -0.81285891967E+02  0.58220510772E+02  0.19742606275E+03  0.22130086841E+03  0.00000000000E+00 0.  1.
          3    1    6    6  503    0  0.14028238175E+03  0.43529649454E+01 -0.12168194064E+03  0.18575411062E+03  0.00000000000E+00 0. -1.
         -2    1    5    5    0  502 -0.14532530821E+03  0.29012827551E+03  0.75603562518E+03  0.82272943791E+03  0.00000000000E+00 0. -1.
         -3    1    6    6    0  503  0.16664778293E+02 -0.31488810481E+02 -0.45223003832E+01  0.35912549642E+02  0.00000000000E+00 0.  1.
<mgrwt>
<rscale>  0 0.13680118E+04</rscale>
<asrwt>0</asrwt>
<pdfrwt beam="1">  1        1 0.18844655E+00 0.13680118E+04</pdfrwt>
<pdfrwt beam="2">  1       -1 0.58763117E-01 0.13680118E+04</pdfrwt>
<totfact> 0.29397459E+01</totfact>
</mgrwt>
</event>
<event>
12    1  0.4403484E-008  0.1151262E+04  0.7818608E-02  0.9156620E-01
         -1   -1    0    0    0  501 -0.00000000000E+00  0.00000000000E+00  0.12152376195E+03  0.12152376195E+03  0.00000000000E+00 0.  1.
          1   -1    0    0  501    0  0.00000000000E+00 -0.00000000000E+00 -0.27266346402E+04  0.27266346402E+04  0.00000000000E+00 0. -1.
         23    2    1    2    0    0  0.14703097803E+03 -0.31592121058E+02 -0.14534895213E+03  0.22741863630E+03  0.89312639846E+02 0.  0.
        254    2    1    2    0    0 -0.14703097803E+03  0.31592121058E+02 -0.24597619261E+04  0.26207397659E+04  0.89175782389E+03 0.  0.
         23    2    4    4    0    0 -0.24543931053E+02  0.67519373320E+02  0.34665036048E+02  0.12138250001E+03  0.91491946418E+02 0.  0.
         23    2    4    4    0    0 -0.12248704698E+03 -0.35927252262E+02 -0.24944269622E+04  0.24993572658E+04  0.91252553645E+02 0.  0.
         13    1    3    3    0    0  0.19193365637E+02 -0.32802828098E+02 -0.68272609766E+02  0.78138083288E+02  0.00000000000E+00 0. -1.
        -13    1    3    3    0    0  0.12783761240E+03  0.12107070395E+01 -0.77076342360E+02  0.14928055301E+03  0.00000000000E+00 0.  1.
          4    1    5    5  502    0 -0.30442346040E+02  0.30342906958E+02 -0.25820297662E+02  0.50140963358E+02  0.00000000000E+00 0. -1.
          1    1    6    6  503    0 -0.18918727170E+00 -0.16227079107E+02 -0.73818488695E+02  0.75581235512E+02  0.00000000000E+00 0. -1.
         -4    1    5    5    0  502  0.58984149877E+01  0.37176466363E+02  0.60485333710E+02  0.71241536652E+02  0.00000000000E+00 0.  1.
         -1    1    6    6    0  503 -0.12229785971E+03 -0.19700173155E+02 -0.24206084735E+04  0.24237760303E+04  0.00000000000E+00 0.  1.
<mgrwt>
<rscale>  0 0.11512617E+04</rscale>
<asrwt>0</asrwt>
<pdfrwt beam="1">  1        1 0.41948222E+00 0.11512617E+04</pdfrwt>
<pdfrwt beam="2">  1       -1 0.18695965E-01 0.11512617E+04</pdfrwt>
<totfact> 0.21592657E+01</totfact>
</mgrwt>
</event>
<event>
12    1  0.4403484E-008  0.2473549E+04  0.7818608E-02  0.8412470E-01
         -1   -1    0    0    0  501 -0.00000000000E+00  0.00000000000E+00  0.12977559809E+04  0.12977559809E+04  0.00000000000E+00 0.  1.
          1   -1    0    0  501    0  0.00000000000E+00 -0.00000000000E+00 -0.11786586231E+04  0.11786586231E+04  0.00000000000E+00 0. -1.
         23    2    1    2    0    0  0.98490589476E+03  0.66028372546E+01 -0.36951122390E+03  0.10560849636E+04  0.93239942314E+02 0.  0.
        254    2    1    2    0    0 -0.98490589476E+03 -0.66028372546E+01  0.48860858165E+03  0.14203296404E+04  0.89917446709E+03 0.  0.
         23    2    4    4    0    0  0.10643330505E+03 -0.11189042721E+03  0.22755723609E+03  0.28949405907E+03  0.90426757193E+02 0.  0.
         23    2    4    4    0    0 -0.10913391998E+04  0.10528758996E+03  0.26105134557E+03  0.11308355813E+04  0.92382797467E+02 0.  0.
         13    1    3    3    0    0  0.34627920905E+03 -0.85740565521E+01 -0.17647116807E+03  0.38874783373E+03  0.00000000000E+00 0.  1.
        -13    1    3    3    0    0  0.63862668570E+03  0.15176893807E+02 -0.19304005583E+03  0.66733712990E+03  0.00000000000E+00 0. -1.
          1    1    5    5  502    0  0.10172624236E+03 -0.68881365527E+02  0.11253751366E+03  0.16660601094E+03  0.00000000000E+00 0. -1.
          3    1    6    6  503    0 -0.10117515138E+04  0.87342236763E+02  0.21824324846E+03  0.10387010675E+04  0.00000000000E+00 0. -1.
         -1    1    5    5    0  502  0.47070626944E+01 -0.43009061684E+02  0.11501972242E+03  0.12288804813E+03  0.00000000000E+00 0.  1.
         -3    1    6    6    0  503 -0.79587685973E+02  0.17945353194E+02  0.42808097105E+02  0.92134513824E+02  0.00000000000E+00 0.  1.
<mgrwt>
<rscale>  0 0.24735491E+04</rscale>
<asrwt>0</asrwt>
<pdfrwt beam="1">  1        1 0.18133210E+00 0.24735491E+04</pdfrwt>
<pdfrwt beam="2">  1       -1 0.19965477E+00 0.24735491E+04</pdfrwt>
<totfact> 0.14928647E+00</totfact>
</mgrwt>
</event>
<event>
12    1  0.4403484E-008  0.1489859E+04  0.7818608E-02  0.8891225E-01
          2   -1    0    0  501    0  0.00000000000E+00  0.00000000000E+00  0.81679109815E+03  0.81679109815E+03  0.00000000000E+00 0. -1.
         -2   -1    0    0    0  501 -0.00000000000E+00 -0.00000000000E+00 -0.67939040046E+03  0.67939040046E+03  0.00000000000E+00 0.  1.
         23    2    1    2    0    0  0.28667522106E+03  0.70945901369E+02  0.39852671591E+03  0.50438914152E+03  0.91481470808E+02 0.  0.
        254    2    1    2    0    0 -0.28667522106E+03 -0.70945901369E+02 -0.26112601822E+03  0.99179235709E+03  0.91008201768E+03 0.  0.
         23    2    4    4    0    0  0.26403588329E+01 -0.45265347607E+03 -0.63706627967E+02  0.46592291954E+03  0.90130414456E+02 0.  0.
         23    2    4    4    0    0 -0.28931557989E+03  0.38170757471E+03 -0.19741939025E+03  0.52586943755E+03  0.90333118743E+02 0.  0.
         13    1    3    3    0    0  0.23745251567E+03  0.87739375703E+02  0.35798246190E+03  0.43844422481E+03  0.00000000000E+00 0. -1.
        -13    1    3    3    0    0  0.49222705393E+02 -0.16793474334E+02  0.40544254011E+02  0.65944916709E+02  0.00000000000E+00 0.  1.
          3    1    6    6  502    0 -0.42487385898E+02  0.12158164162E+03 -0.54274533802E+02  0.13976050428E+03  0.00000000000E+00 0. -1.
          3    1    5    5  503    0  0.43704432918E+01 -0.62726215304E+02 -0.41542968225E+02  0.75362438056E+02  0.00000000000E+00 0. -1.
         -3    1    5    5    0  503 -0.17300844589E+01 -0.38992726077E+03 -0.22163659742E+02  0.39056048148E+03  0.00000000000E+00 0.  1.
         -3    1    6    6    0  502 -0.24682819400E+03  0.26012593309E+03 -0.14314485645E+03  0.38610893326E+03  0.00000000000E+00 0.  1.
<mgrwt>
<rscale>  0 0.14898591E+04</rscale>
<asrwt>0</asrwt>
<pdfrwt beam="1">  1        2 0.12566017E+00 0.14898591E+04</pdfrwt>
<pdfrwt beam="2">  1       -2 0.10452160E+00 0.14898591E+04</pdfrwt>
<totfact> 0.24078368E+01</totfact>
</mgrwt>
</event>
