<event>
12    3  0.1182097E-007  0.1117762E+04  0.7818608E-02  0.9188050E-01
         -4   -1    0    0    0  501 -0.00000000000E+00  0.00000000000E+00  0.11561011831E+04  0.11561011831E+04  0.00000000000E+00 0.  1.
          1   -1    0    0  501    0  0.00000000000E+00 -0.00000000000E+00 -0.14591222940E+04  0.14591222940E+04  0.00000000000E+00 0. -1.
        -24    2    1    2    0    0  0.43568872018E+03 -0.99827273142E+03  0.42773963818E+03  0.11727986298E+04  0.78245260127E+02 0.  0.
    5000000    2    1    2    0    0 -0.43568872018E+03  0.99827273142E+03 -0.73076074908E+03  0.14424248473E+04  0.60017085947E+03 0.  0.
        -24    2    4    4    0    0 -0.22060838674E+03  0.17419592402E+03  0.34395292944E+02  0.29466678161E+03  0.81444433561E+02 0.  0.
         24    2    4    4    0    0 -0.21508033344E+03  0.82407680739E+03 -0.76515604202E+03  0.11477580657E+04  0.80763075865E+02 0.  0.
         13    1    3    3    0    0  0.25403069447E+03 -0.65275231118E+03  0.30098947915E+03  0.76237250741E+03  0.00000000000E+00 0. -1.
        -14    1    3    3    0    0  0.18165802571E+03 -0.34552042023E+03  0.12675015902E+03  0.41042612236E+03  0.00000000000E+00 0.  1.
         15    1    5    5    0    0 -0.12523820775E+03  0.14088048634E+03  0.17980076940E+01  0.18851607536E+03  0.17770000000E+01 0. -1.
        -16    1    5    5    0    0 -0.95370178998E+02  0.33315437687E+02  0.32597285250E+02  0.10615070624E+03  0.00000000000E+00 0.  1.
          2    1    6    6  502    0 -0.11971123414E+03  0.30937394409E+03 -0.31195861719E+03  0.45536929596E+03  0.00000000000E+00 0. -1.
         -1    1    6    6    0  502 -0.95369099298E+02  0.51470286330E+03 -0.45319742483E+03  0.69238876974E+03  0.00000000000E+00 0.  1.
<mgrwt>
<rscale>  0 0.11177625E+04</rscale>
<asrwt>0</asrwt>
<pdfrwt beam="1">  1        1 0.22448035E+00 0.11177625E+04</pdfrwt>
<pdfrwt beam="2">  1       -4 0.17786172E+00 0.11177625E+04</pdfrwt>
<totfact> 0.60943645E-01</totfact>
</mgrwt>
</event>
<event>
12    3  0.1182097E-007  0.5443016E+03  0.7818608E-02  0.1002822E+00
         -2   -1    0    0    0  501 -0.00000000000E+00  0.00000000000E+00  0.78088446132E+03  0.78088446132E+03  0.00000000000E+00 0.  1.
          1   -1    0    0  501    0  0.00000000000E+00 -0.00000000000E+00 -0.47204105143E+03  0.47204105143E+03  0.00000000000E+00 0. -1.
        -24    2    1    2    0    0  0.28534347773E+03  0.27113186585E+03  0.35223624566E+03  0.53423587680E+03  0.80026310307E+02 0.  0.
    5000000    2    1    2    0    0 -0.28534347773E+03 -0.27113186585E+03 -0.43392835760E+02  0.71868963596E+03  0.59974866876E+03 0.  0.
        -24    2    4    4    0    0 -0.29466436364E+03  0.10233162250E+03 -0.88938909366E+02  0.33416082199E+03  0.80339760967E+02 0.  0.
         24    2    4    4    0    0  0.93208859137E+01 -0.37346348835E+03  0.45546073605E+02  0.38452881397E+03  0.78905689944E+02 0.  0.
         13    1    3    3    0    0  0.24562450557E+03  0.19560576591E+03  0.29946441876E+03  0.43390315913E+03  0.00000000000E+00 0. -1.
        -14    1    3    3    0    0  0.39718972155E+02  0.75526099943E+02  0.52771826894E+02  0.10033271767E+03  0.00000000000E+00 0.  1.
         15    1    5    5    0    0 -0.13529020601E+03  0.72527608082E+02 -0.10031839050E+02  0.15384241710E+03  0.17770000000E+01 0. -1.
        -16    1    5    5    0    0 -0.15937415763E+03  0.29804014414E+02 -0.78907070316E+02  0.18031840489E+03  0.00000000000E+00 0.  1.
          2    1    6    6  502    0  0.58829487787E+01 -0.12817216617E+03  0.53667974051E+02  0.13907898729E+03  0.00000000000E+00 0. -1.
         -1    1    6    6    0  502  0.34379371350E+01 -0.24529132218E+03 -0.81219004459E+01  0.24544982668E+03  0.00000000000E+00 0.  1.
<mgrwt>
<rscale>  0 0.54430157E+03</rscale>
<asrwt>0</asrwt>
<pdfrwt beam="1">  1        1 0.72621700E-01 0.54430157E+03</pdfrwt>
<pdfrwt beam="2">  1       -2 0.12013607E+00 0.54430157E+03</pdfrwt>
<totfact> 0.23065774E+01</totfact>
</mgrwt>
</event>
<event>
12    3  0.1182097E-007  0.9084871E+03  0.7818608E-02  0.9415034E-01
         -2   -1    0    0    0  501 -0.00000000000E+00  0.00000000000E+00  0.24650953504E+03  0.24650953504E+03  0.00000000000E+00 0.  1.
          1   -1    0    0  501    0  0.00000000000E+00 -0.00000000000E+00 -0.40527472426E+04  0.40527472426E+04  0.00000000000E+00 0. -1.
        -24    2    1    2    0    0  0.81808610074E+03 -0.33583216130E+03 -0.21739307935E+04  0.23482487240E+04  0.79049769012E+02 0.  0.
    5000000    2    1    2    0    0 -0.81808610074E+03  0.33583216130E+03 -0.16323069140E+04  0.19510080536E+04  0.59996537809E+03 0.  0.
        -24    2    4    4    0    0 -0.54122374662E+03  0.34768569461E+03 -0.14986949055E+04  0.16329147207E+04  0.80719137665E+02 0.  0.
         24    2    4    4    0    0 -0.27686235412E+03 -0.11853533317E+02 -0.13361200852E+03  0.31809333290E+03  0.80857468637E+02 0.  0.
         13    1    3    3    0    0  0.32683760955E+03 -0.12175525086E+03 -0.95632089261E+03  0.10179375294E+04  0.00000000000E+00 0. -1.
        -14    1    3    3    0    0  0.49124849119E+03 -0.21407691043E+03 -0.12176099009E+04  0.13303111946E+04  0.00000000000E+00 0.  1.
         15    1    5    5    0    0 -0.36176897142E+02  0.34703653510E+02 -0.17370750460E+03  0.18080532719E+03  0.17770000000E+01 0. -1.
        -16    1    5    5    0    0 -0.50504684948E+03  0.31298204110E+03 -0.13249874009E+04  0.14521093935E+04  0.00000000000E+00 0.  1.
          4    1    6    6  502    0 -0.12636177009E+03 -0.44559014212E+02 -0.51377508684E+02  0.14350070065E+03  0.00000000000E+00 0. -1.
         -3    1    6    6    0  502 -0.15050058403E+03  0.32705480895E+02 -0.82234499836E+02  0.17459263225E+03  0.00000000000E+00 0.  1.
<mgrwt>
<rscale>  0 0.90848706E+03</rscale>
<asrwt>0</asrwt>
<pdfrwt beam="1">  1        1 0.62349954E+00 0.90848706E+03</pdfrwt>
<pdfrwt beam="2">  1       -2 0.37924546E-01 0.90848706E+03</pdfrwt>
<totfact> 0.53199855E-01</totfact>
</mgrwt>
</event>
<event>
12    3  0.1182097E-007  0.4271253E+03  0.7818608E-02  0.1034772E+00
         -2   -1    0    0    0  501 -0.00000000000E+00  0.00000000000E+00  0.64163854666E+03  0.64163854666E+03  0.00000000000E+00 0.  1.
          1   -1    0    0  501    0  0.00000000000E+00 -0.00000000000E+00 -0.45055708199E+03  0.45055708199E+03  0.00000000000E+00 0. -1.
        -24    2    1    2    0    0 -0.19322328357E+03  0.30728202285E+03  0.10622535093E+03  0.38587201262E+03  0.76523892130E+02 0.  0.
    5000000    2    1    2    0    0  0.19322328357E+03 -0.30728202285E+03  0.84856113745E+02  0.70632361603E+03  0.59994584059E+03 0.  0.
        -24    2    4    4    0    0  0.49302292189E+02 -0.33256665517E+03 -0.18289838306E+03  0.39099525807E+03  0.79963598975E+02 0.  0.
         24    2    4    4    0    0  0.14392099138E+03  0.25284632321E+02  0.26775449680E+03  0.31532835796E+03  0.79918323210E+02 0.  0.
         11    1    3    3    0    0 -0.64155775228E+02  0.16517756901E+03  0.69947454907E+02  0.19050522105E+03  0.00000000000E+00 0. -1.
        -12    1    3    3    0    0 -0.12906750834E+03  0.14210445384E+03  0.36277896023E+02  0.19536679157E+03  0.00000000000E+00 0.  1.
         15    1    5    5    0    0  0.31269451419E+01 -0.23041482921E+02 -0.41456895668E+02  0.47565950517E+02  0.17770000000E+01 0. -1.
        -16    1    5    5    0    0  0.46175347047E+02 -0.30952517225E+03 -0.14144148739E+03  0.34342930755E+03  0.00000000000E+00 0.  1.
          4    1    6    6  502    0  0.60318701909E+02  0.24772411449E+02  0.50292050801E+02  0.82348700917E+02  0.00000000000E+00 0. -1.
         -3    1    6    6    0  502  0.83602289470E+02  0.51222087217E+00  0.21746244600E+03  0.23297965704E+03  0.00000000000E+00 0.  1.
<mgrwt>
<rscale>  0 0.42712531E+03</rscale>
<asrwt>0</asrwt>
<pdfrwt beam="1">  1        1 0.69316475E-01 0.42712531E+03</pdfrwt>
<pdfrwt beam="2">  1       -2 0.98713622E-01 0.42712531E+03</pdfrwt>
<totfact> 0.39878166E+01</totfact>
</mgrwt>
</event>
<event>
12    3  0.1182097E-007  0.4084110E+03  0.7818608E-02  0.1040906E+00
          1   -1    0    0  501    0  0.00000000000E+00  0.00000000000E+00  0.76080059984E+03  0.76080059984E+03  0.00000000000E+00 0. -1.
         -2   -1    0    0    0  501 -0.00000000000E+00 -0.00000000000E+00 -0.29815018411E+03  0.29815018411E+03  0.00000000000E+00 0.  1.
        -24    2    1    2    0    0  0.74335391619E+02 -0.26903043922E+03  0.12917887998E+03  0.31789016483E+03  0.80398048422E+02 0.  0.
    5000000    2    1    2    0    0 -0.74335391619E+02  0.26903043922E+03  0.33347153576E+03  0.74106061913E+03  0.60005370459E+03 0.  0.
        -24    2    4    4    0    0  0.14593921631E+03  0.25196982703E+03  0.39579930868E+03  0.49797739705E+03  0.80853859722E+02 0.  0.
         24    2    4    4    0    0 -0.22027460793E+03  0.17060612185E+02 -0.62327772923E+02  0.24308322208E+03  0.79954575797E+02 0.  0.
         13    1    3    3    0    0  0.22971000285E+02 -0.19192211937E+02 -0.39177173643E+01  0.30188679376E+02  0.00000000000E+00 0. -1.
        -14    1    3    3    0    0  0.51364391334E+02 -0.24983822728E+03  0.13309659734E+03  0.28770148545E+03  0.00000000000E+00 0.  1.
         15    1    5    5    0    0  0.34785758406E+02  0.12260551325E+03  0.21092982200E+03  0.24644818605E+03  0.17770000000E+01 0. -1.
        -16    1    5    5    0    0  0.11115345790E+03  0.12936431378E+03  0.18486948668E+03  0.25152921100E+03  0.00000000000E+00 0.  1.
          4    1    6    6  502    0 -0.43522838379E+02 -0.27556667896E+02 -0.23868960947E+02  0.56774419440E+02  0.00000000000E+00 0. -1.
         -1    1    6    6    0  502 -0.17675176955E+03  0.44617280081E+02 -0.38458811976E+02  0.18630880264E+03  0.00000000000E+00 0.  1.
<mgrwt>
<rscale>  0 0.40841100E+03</rscale>
<asrwt>0</asrwt>
<pdfrwt beam="1">  1        1 0.11704625E+00 0.40841100E+03</pdfrwt>
<pdfrwt beam="2">  1       -2 0.45869259E-01 0.40841100E+03</pdfrwt>
<totfact> 0.99066964E+01</totfact>
</mgrwt>
</event>
<event>
12    3  0.1182097E-007  0.4897966E+03  0.7818608E-02  0.1016477E+00
         -2   -1    0    0    0  501 -0.00000000000E+00  0.00000000000E+00  0.70241548375E+03  0.70241548375E+03  0.00000000000E+00 0.  1.
          1   -1    0    0  501    0  0.00000000000E+00 -0.00000000000E+00 -0.94067764742E+03  0.94067764742E+03  0.00000000000E+00 0. -1.
        -24    2    1    2    0    0 -0.97462243226E+02 -0.32393689680E+03  0.51591771147E+03  0.62185401467E+03  0.78085392959E+02 0.  0.
    5000000    2    1    2    0    0  0.97462243226E+02  0.32393689680E+03 -0.75417987514E+03  0.10212391165E+04  0.59975665651E+03 0.  0.
        -24    2    4    4    0    0  0.14532866840E+03 -0.11512304729E+03 -0.92207909437E+02  0.22184766351E+03  0.79626310774E+02 0.  0.
         24    2    4    4    0    0 -0.47866425173E+02  0.43905994409E+03 -0.66197196571E+03  0.79939145299E+03  0.75861601374E+02 0.  0.
         11    1    3    3    0    0 -0.37057831786E+02 -0.23909583285E+03  0.33755805348E+03  0.41531378457E+03  0.00000000000E+00 0. -1.
        -12    1    3    3    0    0 -0.60404411440E+02 -0.84841063949E+02  0.17835965798E+03  0.20654023010E+03  0.00000000000E+00 0.  1.
         15    1    5    5    0    0  0.10917164911E+03 -0.83756052973E+02 -0.25834569144E+02  0.14001467091E+03  0.17770000000E+01 0. -1.
        -16    1    5    5    0    0  0.36157019291E+02 -0.31366994315E+02 -0.66373340292E+02  0.81832992600E+02  0.00000000000E+00 0.  1.
          2    1    6    6  502    0  0.20478984288E+02  0.11800881851E+03 -0.16915720910E+03  0.20726705342E+03  0.00000000000E+00 0. -1.
         -1    1    6    6    0  502 -0.68345409461E+02  0.32105112558E+03 -0.49281475661E+03  0.59212439957E+03  0.00000000000E+00 0.  1.
<mgrwt>
<rscale>  0 0.48979659E+03</rscale>
<asrwt>0</asrwt>
<pdfrwt beam="1">  1        1 0.14471964E+00 0.48979659E+03</pdfrwt>
<pdfrwt beam="2">  1       -2 0.10806392E+00 0.48979659E+03</pdfrwt>
<totfact> 0.10768535E+01</totfact>
</mgrwt>
</event>
<event>
12    3  0.1182097E-007  0.9402118E+03  0.7818608E-02  0.9376665E-01
          1   -1    0    0  501    0  0.00000000000E+00  0.00000000000E+00  0.20902614556E+04  0.20902614556E+04  0.00000000000E+00 0. -1.
         -2   -1    0    0    0  501 -0.00000000000E+00 -0.00000000000E+00 -0.74100437474E+03  0.74100437474E+03  0.00000000000E+00 0.  1.
        -24    2    1    2    0    0  0.73549509797E+03  0.43057341307E+03  0.15490088730E+04  0.17700471621E+04  0.85392998886E+02 0.  0.
    5000000    2    1    2    0    0 -0.73549509797E+03 -0.43057341307E+03 -0.19975179218E+03  0.10612186682E+04  0.59994814782E+03 0.  0.
        -24    2    4    4    0    0 -0.21005989275E+03  0.13570351673E+03 -0.86456215823E+02  0.27638804225E+03  0.79844033256E+02 0.  0.
         24    2    4    4    0    0 -0.52543520522E+03 -0.56627692980E+03 -0.11329557636E+03  0.78483062595E+03  0.79821724484E+02 0.  0.
         13    1    3    3    0    0  0.37738585017E+03  0.17898766333E+03  0.80322770887E+03  0.90533497438E+03  0.00000000000E+00 0. -1.
        -14    1    3    3    0    0  0.35810924780E+03  0.25158574974E+03  0.74578116412E+03  0.86471218772E+03  0.00000000000E+00 0.  1.
         15    1    5    5    0    0 -0.15120532132E+03  0.86832499539E+02 -0.96397328159E+02  0.19924491154E+03  0.17770000000E+01 0. -1.
        -16    1    5    5    0    0 -0.58854571433E+02  0.48871017194E+02  0.99411123364E+01  0.77143130703E+02  0.00000000000E+00 0.  1.
          2    1    6    6  502    0 -0.10082549203E+03 -0.80433709846E+02  0.38755774472E+01  0.12903635776E+03  0.00000000000E+00 0. -1.
         -1    1    6    6    0  502 -0.42460971318E+03 -0.48584321996E+03 -0.11717115381E+03  0.65579426819E+03  0.00000000000E+00 0.  1.
<mgrwt>
<rscale>  0 0.94021177E+03</rscale>
<asrwt>0</asrwt>
<pdfrwt beam="1">  1        1 0.32157868E+00 0.94021177E+03</pdfrwt>
<pdfrwt beam="2">  1       -2 0.11400067E+00 0.94021177E+03</pdfrwt>
<totfact> 0.13882009E+00</totfact>
</mgrwt>
</event>
<event>
12    3  0.1182097E-007  0.8674955E+03  0.7818608E-02  0.9467151E-01
         -2   -1    0    0    0  501 -0.00000000000E+00  0.00000000000E+00  0.10765348672E+04  0.10765348672E+04  0.00000000000E+00 0.  1.
          1   -1    0    0  501    0  0.00000000000E+00 -0.00000000000E+00 -0.75955337820E+03  0.75955337820E+03  0.00000000000E+00 0. -1.
        -24    2    1    2    0    0 -0.29812742669E+03  0.70970549628E+03 -0.89074060954E+02  0.77896667285E+03  0.79328652339E+02 0.  0.
    5000000    2    1    2    0    0  0.29812742669E+03 -0.70970549628E+03  0.40605554998E+03  0.10571215726E+04  0.60005254397E+03 0.  0.
        -24    2    4    4    0    0  0.43319199475E+03 -0.29067388125E+03  0.19954269435E+03  0.56428654306E+03  0.80345542796E+02 0.  0.
         24    2    4    4    0    0 -0.13506456806E+03 -0.41903161503E+03  0.20651285563E+03  0.49283502951E+03  0.80055448491E+02 0.  0.
         11    1    3    3    0    0 -0.23478642912E+03  0.51111999612E+03 -0.34630602606E+02  0.56353136237E+03  0.00000000000E+00 0. -1.
        -12    1    3    3    0    0 -0.63340997573E+02  0.19858550016E+03 -0.54443458348E+02  0.21543531048E+03  0.00000000000E+00 0.  1.
         15    1    5    5    0    0  0.11990359289E+03 -0.60824222830E+02  0.18884966158E+02  0.13578018024E+03  0.17770000000E+01 0. -1.
        -16    1    5    5    0    0  0.31328840187E+03 -0.22984965842E+03  0.18065772819E+03  0.42850636282E+03  0.00000000000E+00 0.  1.
          4    1    6    6  502    0 -0.10453282383E+03 -0.35587944275E+03  0.14086555761E+03  0.39676239029E+03  0.00000000000E+00 0. -1.
         -3    1    6    6    0  502 -0.30531744230E+02 -0.63152172280E+02  0.65647298016E+02  0.96072639218E+02  0.00000000000E+00 0.  1.
<mgrwt>
<rscale>  0 0.86749546E+03</rscale>
<asrwt>0</asrwt>
<pdfrwt beam="1">  1        1 0.11685437E+00 0.86749546E+03</pdfrwt>
<pdfrwt beam="2">  1       -2 0.16562075E+00 0.86749546E+03</pdfrwt>
<totfact> 0.48671199E+00</totfact>
</mgrwt>
</event>
<event>
12    3  0.1182097E-007  0.7449916E+03  0.7818608E-02  0.9643241E-01
         -2   -1    0    0    0  501 -0.00000000000E+00  0.00000000000E+00  0.62247432415E+03  0.62247432415E+03  0.00000000000E+00 0.  1.
          1   -1    0    0  501    0  0.00000000000E+00 -0.00000000000E+00 -0.13069433680E+04  0.13069433680E+04  0.00000000000E+00 0. -1.
        -24    2    1    2    0    0  0.13016633675E+03  0.61099708143E+03 -0.84021830184E+03  0.10493024483E+04  0.69340641503E+02 0.  0.
    5000000    2    1    2    0    0 -0.13016633675E+03 -0.61099708143E+03  0.15574925794E+03  0.88011524387E+03  0.60007024789E+03 0.  0.
        -24    2    4    4    0    0 -0.20293960533E+03  0.25419373789E+02  0.16448338589E+02  0.21987936812E+03  0.79030125311E+02 0.  0.
         24    2    4    4    0    0  0.72773268582E+02 -0.63641645522E+03  0.13930091935E+03  0.66023587575E+03  0.78643578255E+02 0.  0.
         11    1    3    3    0    0  0.71302775077E+01  0.17937983357E+03 -0.22785484528E+03  0.29007894799E+03  0.00000000000E+00 0. -1.
        -12    1    3    3    0    0  0.12303605924E+03  0.43161724786E+03 -0.61236345656E+03  0.75922350033E+03  0.00000000000E+00 0.  1.
         15    1    5    5    0    0 -0.20931834652E+03  0.23429119217E+02  0.10437185919E+02  0.21089140902E+03  0.17770000000E+01 0. -1.
        -16    1    5    5    0    0  0.63787411901E+01  0.19902545718E+01  0.60111526701E+01  0.89879591040E+01  0.00000000000E+00 0.  1.
          4    1    6    6  502    0  0.36882975272E+02 -0.54316719457E+03  0.10397871588E+03  0.55425853938E+03  0.00000000000E+00 0. -1.
         -3    1    6    6    0  502  0.35890293311E+02 -0.93249260649E+02  0.35322203468E+02  0.10597733637E+03  0.00000000000E+00 0.  1.
<mgrwt>
<rscale>  0 0.74499158E+03</rscale>
<asrwt>0</asrwt>
<pdfrwt beam="1">  1        1 0.20106821E+00 0.74499158E+03</pdfrwt>
<pdfrwt beam="2">  1       -2 0.95765281E-01 0.74499158E+03</pdfrwt>
<totfact> 0.73896741E+00</totfact>
</mgrwt>
</event>
<event>
12    3  0.1182097E-007  0.5890997E+03  0.7818608E-02  0.9928282E-01
         -2   -1    0    0    0  501 -0.00000000000E+00  0.00000000000E+00  0.13287098964E+03  0.13287098964E+03  0.00000000000E+00 0.  1.
          1   -1    0    0  501    0  0.00000000000E+00 -0.00000000000E+00 -0.32582451907E+04  0.32582451907E+04  0.00000000000E+00 0. -1.
        -24    2    1    2    0    0 -0.40907101181E+03 -0.31592029783E+03 -0.12875101835E+04  0.13898792381E+04  0.83289234049E+02 0.  0.
    5000000    2    1    2    0    0  0.40907101181E+03  0.31592029783E+03 -0.18378640176E+04  0.20012369423E+04  0.60005035186E+03 0.  0.
        -24    2    4    4    0    0  0.45309965942E+03  0.33013812766E+03 -0.18213305907E+04  0.19072829569E+04  0.78693534435E+02 0.  0.
         24    2    4    4    0    0 -0.44028647611E+02 -0.14217829825E+02 -0.16533426844E+02  0.93953985352E+02  0.80083260829E+02 0.  0.
         11    1    3    3    0    0 -0.25049387547E+03 -0.22960543220E+03 -0.76554783729E+03  0.83757347577E+03  0.00000000000E+00 0. -1.
        -12    1    3    3    0    0 -0.15857713634E+03 -0.86314865634E+02 -0.52196234624E+03  0.55230576232E+03  0.00000000000E+00 0.  1.
         15    1    5    5    0    0  0.94450226944E+02  0.33210514964E+02 -0.34926357923E+03  0.36333454168E+03  0.17770000000E+01 0. -1.
        -16    1    5    5    0    0  0.35864943247E+03  0.29692761269E+03 -0.14720670115E+04  0.15439484152E+04  0.00000000000E+00 0.  1.
          4    1    6    6  502    0  0.18008007281E+01 -0.39649222643E+02 -0.28931049825E+01  0.39795399180E+02  0.00000000000E+00 0. -1.
         -3    1    6    6    0  502 -0.45829448339E+02  0.25431392818E+02 -0.13640321861E+02  0.54158586172E+02  0.00000000000E+00 0.  1.
<mgrwt>
<rscale>  0 0.58909967E+03</rscale>
<asrwt>0</asrwt>
<pdfrwt beam="1">  1        1 0.50126850E+00 0.58909967E+03</pdfrwt>
<pdfrwt beam="2">  1       -2 0.20441690E-01 0.58909967E+03</pdfrwt>
<totfact> 0.76489414E+00</totfact>
</mgrwt>
</event>
<event>
12    3  0.1182097E-007  0.1281961E+04  0.7818608E-02  0.9043994E-01
          1   -1    0    0  501    0  0.00000000000E+00  0.00000000000E+00  0.32348583479E+04  0.32348583479E+04  0.00000000000E+00 0. -1.
         -2   -1    0    0    0  501 -0.00000000000E+00 -0.00000000000E+00 -0.54052132675E+03  0.54052132675E+03  0.00000000000E+00 0.  1.
        -24    2    1    2    0    0 -0.32625865238E+03  0.11951306958E+04  0.10120931856E+04  0.16017174562E+04  0.79900594601E+02 0.  0.
    5000000    2    1    2    0    0  0.32625865238E+03 -0.11951306958E+04  0.16822438356E+04  0.21736622184E+04  0.60006752045E+03 0.  0.
        -24    2    4    4    0    0 -0.11302903826E+03 -0.20778137718E+03  0.56036168098E+03  0.61384112088E+03  0.82746866927E+02 0.  0.
         24    2    4    4    0    0  0.43928769064E+03 -0.98734931863E+03  0.11218821546E+04  0.15598210976E+04  0.81178416762E+02 0.  0.
         13    1    3    3    0    0 -0.23634615726E+03  0.85450994070E+03  0.67702817912E+03  0.11155330117E+04  0.00000000000E+00 0. -1.
        -14    1    3    3    0    0 -0.89912495116E+02  0.34062075511E+03  0.33506500645E+03  0.48618444457E+03  0.00000000000E+00 0.  1.
         15    1    5    5    0    0 -0.74276240965E+02 -0.73793547509E+02  0.31053166782E+03  0.32771256014E+03  0.17770000000E+01 0. -1.
        -16    1    5    5    0    0 -0.38752797296E+02 -0.13398782967E+03  0.24983001315E+03  0.28612856074E+03  0.00000000000E+00 0.  1.
          4    1    6    6  502    0  0.26048014949E+03 -0.56126657628E+03  0.58578086694E+03  0.85206179471E+03  0.00000000000E+00 0. -1.
         -3    1    6    6    0  502  0.17880754115E+03 -0.42608274235E+03  0.53610128771E+03  0.70775930286E+03  0.00000000000E+00 0.  1.
<mgrwt>
<rscale>  0 0.12819613E+04</rscale>
<asrwt>0</asrwt>
<pdfrwt beam="1">  1        1 0.49767050E+00 0.12819613E+04</pdfrwt>
<pdfrwt beam="2">  1       -2 0.83157129E-01 0.12819613E+04</pdfrwt>
<totfact> 0.43928247E-01</totfact>
</mgrwt>
</event>
<event>
12    3  0.1182097E-007  0.1183036E+04  0.7818608E-02  0.9127836E-01
          1   -1    0    0  501    0  0.00000000000E+00  0.00000000000E+00  0.19688924485E+04  0.19688924485E+04  0.00000000000E+00 0. -1.
         -2   -1    0    0    0  501 -0.00000000000E+00 -0.00000000000E+00 -0.79730157194E+03  0.79730157194E+03  0.00000000000E+00 0.  1.
        -24    2    1    2    0    0  0.44296584736E+03  0.10926259774E+04  0.59738339775E+03  0.13241296300E+04  0.80013029378E+02 0.  0.
    5000000    2    1    2    0    0 -0.44296584736E+03 -0.10926259774E+04  0.57420747876E+03  0.14420643904E+04  0.59982098070E+03 0.  0.
        -24    2    4    4    0    0 -0.23483631164E+03 -0.50278059837E+03  0.58735654555E+03  0.81127647961E+03  0.72425074419E+02 0.  0.
         24    2    4    4    0    0 -0.20812953573E+03 -0.58984537901E+03 -0.13149066793E+02  0.63078791074E+03  0.80529594577E+02 0.  0.
         11    1    3    3    0    0  0.32890160209E+03  0.83441580898E+03  0.49073438181E+03  0.10223728477E+04  0.00000000000E+00 0. -1.
        -12    1    3    3    0    0  0.11406424527E+03  0.25821016840E+03  0.10664901594E+03  0.30175678238E+03  0.00000000000E+00 0.  1.
         15    1    5    5    0    0 -0.64721613533E+02 -0.78973911374E+02  0.90803299914E+02  0.13665344101E+03  0.17770000000E+01 0. -1.
        -16    1    5    5    0    0 -0.17011469810E+03 -0.42380668700E+03  0.49655324564E+03  0.67462303860E+03  0.00000000000E+00 0.  1.
          2    1    6    6  502    0 -0.43613777207E+02 -0.66712289253E+02  0.17268812958E+02  0.81553068615E+02  0.00000000000E+00 0. -1.
         -1    1    6    6    0  502 -0.16451575852E+03 -0.52313308976E+03 -0.30417879750E+02  0.54923484213E+03  0.00000000000E+00 0.  1.
<mgrwt>
<rscale>  0 0.11830359E+04</rscale>
<asrwt>0</asrwt>
<pdfrwt beam="1">  1        1 0.30290653E+00 0.11830359E+04</pdfrwt>
<pdfrwt beam="2">  1       -2 0.12266178E+00 0.11830359E+04</pdfrwt>
<totfact> 0.13546626E+00</totfact>
</mgrwt>
</event>
<event>
12    3  0.1182097E-007  0.8479135E+03  0.7818608E-02  0.9493142E-01
          1   -1    0    0  501    0  0.00000000000E+00  0.00000000000E+00  0.17107725014E+04  0.17107725014E+04  0.00000000000E+00 0. -1.
         -2   -1    0    0    0  501 -0.00000000000E+00 -0.00000000000E+00 -0.60225162841E+03  0.60225162841E+03  0.00000000000E+00 0.  1.
        -24    2    1    2    0    0 -0.79590537266E+03  0.14222122441E+02  0.10422035983E+04  0.13140023298E+04  0.82134957529E+02 0.  0.
    5000000    2    1    2    0    0  0.79590537266E+03 -0.14222122441E+02  0.66317274699E+02  0.99902180009E+03  0.59998245402E+03 0.  0.
        -24    2    4    4    0    0 -0.87213218749E+01  0.84218302782E+02 -0.11853139348E+03  0.16389609767E+03  0.75122936660E+02 0.  0.
         24    2    4    4    0    0  0.80462669453E+03 -0.98440425223E+02  0.18484866818E+03  0.83512570242E+03  0.78430056986E+02 0.  0.
         13    1    3    3    0    0 -0.42721975726E+03 -0.13563792145E+02  0.50097944204E+03  0.65854468246E+03  0.00000000000E+00 0. -1.
        -14    1    3    3    0    0 -0.36868561540E+03  0.27785914585E+02  0.54122415628E+03  0.65545764729E+03  0.00000000000E+00 0.  1.
         15    1    5    5    0    0 -0.15378753556E+02  0.75146745288E+02 -0.12797089122E+03  0.14920873338E+03  0.17770000000E+01 0. -1.
        -16    1    5    5    0    0  0.66574316807E+01  0.90715574942E+01  0.94394977456E+01  0.14687364285E+02  0.00000000000E+00 0.  1.
          2    1    6    6  502    0  0.35184505454E+03 -0.47878998730E+02  0.41469660633E+02  0.35750115199E+03  0.00000000000E+00 0. -1.
         -1    1    6    6    0  502  0.45278163999E+03 -0.50561426493E+02  0.14337900754E+03  0.47762455043E+03  0.00000000000E+00 0.  1.
<mgrwt>
<rscale>  0 0.84791353E+03</rscale>
<asrwt>0</asrwt>
<pdfrwt beam="1">  1        1 0.26319577E+00 0.84791353E+03</pdfrwt>
<pdfrwt beam="2">  1       -2 0.92654097E-01 0.84791353E+03</pdfrwt>
<totfact> 0.41550291E+00</totfact>
</mgrwt>
</event>
<event>
12    3  0.1182097E-007  0.1314059E+04  0.7818608E-02  0.9018490E-01
          1   -1    0    0  501    0  0.00000000000E+00  0.00000000000E+00  0.10153545422E+04  0.10153545422E+04  0.00000000000E+00 0. -1.
         -2   -1    0    0    0  501 -0.00000000000E+00 -0.00000000000E+00 -0.18676531587E+04  0.18676531587E+04  0.00000000000E+00 0.  1.
        -24    2    1    2    0    0  0.20218074521E+03 -0.12324703164E+04 -0.82170130309E+03  0.14971038642E+04  0.79163213025E+02 0.  0.
    5000000    2    1    2    0    0 -0.20218074521E+03  0.12324703164E+04 -0.30597313422E+02  0.13859038366E+04  0.59994425929E+03 0.  0.
        -24    2    4    4    0    0  0.19765881583E+03  0.30144601047E+03 -0.31593350331E+01  0.36902168550E+03  0.78919695083E+02 0.  0.
         24    2    4    4    0    0 -0.39983956104E+03  0.93102430592E+03 -0.27437978389E+02  0.10168821511E+04  0.81354371829E+02 0.  0.
         13    1    3    3    0    0  0.50765382658E+02 -0.54876732813E+03 -0.35398405150E+03  0.65500184215E+03  0.00000000000E+00 0. -1.
        -14    1    3    3    0    0  0.15141536256E+03 -0.68370298826E+03 -0.46771725160E+03  0.84210202209E+03  0.00000000000E+00 0.  1.
         15    1    5    5    0    0  0.16896068699E+03  0.25887653180E+03 -0.30875205958E+02  0.31067862582E+03  0.17770000000E+01 0. -1.
        -16    1    5    5    0    0  0.28698128836E+02  0.42569478668E+02  0.27715870925E+02  0.58343059689E+02  0.00000000000E+00 0.  1.
          4    1    6    6  502    0 -0.19311563272E+03  0.35284793240E+03 -0.21940054267E+02  0.40283579407E+03  0.00000000000E+00 0. -1.
         -3    1    6    6    0  502 -0.20672392832E+03  0.57817637352E+03 -0.54979241215E+01  0.61404635705E+03  0.00000000000E+00 0.  1.
<mgrwt>
<rscale>  0 0.13140595E+04</rscale>
<asrwt>0</asrwt>
<pdfrwt beam="1">  1        1 0.15620839E+00 0.13140595E+04</pdfrwt>
<pdfrwt beam="2">  1       -2 0.28733125E+00 0.13140595E+04</pdfrwt>
<totfact> 0.47398562E-01</totfact>
</mgrwt>
</event>
<event>
12    3  0.1182097E-007  0.6508956E+03  0.7818608E-02  0.9805100E-01
         -2   -1    0    0    0  501 -0.00000000000E+00  0.00000000000E+00  0.44198463058E+03  0.44198463058E+03  0.00000000000E+00 0.  1.
          1   -1    0    0  501    0  0.00000000000E+00 -0.00000000000E+00 -0.15930955465E+04  0.15930955465E+04  0.00000000000E+00 0. -1.
        -24    2    1    2    0    0  0.18654747961E+03 -0.56579696288E+03 -0.10135319443E+04  0.11784541597E+04  0.81123604297E+02 0.  0.
    5000000    2    1    2    0    0 -0.18654747961E+03  0.56579696288E+03 -0.13757897163E+03  0.85662601733E+03  0.59996166109E+03 0.  0.
        -24    2    4    4    0    0  0.83602918122E+02  0.85613035692E+02 -0.24852869266E+03  0.28690329406E+03  0.78917357225E+02 0.  0.
         24    2    4    4    0    0 -0.27015039773E+03  0.48018392719E+03  0.11094972103E+03  0.56972272327E+03  0.93361124025E+02 0.  0.
         13    1    3    3    0    0  0.16998972687E+03 -0.41872780629E+03 -0.72844371504E+03  0.85723959835E+03  0.00000000000E+00 0. -1.
        -14    1    3    3    0    0  0.16557752747E+02 -0.14706915660E+03 -0.28508822923E+03  0.32121456138E+03  0.00000000000E+00 0.  1.
         15    1    5    5    0    0  0.30634102973E+02 -0.11367613614E+02 -0.61728545571E+02  0.69865885607E+02  0.17770000000E+01 0. -1.
        -16    1    5    5    0    0  0.52968815149E+02  0.96980649306E+02 -0.18680014709E+03  0.21703740846E+03  0.00000000000E+00 0.  1.
          2    1    6    6  502    0 -0.23037653946E+00  0.55148191336E+02  0.68310851641E+01  0.55570134115E+02  0.00000000000E+00 0. -1.
         -1    1    6    6    0  502 -0.26992002119E+03  0.42503573586E+03  0.10411863587E+03  0.51415258915E+03  0.00000000000E+00 0.  1.
<mgrwt>
<rscale>  0 0.65089556E+03</rscale>
<asrwt>0</asrwt>
<pdfrwt beam="1">  1        1 0.24509162E+00 0.65089556E+03</pdfrwt>
<pdfrwt beam="2">  1       -2 0.67997635E-01 0.65089556E+03</pdfrwt>
<totfact> 0.10286202E+01</totfact>
</mgrwt>
</event>
<event>
12    3  0.1182097E-007  0.4162680E+03  0.7818608E-02  0.1038288E+00
          1   -1    0    0  501    0  0.00000000000E+00  0.00000000000E+00  0.34369780715E+03  0.34369780715E+03  0.00000000000E+00 0. -1.
         -2   -1    0    0    0  501 -0.00000000000E+00 -0.00000000000E+00 -0.62449962765E+03  0.62449962765E+03  0.00000000000E+00 0.  1.
        -24    2    1    2    0    0  0.53036865901E+01  0.21548411674E+03  0.70298247822E+02  0.24047214545E+03  0.80146587166E+02 0.  0.
    5000000    2    1    2    0    0 -0.53036865901E+01 -0.21548411674E+03 -0.35110006832E+03  0.72772528935E+03  0.59987607480E+03 0.  0.
        -24    2    4    4    0    0 -0.18581142688E+03  0.11535725302E+03 -0.22433911629E+03  0.32235595300E+03  0.75842858284E+02 0.  0.
         24    2    4    4    0    0  0.18050774029E+03 -0.33084136976E+03 -0.12676095202E+03  0.40536933634E+03  0.78847343903E+02 0.  0.
         11    1    3    3    0    0 -0.21644559740E+02  0.14893917239E+02  0.16954553989E+00  0.26274407372E+02  0.00000000000E+00 0. -1.
        -12    1    3    3    0    0  0.26948246330E+02  0.20059019950E+03  0.70128702282E+02  0.21419773808E+03  0.00000000000E+00 0.  1.
         15    1    5    5    0    0 -0.13245746481E+03  0.10083880297E+03 -0.20429856454E+03  0.26354222692E+03  0.17770000000E+01 0. -1.
        -16    1    5    5    0    0 -0.53353962076E+02  0.14518450049E+02 -0.20040551750E+02  0.58813726081E+02  0.00000000000E+00 0.  1.
          4    1    6    6  502    0  0.46001638687E+02 -0.14881184350E+03 -0.76458898823E+02  0.17351391511E+03  0.00000000000E+00 0. -1.
         -1    1    6    6    0  502  0.13450610160E+03 -0.18202952626E+03 -0.50302053199E+02  0.23185542123E+03  0.00000000000E+00 0.  1.
<mgrwt>
<rscale>  0 0.41626802E+03</rscale>
<asrwt>0</asrwt>
<pdfrwt beam="1">  1        1 0.52876586E-01 0.41626802E+03</pdfrwt>
<pdfrwt beam="2">  1       -2 0.96076865E-01 0.41626802E+03</pdfrwt>
<totfact> 0.60547246E+01</totfact>
</mgrwt>
</event>
<event>
12    3  0.1182097E-007  0.8359309E+03  0.7818608E-02  0.9509417E-01
         -2   -1    0    0    0  501 -0.00000000000E+00  0.00000000000E+00  0.17150618700E+03  0.17150618700E+03  0.00000000000E+00 0.  1.
          1   -1    0    0  501    0  0.00000000000E+00 -0.00000000000E+00 -0.43659332888E+04  0.43659332888E+04  0.00000000000E+00 0. -1.
        -24    2    1    2    0    0  0.73234304102E+03 -0.20633594951E+02 -0.23672142741E+04  0.24793268581E+04  0.81278377803E+02 0.  0.
    5000000    2    1    2    0    0 -0.73234304102E+03  0.20633594951E+02 -0.18272128277E+04  0.20581126177E+04  0.60030721680E+03 0.  0.
        -24    2    4    4    0    0 -0.49275141927E+03  0.28454292326E+03 -0.98916309604E+03  0.11438946583E+04  0.79263626178E+02 0.  0.
         24    2    4    4    0    0 -0.23959162175E+03 -0.26390932831E+03 -0.83804973166E+03  0.91421795938E+03  0.80092732151E+02 0.  0.
         13    1    3    3    0    0  0.13399341237E+03 -0.34627388842E+02 -0.42137061758E+03  0.44351605154E+03  0.00000000000E+00 0. -1.
        -14    1    3    3    0    0  0.59834962866E+03  0.13993793892E+02 -0.19458436566E+04  0.20358108066E+04  0.00000000000E+00 0.  1.
         15    1    5    5    0    0 -0.18954085876E+03  0.15400942887E+03 -0.43390061861E+03  0.49791319111E+03  0.17770000000E+01 0. -1.
        -16    1    5    5    0    0 -0.30321056051E+03  0.13053349439E+03 -0.55526247743E+03  0.64598146723E+03  0.00000000000E+00 0.  1.
          4    1    6    6  502    0 -0.13934954178E+03 -0.19201574868E+03 -0.47836354235E+03  0.53396631090E+03  0.00000000000E+00 0. -1.
         -3    1    6    6    0  502 -0.10024207997E+03 -0.71893579634E+02 -0.35968618931E+03  0.38025164848E+03  0.00000000000E+00 0.  1.
<mgrwt>
<rscale>  0 0.83593087E+03</rscale>
<asrwt>0</asrwt>
<pdfrwt beam="1">  1        1 0.67168200E+00 0.83593087E+03</pdfrwt>
<pdfrwt beam="2">  1       -2 0.26385569E-01 0.83593087E+03</pdfrwt>
<totfact> 0.55081700E-01</totfact>
</mgrwt>
</event>
<event>
12    3  0.1182097E-007  0.6580195E+03  0.7818608E-02  0.9791846E-01
          1   -1    0    0  501    0  0.00000000000E+00  0.00000000000E+00  0.10909935412E+04  0.10909935412E+04  0.00000000000E+00 0. -1.
         -2   -1    0    0    0  501 -0.00000000000E+00 -0.00000000000E+00 -0.58830951756E+03  0.58830951756E+03  0.00000000000E+00 0.  1.
        -24    2    1    2    0    0 -0.70664789923E+02 -0.64242034970E+03  0.45832884498E+03  0.79633583510E+03  0.79925051599E+02 0.  0.
    5000000    2    1    2    0    0  0.70664789923E+02  0.64242034970E+03  0.44355178618E+02  0.88296722363E+03  0.59997193091E+03 0.  0.
        -24    2    4    4    0    0  0.26110102706E+02  0.54345798514E+03  0.27677032649E+03  0.61568873564E+03  0.80265101380E+02 0.  0.
         24    2    4    4    0    0  0.44554687218E+02  0.98962364567E+02 -0.23241514787E+03  0.26727848799E+03  0.75115374108E+02 0.  0.
         13    1    3    3    0    0 -0.49227758656E+02 -0.14877060619E+03  0.98572130456E+02  0.18512841595E+03  0.00000000000E+00 0. -1.
        -14    1    3    3    0    0 -0.21437031267E+02 -0.49364974351E+03  0.35975671452E+03  0.61120741915E+03  0.00000000000E+00 0.  1.
         15    1    5    5    0    0 -0.17202155785E+01  0.28410382566E+02 -0.33836391103E+01  0.28717864158E+02  0.17770000000E+01 0. -1.
        -16    1    5    5    0    0  0.27830318284E+02  0.51504760257E+03  0.28015396560E+03  0.58697087148E+03  0.00000000000E+00 0.  1.
          4    1    6    6  502    0 -0.10632636780E+02  0.45937337567E+01 -0.13546128327E+01  0.11661489212E+02  0.00000000000E+00 0. -1.
         -3    1    6    6    0  502  0.55187323997E+02  0.94368630810E+02 -0.23106053504E+03  0.25561699877E+03  0.00000000000E+00 0.  1.
<mgrwt>
<rscale>  0 0.65801953E+03</rscale>
<asrwt>0</asrwt>
<pdfrwt beam="1">  1        1 0.16784516E+00 0.65801953E+03</pdfrwt>
<pdfrwt beam="2">  1       -2 0.90509157E-01 0.65801953E+03</pdfrwt>
<totfact> 0.12218857E+01</totfact>
</mgrwt>
</event>
<event>
12    3  0.1182097E-007  0.7057323E+03  0.7818608E-02  0.9707479E-01
          1   -1    0    0  501    0  0.00000000000E+00  0.00000000000E+00  0.19784640013E+04  0.19784640013E+04  0.00000000000E+00 0. -1.
         -2   -1    0    0    0  501 -0.00000000000E+00 -0.00000000000E+00 -0.26477305199E+03  0.26477305199E+03  0.00000000000E+00 0.  1.
        -24    2    1    2    0    0  0.58598125236E+03 -0.39476978401E+02  0.87353469160E+03  0.10554534373E+04  0.77373386982E+02 0.  0.
    5000000    2    1    2    0    0 -0.58598125236E+03  0.39476978401E+02  0.84015625767E+03  0.11877836159E+04  0.60002910012E+03 0.  0.
        -24    2    4    4    0    0  0.70307589646E+02 -0.11882183722E+03  0.15351343508E+03  0.22163444065E+03  0.80583275991E+02 0.  0.
         24    2    4    4    0    0 -0.65628884200E+03  0.15829881563E+03  0.68664282259E+03  0.96614917526E+03  0.78691193134E+02 0.  0.
         11    1    3    3    0    0  0.18380810633E+03  0.15917762877E+02  0.23464745683E+03  0.29849325641E+03  0.00000000000E+00 0. -1.
        -12    1    3    3    0    0  0.40217314603E+03 -0.55394741278E+02  0.63888723477E+03  0.75696018092E+03  0.00000000000E+00 0.  1.
         15    1    5    5    0    0  0.32274056223E+02 -0.17730239625E+02  0.38501293551E+01  0.37066930373E+02  0.17770000000E+01 0. -1.
        -16    1    5    5    0    0  0.38033533423E+02 -0.10109159760E+03  0.14966330572E+03  0.18456751028E+03  0.00000000000E+00 0.  1.
          2    1    6    6  502    0 -0.23484076116E+03  0.74954152563E+02  0.29886036536E+03  0.38740911976E+03  0.00000000000E+00 0. -1.
         -1    1    6    6    0  502 -0.42144808085E+03  0.83344663062E+02  0.38778245723E+03  0.57874005551E+03  0.00000000000E+00 0.  1.
<mgrwt>
<rscale>  0 0.70573231E+03</rscale>
<asrwt>0</asrwt>
<pdfrwt beam="1">  1        1 0.30437907E+00 0.70573231E+03</pdfrwt>
<pdfrwt beam="2">  1       -2 0.40734317E-01 0.70573231E+03</pdfrwt>
<totfact> 0.16143600E+01</totfact>
</mgrwt>
</event>
<event>
12    3  0.1182097E-007  0.4470015E+03  0.7818608E-02  0.1028620E+00
         -2   -1    0    0    0  501 -0.00000000000E+00  0.00000000000E+00  0.41368917306E+03  0.41368917306E+03  0.00000000000E+00 0.  1.
          3   -1    0    0  501    0  0.00000000000E+00 -0.00000000000E+00 -0.61507760039E+03  0.61507760039E+03  0.00000000000E+00 0. -1.
        -24    2    1    2    0    0  0.22315948591E+03  0.20261212294E+03 -0.17289638962E+03  0.35664611915E+03  0.80321007522E+02 0.  0.
    5000000    2    1    2    0    0 -0.22315948591E+03 -0.20261212294E+03 -0.28492037706E+02  0.67212065429E+03  0.60006878706E+03 0.  0.
        -24    2    4    4    0    0 -0.37392435876E+03 -0.65963948502E+02 -0.15813727492E+03  0.41776240912E+03  0.73125673889E+02 0.  0.
         24    2    4    4    0    0  0.15076487285E+03 -0.13664817443E+03  0.12964523722E+03  0.25435824517E+03  0.80544763272E+02 0.  0.
         11    1    3    3    0    0  0.81382227779E+02  0.12465855294E+03 -0.98930828994E+02  0.17874599504E+03  0.00000000000E+00 0. -1.
        -12    1    3    3    0    0  0.14177725813E+03  0.77953569999E+02 -0.73965560629E+02  0.17790012411E+03  0.00000000000E+00 0.  1.
         15    1    5    5    0    0 -0.23806122968E+03 -0.37047526106E+02 -0.13728051649E+03  0.27729905554E+03  0.17770000000E+01 0. -1.
        -16    1    5    5    0    0 -0.13586312908E+03 -0.28916422396E+02 -0.20856758433E+02  0.14046335358E+03  0.00000000000E+00 0.  1.
          2    1    6    6  502    0  0.24592597346E+02 -0.23732635241E+02 -0.91958074331E+01  0.35392042807E+02  0.00000000000E+00 0. -1.
         -1    1    6    6    0  502  0.12617227550E+03 -0.11291553919E+03  0.13884104465E+03  0.21896620236E+03  0.00000000000E+00 0.  1.
<mgrwt>
<rscale>  0 0.44700146E+03</rscale>
<asrwt>0</asrwt>
<pdfrwt beam="1">  1        3 0.94627323E-01 0.44700146E+03</pdfrwt>
<pdfrwt beam="2">  1       -2 0.63644489E-01 0.44700146E+03</pdfrwt>
<totfact> 0.95728725E+00</totfact>
</mgrwt>
</event>
<event>
12    3  0.1182097E-007  0.6184738E+03  0.7818608E-02  0.9867803E-01
          1   -1    0    0  501    0  0.00000000000E+00  0.00000000000E+00  0.72498932371E+03  0.72498932371E+03  0.00000000000E+00 0. -1.
         -2   -1    0    0    0  501 -0.00000000000E+00 -0.00000000000E+00 -0.65752366476E+03  0.65752366476E+03  0.00000000000E+00 0.  1.
        -24    2    1    2    0    0 -0.43845842641E+03  0.19578806937E+03  0.30939782164E+03  0.57684336502E+03  0.80265160155E+02 0.  0.
    5000000    2    1    2    0    0  0.43845842641E+03 -0.19578806937E+03 -0.24193216268E+03  0.80566962345E+03  0.59999467582E+03 0.  0.
        -24    2    4    4    0    0  0.27441722389E+02  0.18444185953E+03 -0.61705864455E+02  0.21235653039E+03  0.80720719880E+02 0.  0.
         24    2    4    4    0    0  0.41101670402E+03 -0.38022992890E+03 -0.18022629823E+03  0.59331309306E+03  0.77649069609E+02 0.  0.
         13    1    3    3    0    0 -0.13539681891E+03  0.80834022610E+02  0.14120560465E+03  0.21167300387E+03  0.00000000000E+00 0. -1.
        -14    1    3    3    0    0 -0.30306160750E+03  0.11495404676E+03  0.16819221699E+03  0.36517036115E+03  0.00000000000E+00 0.  1.
         15    1    5    5    0    0  0.41224748272E+02  0.16571913654E+03 -0.30562160648E+02  0.17349211935E+03  0.17770000000E+01 0. -1.
        -16    1    5    5    0    0 -0.13783025884E+02  0.18722722993E+02 -0.31143703807E+02  0.38864411042E+02  0.00000000000E+00 0.  1.
          4    1    6    6  502    0  0.29821967914E+03 -0.25313619692E+03 -0.15825723144E+03  0.42196950425E+03  0.00000000000E+00 0. -1.
         -3    1    6    6    0  502  0.11279702488E+03 -0.12709373198E+03 -0.21969066792E+02  0.17134358881E+03  0.00000000000E+00 0.  1.
<mgrwt>
<rscale>  0 0.61847384E+03</rscale>
<asrwt>0</asrwt>
<pdfrwt beam="1">  1        1 0.11153682E+00 0.61847384E+03</pdfrwt>
<pdfrwt beam="2">  1       -2 0.10115749E+00 0.61847384E+03</pdfrwt>
<totfact> 0.18803843E+01</totfact>
</mgrwt>
</event>
<event>
12    3  0.1182097E-007  0.5710366E+03  0.7818608E-02  0.9967387E-01
          1   -1    0    0  501    0  0.00000000000E+00  0.00000000000E+00  0.42306195527E+03  0.42306195527E+03  0.00000000000E+00 0. -1.
         -2   -1    0    0    0  501 -0.00000000000E+00 -0.00000000000E+00 -0.97187987659E+03  0.97187987659E+03  0.00000000000E+00 0.  1.
        -24    2    1    2    0    0  0.15142500018E+03 -0.40626094528E+03 -0.47947230886E+03  0.65130866803E+03  0.79572606753E+02 0.  0.
    5000000    2    1    2    0    0 -0.15142500018E+03  0.40626094528E+03 -0.69345612460E+02  0.74363316384E+03  0.60016996097E+03 0.  0.
        -24    2    4    4    0    0 -0.25601295280E+03  0.48941434808E+03  0.30416932650E+02  0.55886705670E+03  0.79612569128E+02 0.  0.
         24    2    4    4    0    0  0.10458795261E+03 -0.83153402799E+02 -0.99762545110E+02  0.18476610714E+03  0.79579021808E+02 0.  0.
         11    1    3    3    0    0  0.94539099519E+02 -0.28511469533E+03 -0.27702349109E+03  0.40861968314E+03  0.00000000000E+00 0. -1.
        -12    1    3    3    0    0  0.56885900665E+02 -0.12114624995E+03 -0.20244881777E+03  0.24268898489E+03  0.00000000000E+00 0.  1.
         15    1    5    5    0    0 -0.53966849402E+02  0.18392315854E+03  0.15264263583E+02  0.19229223737E+03  0.17770000000E+01 0. -1.
        -16    1    5    5    0    0 -0.20204610339E+03  0.30549118954E+03  0.15152669067E+02  0.36657481933E+03  0.00000000000E+00 0.  1.
          4    1    6    6  502    0  0.85488815957E+02 -0.25554943583E+02 -0.82876312759E+02  0.12177797835E+03  0.00000000000E+00 0. -1.
         -3    1    6    6    0  502  0.19099136656E+02 -0.57598459216E+02 -0.16886232351E+02  0.62988128787E+02  0.00000000000E+00 0.  1.
<mgrwt>
<rscale>  0 0.57103657E+03</rscale>
<asrwt>0</asrwt>
<pdfrwt beam="1">  1        1 0.65086456E-01 0.57103657E+03</pdfrwt>
<pdfrwt beam="2">  1       -2 0.14951998E+00 0.57103657E+03</pdfrwt>
<totfact> 0.15257657E+01</totfact>
</mgrwt>
</event>
<event>
12    3  0.1182097E-007  0.1496996E+04  0.7818608E-02  0.8886453E-01
          1   -1    0    0  501    0  0.00000000000E+00  0.00000000000E+00  0.13652986665E+04  0.13652986665E+04  0.00000000000E+00 0. -1.
         -2   -1    0    0    0  501 -0.00000000000E+00 -0.00000000000E+00 -0.20013998004E+04  0.20013998004E+04  0.00000000000E+00 0.  1.
        -24    2    1    2    0    0  0.14761060266E+04  0.10913169127E+03 -0.92008676031E+03  0.17445429951E+04  0.77922316941E+02 0.  0.
    5000000    2    1    2    0    0 -0.14761060266E+04 -0.10913169127E+03  0.28398562638E+03  0.16221554718E+04  0.59995150708E+03 0.  0.
        -24    2    4    4    0    0 -0.42811624520E+03 -0.16776754751E+03 -0.14020769504E+03  0.48724568483E+03  0.79502768760E+02 0.  0.
         24    2    4    4    0    0 -0.10479897814E+04  0.58635856246E+02  0.42419332143E+03  0.11349097870E+04  0.79746504700E+02 0.  0.
         11    1    3    3    0    0  0.41509304214E+03  0.55470532043E+02 -0.28974586062E+03  0.50924638173E+03  0.00000000000E+00 0. -1.
        -12    1    3    3    0    0  0.10610129845E+04  0.53661159225E+02 -0.63034089970E+03  0.12352966134E+04  0.00000000000E+00 0.  1.
         15    1    5    5    0    0 -0.30986995968E+03 -0.10140279241E+03 -0.13086637710E+03  0.35132760296E+03  0.17770000000E+01 0. -1.
        -16    1    5    5    0    0 -0.11824628552E+03 -0.66364755104E+02 -0.93413179458E+01  0.13591808187E+03  0.00000000000E+00 0.  1.
          4    1    6    6  502    0 -0.90771331527E+03  0.70337195307E+02  0.38731385211E+03  0.98939517070E+03  0.00000000000E+00 0. -1.
         -3    1    6    6    0  502 -0.14027646613E+03 -0.11701339061E+02  0.36879469318E+02  0.14551461626E+03  0.00000000000E+00 0.  1.
<mgrwt>
<rscale>  0 0.14969957E+04</rscale>
<asrwt>0</asrwt>
<pdfrwt beam="1">  1        1 0.21004595E+00 0.14969957E+04</pdfrwt>
<pdfrwt beam="2">  1       -2 0.30790766E+00 0.14969957E+04</pdfrwt>
<totfact> 0.19134308E-01</totfact>
</mgrwt>
</event>
<event>
12    3  0.1182097E-007  0.1122366E+04  0.7818608E-02  0.9183662E-01
         -2   -1    0    0    0  501 -0.00000000000E+00  0.00000000000E+00  0.88633889249E+03  0.88633889249E+03  0.00000000000E+00 0.  1.
          1   -1    0    0  501    0  0.00000000000E+00 -0.00000000000E+00 -0.18664859782E+04  0.18664859782E+04  0.00000000000E+00 0. -1.
        -24    2    1    2    0    0  0.10620514832E+04  0.34120982006E+03 -0.97914149056E+03  0.14863619900E+04  0.78590154878E+02 0.  0.
    5000000    2    1    2    0    0 -0.10620514832E+04 -0.34120982006E+03 -0.10055951756E+01  0.12664628808E+04  0.59962465166E+03 0.  0.
        -24    2    4    4    0    0 -0.75021399655E+03 -0.22970413216E+03  0.26744168523E+03  0.83273107045E+03  0.79567278051E+02 0.  0.
         24    2    4    4    0    0 -0.31183748662E+03 -0.11150568790E+03 -0.26844728040E+03  0.43373181030E+03  0.79894958648E+02 0.  0.
         11    1    3    3    0    0  0.94504570852E+03  0.31431754023E+03 -0.90173265064E+03  0.13435135580E+04  0.00000000000E+00 0. -1.
        -12    1    3    3    0    0  0.11700577466E+03  0.26892279833E+02 -0.77408839922E+02  0.14284843197E+03  0.00000000000E+00 0.  1.
         15    1    5    5    0    0 -0.46436764598E+03 -0.18169412138E+03  0.17597637645E+03  0.52879193183E+03  0.17770000000E+01 0. -1.
        -16    1    5    5    0    0 -0.28584635057E+03 -0.48010010785E+02  0.91465308778E+02  0.30393913862E+03  0.00000000000E+00 0.  1.
          2    1    6    6  502    0 -0.21466584235E+03 -0.37112883936E+02 -0.16114725778E+03  0.27097459053E+03  0.00000000000E+00 0. -1.
         -1    1    6    6    0  502 -0.97171644275E+02 -0.74392803967E+02 -0.10730002262E+03  0.16275721977E+03  0.00000000000E+00 0.  1.
<mgrwt>
<rscale>  0 0.11223663E+04</rscale>
<asrwt>0</asrwt>
<pdfrwt beam="1">  1        1 0.28715168E+00 0.11223663E+04</pdfrwt>
<pdfrwt beam="2">  1       -2 0.13635983E+00 0.11223663E+04</pdfrwt>
<totfact> 0.12221743E+00</totfact>
</mgrwt>
</event>
<event>
12    3  0.1182097E-007  0.1005903E+04  0.7818608E-02  0.9302094E-01
         -2   -1    0    0    0  501 -0.00000000000E+00  0.00000000000E+00  0.47399923060E+03  0.47399923060E+03  0.00000000000E+00 0.  1.
          1   -1    0    0  501    0  0.00000000000E+00 -0.00000000000E+00 -0.22398784455E+04  0.22398784455E+04  0.00000000000E+00 0. -1.
        -24    2    1    2    0    0  0.90150192065E+03 -0.17323925946E+03 -0.53642770109E+03  0.10662228858E+04  0.79743399418E+02 0.  0.
    5000000    2    1    2    0    0 -0.90150192065E+03  0.17323925946E+03 -0.12294515138E+04  0.16476547903E+04  0.60041463113E+03 0.  0.
        -24    2    4    4    0    0 -0.97497380684E+03  0.18038833851E+03 -0.11085198997E+04  0.14893322029E+04  0.78614031346E+02 0.  0.
         24    2    4    4    0    0  0.73471886193E+02 -0.71490790495E+01 -0.12093161406E+03  0.15832258736E+03  0.70656627397E+02 0.  0.
         13    1    3    3    0    0  0.50451554746E+03 -0.10234423300E+03 -0.25517155182E+03  0.57456313884E+03  0.00000000000E+00 0. -1.
        -14    1    3    3    0    0  0.39698637318E+03 -0.70895026465E+02 -0.28125614927E+03  0.49165974695E+03  0.00000000000E+00 0.  1.
         15    1    5    5    0    0 -0.25632072227E+03  0.27261558801E+02 -0.24681815752E+03  0.35688354664E+03  0.17770000000E+01 0. -1.
        -16    1    5    5    0    0 -0.71865308457E+03  0.15312677971E+03 -0.86170174221E+03  0.11324486563E+04  0.00000000000E+00 0.  1.
          4    1    6    6  502    0  0.40283217768E+02  0.30848138947E+02 -0.49612132589E+02  0.70962729727E+02  0.00000000000E+00 0. -1.
         -3    1    6    6    0  502  0.33188668425E+02 -0.37997217996E+02 -0.71319481473E+02  0.87359857628E+02  0.00000000000E+00 0.  1.
<mgrwt>
<rscale>  0 0.10059027E+04</rscale>
<asrwt>0</asrwt>
<pdfrwt beam="1">  1        1 0.34459668E+00 0.10059027E+04</pdfrwt>
<pdfrwt beam="2">  1       -2 0.72922958E-01 0.10059027E+04</pdfrwt>
<totfact> 0.30844780E+00</totfact>
</mgrwt>
</event>
<event>
12    3  0.1182097E-007  0.6725430E+03  0.7818608E-02  0.9765375E-01
          3   -1    0    0  501    0  0.00000000000E+00  0.00000000000E+00  0.95671311263E+03  0.95671311263E+03  0.00000000000E+00 0. -1.
         -2   -1    0    0    0  501 -0.00000000000E+00 -0.00000000000E+00 -0.48755739117E+03  0.48755739117E+03  0.00000000000E+00 0.  1.
        -24    2    1    2    0    0  0.40741233839E+03  0.35948795243E+03  0.11913347117E+03  0.56237454175E+03  0.82800602942E+02 0.  0.
    5000000    2    1    2    0    0 -0.40741233839E+03 -0.35948795243E+03  0.35002225029E+03  0.88189596204E+03  0.60000709226E+03 0.  0.
        -24    2    4    4    0    0 -0.33377283223E+02 -0.41074538725E+03  0.13029644079E+03  0.43768567273E+03  0.69034552607E+02 0.  0.
         24    2    4    4    0    0 -0.37403505516E+03  0.51257434817E+02  0.21972580950E+03  0.44421028931E+03  0.80708132504E+02 0.  0.
         11    1    3    3    0    0  0.14180564836E+03  0.14620085513E+03  0.82563557619E+02  0.21977323084E+03  0.00000000000E+00 0. -1.
        -12    1    3    3    0    0  0.26560669003E+03  0.21328709730E+03  0.36569913552E+02  0.34260131092E+03  0.00000000000E+00 0.  1.
         15    1    5    5    0    0  0.38630845530E+01 -0.23830250483E+03  0.10097366613E+03  0.25884714835E+03  0.17770000000E+01 0. -1.
        -16    1    5    5    0    0 -0.37240367776E+02 -0.17244288242E+03  0.29322774659E+02  0.17883852438E+03  0.00000000000E+00 0.  1.
          2    1    6    6  502    0 -0.11813605585E+03  0.54470676934E+02  0.70579889205E+02  0.14800237531E+03  0.00000000000E+00 0. -1.
         -1    1    6    6    0  502 -0.25589899931E+03 -0.32132421174E+01  0.14914592030E+03  0.29620791400E+03  0.00000000000E+00 0.  1.
<mgrwt>
<rscale>  0 0.67254299E+03</rscale>
<asrwt>0</asrwt>
<pdfrwt beam="1">  1        3 0.14718663E+00 0.67254299E+03</pdfrwt>
<pdfrwt beam="2">  1       -2 0.75008830E-01 0.67254299E+03</pdfrwt>
<totfact> 0.22659621E+00</totfact>
</mgrwt>
</event>
<event>
12    3  0.1182097E-007  0.4521332E+03  0.7818608E-02  0.1027088E+00
          1   -1    0    0  501    0  0.00000000000E+00  0.00000000000E+00  0.49285966303E+03  0.49285966303E+03  0.00000000000E+00 0. -1.
         -2   -1    0    0    0  501 -0.00000000000E+00 -0.00000000000E+00 -0.52183959672E+03  0.52183959672E+03  0.00000000000E+00 0.  1.
        -24    2    1    2    0    0  0.29670563903E+03  0.16585575059E+02 -0.13745678484E+03  0.33626265020E+03  0.76608646326E+02 0.  0.
    5000000    2    1    2    0    0 -0.29670563903E+03 -0.16585575059E+02  0.10847685114E+03  0.67843660955E+03  0.60016638394E+03 0.  0.
        -24    2    4    4    0    0  0.32728479738E+02 -0.20143009352E+03  0.18092216011E+03  0.28413057066E+03  0.79700170666E+02 0.  0.
         24    2    4    4    0    0 -0.32943411877E+03  0.18484451846E+03 -0.72445308968E+02  0.39430603889E+03  0.86802044328E+02 0.  0.
         13    1    3    3    0    0  0.13026546261E+03 -0.30746314917E+02 -0.60242120318E+02  0.14677717701E+03  0.00000000000E+00 0. -1.
        -14    1    3    3    0    0  0.16644017642E+03  0.47331889976E+02 -0.77214664518E+02  0.18948547320E+03  0.00000000000E+00 0.  1.
         15    1    5    5    0    0  0.55335487611E+02 -0.17250464457E+03  0.13861982551E+03  0.22811944753E+03  0.17770000000E+01 0. -1.
        -16    1    5    5    0    0 -0.22607007872E+02 -0.28925448945E+02  0.42302334601E+02  0.56011123130E+02  0.00000000000E+00 0.  1.
          2    1    6    6  502    0 -0.77124280808E+02  0.61558876666E+02 -0.54937019740E+02  0.11294125077E+03  0.00000000000E+00 0. -1.
         -1    1    6    6    0  502 -0.25230983796E+03  0.12328564179E+03 -0.17508289228E+02  0.28136478812E+03  0.00000000000E+00 0.  1.
<mgrwt>
<rscale>  0 0.45213317E+03</rscale>
<asrwt>0</asrwt>
<pdfrwt beam="1">  1        1 0.75824563E-01 0.45213317E+03</pdfrwt>
<pdfrwt beam="2">  1       -2 0.80283015E-01 0.45213317E+03</pdfrwt>
<totfact> 0.56534272E+01</totfact>
</mgrwt>
</event>
<event>
12    3  0.1248356E-007  0.1204357E+04  0.7818608E-02  0.9109052E-01
         -2   -1    0    0    0  501 -0.00000000000E+00  0.00000000000E+00  0.82280127859E+03  0.82280127859E+03  0.00000000000E+00 0.  1.
          1   -1    0    0  501    0  0.00000000000E+00 -0.00000000000E+00 -0.24501299371E+04  0.24501299371E+04  0.00000000000E+00 0. -1.
        -24    2    1    2    0    0  0.91145979008E+03 -0.67930410982E+03  0.72417569838E+02  0.11418861260E+04  0.80290708348E+02 0.  0.
    5000000    2    1    2    0    0 -0.91145979008E+03  0.67930410982E+03 -0.16997462283E+04  0.21310450896E+04  0.60000242567E+03 0.  0.
        -24    2    4    4    0    0  0.52713101490E+02 -0.72941770492E+00 -0.19772735257E+03  0.21945806526E+03  0.79287661940E+02 0.  0.
         24    2    4    4    0    0 -0.96417289157E+03  0.68003352752E+03 -0.15020188758E+04  0.19115870244E+04  0.77648472226E+02 0.  0.
         13    1    3    3    0    0  0.76098424899E+03 -0.53192829733E+03  0.45876578697E+02  0.92959636466E+03  0.00000000000E+00 0. -1.
        -14    1    3    3    0    0  0.15047554110E+03 -0.14737581248E+03  0.26540991141E+02  0.21228976137E+03  0.00000000000E+00 0.  1.
         15    1    5    5    0    0  0.30958596239E+02 -0.35821386483E+02 -0.64848408861E+02  0.80312391768E+02  0.17770000000E+01 0. -1.
        -16    1    5    5    0    0  0.21754505251E+02  0.35091968778E+02 -0.13287894371E+03  0.13914567349E+03  0.00000000000E+00 0.  1.
          2    1    6    6  502    0 -0.32823715957E+03  0.20231275753E+03 -0.44656926534E+03  0.58999507924E+03  0.00000000000E+00 0. -1.
         -1    1    6    6    0  502 -0.63593573200E+03  0.47772076999E+03 -0.10554496104E+04  0.13215919451E+04  0.00000000000E+00 0.  1.
<mgrwt>
<rscale>  0 0.12043568E+04</rscale>
<asrwt>0</asrwt>
<pdfrwt beam="1">  1        1 0.37694306E+00 0.12043568E+04</pdfrwt>
<pdfrwt beam="2">  1       -2 0.12658482E+00 0.12043568E+04</pdfrwt>
<totfact> 0.58742121E-01</totfact>
</mgrwt>
</event>
<event>
12    3  0.1182097E-007  0.1236830E+04  0.7818608E-02  0.9081216E-01
         -2   -1    0    0    0  501 -0.00000000000E+00  0.00000000000E+00  0.10788595002E+04  0.10788595002E+04  0.00000000000E+00 0.  1.
          1   -1    0    0  501    0  0.00000000000E+00 -0.00000000000E+00 -0.14240531501E+04  0.14240531501E+04  0.00000000000E+00 0. -1.
        -24    2    1    2    0    0 -0.82055427949E+03  0.82694937717E+03 -0.12624515745E+03  0.11743965532E+04  0.78197355001E+02 0.  0.
    5000000    2    1    2    0    0  0.82055427949E+03 -0.82694937717E+03 -0.21894849251E+03  0.13285160971E+04  0.59988497227E+03 0.  0.
        -24    2    4    4    0    0  0.67953019954E+03 -0.90165783169E+03 -0.18658767398E+03  0.11468850808E+04  0.76041375720E+02 0.  0.
         24    2    4    4    0    0  0.14102407995E+03  0.74708454521E+02 -0.32360818528E+02  0.18163101638E+03  0.80457810263E+02 0.  0.
         11    1    3    3    0    0 -0.48663573198E+03  0.44518945940E+03 -0.49150928807E+02  0.66138022665E+03  0.00000000000E+00 0. -1.
        -12    1    3    3    0    0 -0.33391854751E+03  0.38175991777E+03 -0.77094228643E+02  0.51301632652E+03  0.00000000000E+00 0.  1.
         15    1    5    5    0    0  0.58411639966E+03 -0.81468607542E+03 -0.16871515556E+03  0.10165497190E+04  0.17770000000E+01 0. -1.
        -16    1    5    5    0    0  0.95413799885E+02 -0.86971756270E+02 -0.17872518424E+02  0.13033536171E+03  0.00000000000E+00 0.  1.
          4    1    6    6  502    0  0.30698553564E+02  0.55434293041E+02 -0.28730011685E+02  0.69575682586E+02  0.00000000000E+00 0. -1.
         -3    1    6    6    0  502  0.11032552638E+03  0.19274161479E+02 -0.36308068425E+01  0.11205533379E+03  0.00000000000E+00 0.  1.
<mgrwt>
<rscale>  0 0.12368303E+04</rscale>
<asrwt>0</asrwt>
<pdfrwt beam="1">  1        1 0.21908510E+00 0.12368303E+04</pdfrwt>
<pdfrwt beam="2">  1       -2 0.16597838E+00 0.12368303E+04</pdfrwt>
<totfact> 0.14335434E+00</totfact>
</mgrwt>
</event>
<event>
12    3  0.1182097E-007  0.5859310E+03  0.7818608E-02  0.9935032E-01
         -2   -1    0    0    0  501 -0.00000000000E+00  0.00000000000E+00  0.35995716410E+03  0.35995716410E+03  0.00000000000E+00 0.  1.
          1   -1    0    0  501    0  0.00000000000E+00 -0.00000000000E+00 -0.11544042488E+04  0.11544042488E+04  0.00000000000E+00 0. -1.
        -24    2    1    2    0    0  0.36463895765E+03  0.27189084126E+03 -0.64641874511E+02  0.46609944713E+03  0.78637927681E+02 0.  0.
    5000000    2    1    2    0    0 -0.36463895765E+03 -0.27189084126E+03 -0.72980521024E+03  0.10482619658E+04  0.59945917716E+03 0.  0.
        -24    2    4    4    0    0  0.12753093975E+03 -0.13670047174E+02 -0.30804060070E+03  0.34583260722E+03  0.90885476006E+02 0.  0.
         24    2    4    4    0    0 -0.49216989740E+03 -0.25822079409E+03 -0.42176460954E+03  0.70242935860E+03  0.81316858992E+02 0.  0.
         11    1    3    3    0    0  0.29714234344E+03  0.18042413282E+03 -0.41563582313E+02  0.35010565740E+03  0.00000000000E+00 0. -1.
        -12    1    3    3    0    0  0.67496614208E+02  0.91466708448E+02 -0.23078292198E+02  0.11599378972E+03  0.00000000000E+00 0.  1.
         15    1    5    5    0    0 -0.39123473619E+01  0.15891294051E+02 -0.73772324234E+02  0.75586726615E+02  0.17770000000E+01 0. -1.
        -16    1    5    5    0    0  0.13144328711E+03 -0.29561341225E+02 -0.23426827647E+03  0.27024588060E+03  0.00000000000E+00 0.  1.
          4    1    6    6  502    0 -0.27589298716E+03 -0.10917448891E+03 -0.25560501753E+03  0.39162473668E+03  0.00000000000E+00 0. -1.
         -3    1    6    6    0  502 -0.21627691024E+03 -0.14904630518E+03 -0.16615959201E+03  0.31080462192E+03  0.00000000000E+00 0.  1.
<mgrwt>
<rscale>  0 0.58593100E+03</rscale>
<asrwt>0</asrwt>
<pdfrwt beam="1">  1        1 0.17760065E+00 0.58593100E+03</pdfrwt>
<pdfrwt beam="2">  1       -2 0.55378027E-01 0.58593100E+03</pdfrwt>
<totfact> 0.32395271E+01</totfact>
</mgrwt>
</event>
<event>
12    3  0.1182097E-007  0.3000602E+03  0.7818608E-02  0.1085211E+00
         -2   -1    0    0    0  501 -0.00000000000E+00  0.00000000000E+00  0.53087472320E+03  0.53087472320E+03  0.00000000000E+00 0.  1.
          1   -1    0    0  501    0  0.00000000000E+00 -0.00000000000E+00 -0.42779595038E+03  0.42779595038E+03  0.00000000000E+00 0. -1.
        -24    2    1    2    0    0  0.27123298414E+03  0.97499350534E+01  0.99459978060E+02  0.30001115171E+03  0.80324410969E+02 0.  0.
    5000000    2    1    2    0    0 -0.27123298414E+03 -0.97499350534E+01  0.36187947590E+01  0.65865952188E+03  0.60013071673E+03 0.  0.
        -24    2    4    4    0    0 -0.79153037607E+02 -0.32615171181E+02 -0.28132927580E+03  0.30497514616E+03  0.80837649626E+02 0.  0.
         24    2    4    4    0    0 -0.19207994653E+03  0.22865236127E+02  0.28494807056E+03  0.35368437572E+03  0.80496644834E+02 0.  0.
         11    1    3    3    0    0  0.12284936363E+03 -0.10797730570E+02  0.84438302598E+02  0.14946030937E+03  0.00000000000E+00 0. -1.
        -12    1    3    3    0    0  0.14838362051E+03  0.20547665624E+02  0.15021675462E+02  0.15055084235E+03  0.00000000000E+00 0.  1.
         15    1    5    5    0    0  0.12174955234E+02 -0.22776923421E+02 -0.61865645126E+02  0.67063652982E+02  0.17770000000E+01 0. -1.
        -16    1    5    5    0    0 -0.91327992841E+02 -0.98382477600E+01 -0.21946363067E+03  0.23791149317E+03  0.00000000000E+00 0.  1.
          4    1    6    6  502    0 -0.10338720520E+03 -0.27866452276E+02  0.15465698766E+03  0.18810698337E+03  0.00000000000E+00 0. -1.
         -3    1    6    6    0  502 -0.88692741336E+02  0.50731688403E+02  0.13029108290E+03  0.16557739235E+03  0.00000000000E+00 0.  1.
<mgrwt>
<rscale>  0 0.30006017E+03</rscale>
<asrwt>0</asrwt>
<pdfrwt beam="1">  1        1 0.65814762E-01 0.30006017E+03</pdfrwt>
<pdfrwt beam="2">  1       -2 0.81673034E-01 0.30006017E+03</pdfrwt>
<totfact> 0.66864188E+01</totfact>
</mgrwt>
</event>
<event>
12    3  0.1182097E-007  0.5748117E+03  0.7818608E-02  0.9959087E-01
         -2   -1    0    0    0  501 -0.00000000000E+00  0.00000000000E+00  0.43335595030E+04  0.43335595030E+04  0.00000000000E+00 0.  1.
          1   -1    0    0  501    0  0.00000000000E+00 -0.00000000000E+00 -0.80219084820E+02  0.80219084820E+02  0.00000000000E+00 0. -1.
        -24    2    1    2    0    0 -0.37414404414E+03 -0.19720233463E+03  0.12547000199E+04  0.13265855806E+04  0.81759624189E+02 0.  0.
    5000000    2    1    2    0    0  0.37414404414E+03  0.19720233463E+03  0.29986403983E+04  0.30871930073E+04  0.60003658149E+03 0.  0.
        -24    2    4    4    0    0  0.36835805278E+03  0.37750530203E+03  0.20355215708E+04  0.21040912730E+04  0.75193827515E+02 0.  0.
         24    2    4    4    0    0  0.57859913668E+01 -0.18030296739E+03  0.96311882753E+03  0.98310173430E+03  0.79677514423E+02 0.  0.
         11    1    3    3    0    0 -0.25312351698E+03 -0.88716692868E+02  0.77575467516E+03  0.82081513294E+03  0.00000000000E+00 0. -1.
        -12    1    3    3    0    0 -0.12102052716E+03 -0.10848564177E+03  0.47894534472E+03  0.50577044762E+03  0.00000000000E+00 0.  1.
         15    1    5    5    0    0  0.15059985088E+03  0.10380968913E+03  0.67947464912E+03  0.70366591730E+03  0.17770000000E+01 0. -1.
        -16    1    5    5    0    0  0.21775820190E+03  0.27369561289E+03  0.13560469217E+04  0.14004253557E+04  0.00000000000E+00 0.  1.
          4    1    6    6  502    0 -0.20353533713E+02 -0.79509556185E+02  0.26980164801E+03  0.28200880328E+03  0.00000000000E+00 0. -1.
         -3    1    6    6    0  502  0.26139525080E+02 -0.10079341121E+03  0.69331717951E+03  0.70109293102E+03  0.00000000000E+00 0.  1.
<mgrwt>
<rscale>  0 0.57481167E+03</rscale>
<asrwt>0</asrwt>
<pdfrwt beam="1">  1        1 0.12341401E-01 0.57481167E+03</pdfrwt>
<pdfrwt beam="2">  1       -2 0.66670128E+00 0.57481167E+03</pdfrwt>
<totfact> 0.13840165E-01</totfact>
</mgrwt>
</event>
<event>
12    3  0.1182097E-007  0.5474280E+03  0.7818608E-02  0.1002091E+00
          1   -1    0    0  501    0  0.00000000000E+00  0.00000000000E+00  0.18443033952E+04  0.18443033952E+04  0.00000000000E+00 0. -1.
         -2   -1    0    0    0  501 -0.00000000000E+00 -0.00000000000E+00 -0.18473322819E+03  0.18473322819E+03  0.00000000000E+00 0.  1.
        -24    2    1    2    0    0 -0.27983221283E+03  0.27636408030E+03  0.33021922946E+03  0.51843743729E+03  0.71059585320E+02 0.  0.
    5000000    2    1    2    0    0  0.27983221283E+03 -0.27636408030E+03  0.13293509375E+04  0.15105991861E+04  0.60004400977E+03 0.  0.
        -24    2    4    4    0    0  0.32897443503E+03 -0.42445399770E+03  0.10274734858E+04  0.11620994475E+04  0.79924882298E+02 0.  0.
         24    2    4    4    0    0 -0.49142222207E+02  0.14808991740E+03  0.30187745172E+03  0.34849973857E+03  0.77307763415E+02 0.  0.
         13    1    3    3    0    0 -0.26884273461E+03  0.26443604758E+03  0.33160443961E+03  0.50215967936E+03  0.00000000000E+00 0. -1.
        -14    1    3    3    0    0 -0.10989478213E+02  0.11928032725E+02 -0.13852101450E+01  0.16277757930E+02  0.00000000000E+00 0.  1.
         15    1    5    5    0    0  0.18362415222E+03 -0.25773891803E+03  0.68264078647E+03  0.75242858812E+03  0.17770000000E+01 0. -1.
        -16    1    5    5    0    0  0.14535028281E+03 -0.16671507966E+03  0.34483269935E+03  0.40967085940E+03  0.00000000000E+00 0.  1.
          4    1    6    6  502    0 -0.16449616713E+02  0.11900406193E+03  0.26615409020E+03  0.29201122645E+03  0.00000000000E+00 0. -1.
         -3    1    6    6    0  502 -0.32692605494E+02  0.29085855462E+02  0.35723361528E+02  0.56488512113E+02  0.00000000000E+00 0.  1.
<mgrwt>
<rscale>  0 0.54742800E+03</rscale>
<asrwt>0</asrwt>
<pdfrwt beam="1">  1        1 0.28373897E+00 0.54742800E+03</pdfrwt>
<pdfrwt beam="2">  1       -2 0.28420498E-01 0.54742800E+03</pdfrwt>
<totfact> 0.40118317E+01</totfact>
</mgrwt>
</event>
<event>
12    3  0.1182097E-007  0.3177028E+03  0.7818608E-02  0.1076711E+00
         -2   -1    0    0    0  501 -0.00000000000E+00  0.00000000000E+00  0.39496500075E+03  0.39496500075E+03  0.00000000000E+00 0.  1.
          1   -1    0    0  501    0  0.00000000000E+00 -0.00000000000E+00 -0.65303402928E+03  0.65303402928E+03  0.00000000000E+00 0. -1.
        -24    2    1    2    0    0  0.50631275155E+02  0.18395393055E+03 -0.35524427320E+03  0.41103252742E+03  0.79665992533E+02 0.  0.
    5000000    2    1    2    0    0 -0.50631275155E+02 -0.18395393055E+03  0.97175244662E+02  0.63696650262E+03  0.59990059401E+03 0.  0.
        -24    2    4    4    0    0 -0.18101836184E+03 -0.24062880456E+03 -0.14568213258E+03  0.34468163120E+03  0.83140087961E+02 0.  0.
         24    2    4    4    0    0  0.13038708668E+03  0.56674874011E+02  0.24285737724E+03  0.29228487142E+03  0.78980419501E+02 0.  0.
         13    1    3    3    0    0  0.29794376150E+01  0.84319300358E+01 -0.83886773640E+02  0.84362108107E+02  0.00000000000E+00 0. -1.
        -14    1    3    3    0    0  0.47651837540E+02  0.17552200051E+03 -0.27135749956E+03  0.32667041931E+03  0.00000000000E+00 0.  1.
         15    1    5    5    0    0 -0.34127416029E+02 -0.50658454911E+02 -0.69958202342E+02  0.92888467437E+02  0.17770000000E+01 0. -1.
        -16    1    5    5    0    0 -0.14689094581E+03 -0.18997034965E+03 -0.75723930235E+02  0.25179316376E+03  0.00000000000E+00 0.  1.
          4    1    6    6  502    0  0.96301245316E+02  0.50371106976E+02  0.10865692342E+03  0.15367987921E+03  0.00000000000E+00 0. -1.
         -3    1    6    6    0  502  0.34085841366E+02  0.63037670350E+01  0.13420045381E+03  0.13860499221E+03  0.00000000000E+00 0.  1.
<mgrwt>
<rscale>  0 0.31770279E+03</rscale>
<asrwt>0</asrwt>
<pdfrwt beam="1">  1        1 0.10046677E+00 0.31770279E+03</pdfrwt>
<pdfrwt beam="2">  1       -2 0.60763847E-01 0.31770279E+03</pdfrwt>
<totfact> 0.70976379E+01</totfact>
</mgrwt>
</event>
<event>
12    3  0.1182097E-007  0.1156753E+04  0.7818608E-02  0.9151576E-01
          1   -1    0    0  501    0  0.00000000000E+00  0.00000000000E+00  0.95246954288E+03  0.95246954288E+03  0.00000000000E+00 0. -1.
         -2   -1    0    0    0  501 -0.00000000000E+00 -0.00000000000E+00 -0.17648413472E+04  0.17648413472E+04  0.00000000000E+00 0.  1.
        -24    2    1    2    0    0  0.37439737263E+03 -0.10541780670E+04 -0.90974182291E+03  0.14441479656E+04  0.80426193943E+02 0.  0.
    5000000    2    1    2    0    0 -0.37439737263E+03  0.10541780670E+04  0.97370018581E+02  0.12731629245E+04  0.59999843513E+03 0.  0.
        -24    2    4    4    0    0  0.62847117157E+02  0.40221880479E+03 -0.15695200151E+03  0.44403697799E+03  0.82493514769E+02 0.  0.
         24    2    4    4    0    0 -0.43724448979E+03  0.65195926220E+03  0.25432202009E+03  0.82912594648E+03  0.80848758820E+02 0.  0.
         13    1    3    3    0    0  0.79932823534E+02 -0.30076132717E+03 -0.28625740240E+03  0.42283558581E+03  0.00000000000E+00 0. -1.
        -14    1    3    3    0    0  0.29446454909E+03 -0.75341673982E+03 -0.62348442051E+03  0.10213123798E+04  0.00000000000E+00 0.  1.
         15    1    5    5    0    0  0.28173959093E+02  0.14083745731E+03 -0.97914835512E+02  0.17383737830E+03  0.17770000000E+01 0. -1.
        -16    1    5    5    0    0  0.34673158064E+02  0.26138134748E+03 -0.59037166001E+02  0.27019959969E+03  0.00000000000E+00 0.  1.
          2    1    6    6  502    0 -0.82527306254E+02  0.96003927347E+02  0.68622436087E+02  0.14400190651E+03  0.00000000000E+00 0. -1.
         -1    1    6    6    0  502 -0.35471718353E+03  0.55595533486E+03  0.18569958401E+03  0.68512403997E+03  0.00000000000E+00 0.  1.
<mgrwt>
<rscale>  0 0.11567529E+04</rscale>
<asrwt>0</asrwt>
<pdfrwt beam="1">  1        1 0.14653378E+00 0.11567529E+04</pdfrwt>
<pdfrwt beam="2">  1       -2 0.27151405E+00 0.11567529E+04</pdfrwt>
<totfact> 0.67532002E-01</totfact>
</mgrwt>
</event>
<event>
12    3  0.1182097E-007  0.2096077E+04  0.7818608E-02  0.8562974E-01
         -2   -1    0    0    0  501 -0.00000000000E+00  0.00000000000E+00  0.14424166119E+04  0.14424166119E+04  0.00000000000E+00 0.  1.
          1   -1    0    0  501    0  0.00000000000E+00 -0.00000000000E+00 -0.32711332393E+04  0.32711332393E+04  0.00000000000E+00 0. -1.
        -24    2    1    2    0    0 -0.16832756170E+04  0.11852005629E+04 -0.30442809689E+03  0.20826533181E+04  0.81554889590E+02 0.  0.
    5000000    2    1    2    0    0  0.16832756170E+04 -0.11852005629E+04 -0.15242885305E+04  0.26308965331E+04  0.60003655432E+03 0.  0.
        -24    2    4    4    0    0  0.33199602118E+03 -0.53707412144E+03 -0.35677748270E+03  0.72959285550E+03  0.79659228200E+02 0.  0.
         24    2    4    4    0    0  0.13512795958E+04 -0.64812644142E+03 -0.11675110478E+04  0.19013036776E+04  0.76480046057E+02 0.  0.
         11    1    3    3    0    0 -0.77105852441E+03  0.59160149419E+03 -0.13502481964E+03  0.98120093656E+03  0.00000000000E+00 0. -1.
        -12    1    3    3    0    0 -0.91221709261E+03  0.59359906868E+03 -0.16940327725E+03  0.11014523815E+04  0.00000000000E+00 0.  1.
         15    1    5    5    0    0  0.15967477226E+03 -0.29108542481E+03 -0.14613016807E+03  0.36274500849E+03  0.17770000000E+01 0. -1.
        -16    1    5    5    0    0  0.17232124892E+03 -0.24598869663E+03 -0.21064731462E+03  0.36684784701E+03  0.00000000000E+00 0.  1.
          2    1    6    6  502    0  0.68989840253E+03 -0.30185207233E+03 -0.62158055632E+03  0.97644091853E+03  0.00000000000E+00 0. -1.
         -1    1    6    6    0  502  0.66138119331E+03 -0.34627436909E+03 -0.54593049150E+03  0.92486275906E+03  0.00000000000E+00 0.  1.
<mgrwt>
<rscale>  0 0.20960767E+04</rscale>
<asrwt>0</asrwt>
<pdfrwt beam="1">  1        1 0.50325126E+00 0.20960767E+04</pdfrwt>
<pdfrwt beam="2">  1       -2 0.22191025E+00 0.20960767E+04</pdfrwt>
<totfact> 0.27926892E-02</totfact>
</mgrwt>
</event>
<event>
12    3  0.1182097E-007  0.5109446E+03  0.7818608E-02  0.1010961E+00
         -2   -1    0    0    0  501 -0.00000000000E+00  0.00000000000E+00  0.46060292698E+03  0.46060292698E+03  0.00000000000E+00 0.  1.
          1   -1    0    0  501    0  0.00000000000E+00 -0.00000000000E+00 -0.98537899792E+03  0.98537899792E+03  0.00000000000E+00 0. -1.
        -24    2    1    2    0    0 -0.35234572266E+03 -0.85110171870E+01  0.22329808960E+03  0.42428488323E+03  0.77043362019E+02 0.  0.
    5000000    2    1    2    0    0  0.35234572266E+03  0.85110171870E+01 -0.74807416053E+03  0.10216970417E+04  0.60002495748E+03 0.  0.
        -24    2    4    4    0    0 -0.13307191021E+03 -0.71740493504E+02 -0.32930291329E+03  0.37069223142E+03  0.78214385143E+02 0.  0.
         24    2    4    4    0    0  0.48541763288E+03  0.80251510691E+02 -0.41877124725E+03  0.65100481024E+03  0.79795502141E+02 0.  0.
         11    1    3    3    0    0 -0.25159690723E+03  0.22998710679E+02  0.17989666011E+03  0.31014956512E+03  0.00000000000E+00 0. -1.
        -12    1    3    3    0    0 -0.10074881543E+03 -0.31509727866E+02  0.43401429485E+02  0.11413531812E+03  0.00000000000E+00 0.  1.
         15    1    5    5    0    0 -0.61981081865E+02  0.89388164763E+01 -0.12478284105E+03  0.13962618701E+03  0.17770000000E+01 0. -1.
        -16    1    5    5    0    0 -0.71090828349E+02 -0.80679309981E+02 -0.20452007223E+03  0.23106604441E+03  0.00000000000E+00 0.  1.
          2    1    6    6  502    0  0.22219730346E+03  0.17366382596E+02 -0.23499356770E+03  0.32387529972E+03  0.00000000000E+00 0. -1.
         -1    1    6    6    0  502  0.26322032942E+03  0.62885128095E+02 -0.18377767955E+03  0.32712951052E+03  0.00000000000E+00 0.  1.
<mgrwt>
<rscale>  0 0.51094462E+03</rscale>
<asrwt>0</asrwt>
<pdfrwt beam="1">  1        1 0.15159677E+00 0.51094462E+03</pdfrwt>
<pdfrwt beam="2">  1       -2 0.70861989E-01 0.51094462E+03</pdfrwt>
<totfact> 0.25954928E+01</totfact>
</mgrwt>
</event>
<event>
12    3  0.1182097E-007  0.4368093E+03  0.7818608E-02  0.1031730E+00
         -2   -1    0    0    0  501 -0.00000000000E+00  0.00000000000E+00  0.33749727211E+03  0.33749727211E+03  0.00000000000E+00 0.  1.
          1   -1    0    0  501    0  0.00000000000E+00 -0.00000000000E+00 -0.69961907874E+03  0.69961907874E+03  0.00000000000E+00 0. -1.
        -24    2    1    2    0    0 -0.25892623013E+03 -0.36811537371E+02 -0.25527966707E+03  0.37391517811E+03  0.79037776208E+02 0.  0.
    5000000    2    1    2    0    0  0.25892623013E+03  0.36811537371E+02 -0.10684213956E+03  0.66320117275E+03  0.60001889205E+03 0.  0.
        -24    2    4    4    0    0 -0.24852688345E+01  0.25961483915E+03  0.51325367070E+02  0.27660960264E+03  0.80452083252E+02 0.  0.
         24    2    4    4    0    0  0.26141149896E+03 -0.22280330178E+03 -0.15816750663E+03  0.38659157011E+03  0.80366652643E+02 0.  0.
         13    1    3    3    0    0 -0.59166277546E+02 -0.26645018114E+01 -0.10875480531E+03  0.12383600303E+03  0.00000000000E+00 0. -1.
        -14    1    3    3    0    0 -0.19975995258E+03 -0.34147035560E+02 -0.14652486176E+03  0.25007917507E+03  0.00000000000E+00 0.  1.
         15    1    5    5    0    0 -0.32820649612E+02  0.87952129175E+02  0.39571649270E+02  0.10189134027E+03  0.17770000000E+01 0. -1.
        -16    1    5    5    0    0  0.30335380778E+02  0.17166270997E+03  0.11753717800E+02  0.17471826237E+03  0.00000000000E+00 0.  1.
          2    1    6    6  502    0  0.16778273300E+03 -0.13964422051E+03 -0.57017058753E+02  0.22561582126E+03  0.00000000000E+00 0. -1.
         -1    1    6    6    0  502  0.93628765959E+02 -0.83159081267E+02 -0.10115044787E+03  0.16097574885E+03  0.00000000000E+00 0.  1.
<mgrwt>
<rscale>  0 0.43680932E+03</rscale>
<asrwt>0</asrwt>
<pdfrwt beam="1">  1        1 0.10763370E+00 0.43680932E+03</pdfrwt>
<pdfrwt beam="2">  1       -2 0.51922657E-01 0.43680932E+03</pdfrwt>
<totfact> 0.87375164E+01</totfact>
</mgrwt>
</event>
<event>
12    3  0.1476542E-007  0.1047489E+04  0.7818608E-02  0.9257941E-01
          1   -1    0    0  501    0  0.00000000000E+00  0.00000000000E+00  0.98748128732E+03  0.98748128732E+03  0.00000000000E+00 0. -1.
         -2   -1    0    0    0  501 -0.00000000000E+00 -0.00000000000E+00 -0.12531027355E+04  0.12531027355E+04  0.00000000000E+00 0.  1.
        -24    2    1    2    0    0  0.96852182222E+03 -0.32251841078E+03 -0.26142768986E+03  0.10565698177E+04  0.77088891876E+02 0.  0.
    5000000    2    1    2    0    0 -0.96852182222E+03  0.32251841078E+03 -0.41937583480E+01  0.11840142051E+04  0.59984948523E+03 0.  0.
        -24    2    4    4    0    0 -0.30245143488E+03  0.25756562109E+03 -0.24024036979E+03  0.47002664134E+03  0.73434928114E+02 0.  0.
         24    2    4    4    0    0 -0.66607038734E+03  0.64952789688E+02  0.23604661144E+03  0.71398756379E+03  0.78686801224E+02 0.  0.
         13    1    3    3    0    0  0.28767103458E+03 -0.12984584535E+03 -0.96105792356E+02  0.32992558406E+03  0.00000000000E+00 0. -1.
        -14    1    3    3    0    0  0.68085078764E+03 -0.19267256543E+03 -0.16532189750E+03  0.72664423365E+03  0.00000000000E+00 0.  1.
         15    1    5    5    0    0 -0.82144627547E+02  0.53405461069E+02 -0.94648307132E+02  0.13624001937E+03  0.17770000000E+01 0. -1.
        -16    1    5    5    0    0 -0.22030680733E+03  0.20416016002E+03 -0.14559206266E+03  0.33378662197E+03  0.00000000000E+00 0.  1.
          2    1    6    6  502    0 -0.15800955116E+03 -0.16495039925E+02  0.45012944673E+02  0.16512198457E+03  0.00000000000E+00 0. -1.
         -1    1    6    6    0  502 -0.50806083618E+03  0.81447829613E+02  0.19103366677E+03  0.54886557922E+03  0.00000000000E+00 0.  1.
<mgrwt>
<rscale>  0 0.10474887E+04</rscale>
<asrwt>0</asrwt>
<pdfrwt beam="1">  1        1 0.15192020E+00 0.10474887E+04</pdfrwt>
<pdfrwt beam="2">  1       -2 0.19278504E+00 0.10474887E+04</pdfrwt>
<totfact> 0.19966754E+00</totfact>
</mgrwt>
</event>
<event>
12    3  0.1182097E-007  0.7325999E+03  0.7818608E-02  0.9663051E-01
         -2   -1    0    0    0  501 -0.00000000000E+00  0.00000000000E+00  0.65393177256E+03  0.65393177256E+03  0.00000000000E+00 0.  1.
          1   -1    0    0  501    0  0.00000000000E+00 -0.00000000000E+00 -0.98393064831E+03  0.98393064831E+03  0.00000000000E+00 0. -1.
        -24    2    1    2    0    0  0.59898666749E+03 -0.33537211763E+03 -0.17800366645E+03  0.71353274342E+03  0.78639592750E+02 0.  0.
    5000000    2    1    2    0    0 -0.59898666749E+03  0.33537211763E+03 -0.15199520930E+03  0.92432967744E+03  0.60001943621E+03 0.  0.
        -24    2    4    4    0    0 -0.41243872701E+03  0.39168503020E+03  0.11354017043E+03  0.58424328924E+03  0.70185356769E+02 0.  0.
         24    2    4    4    0    0 -0.18654794049E+03 -0.56312912569E+02 -0.26553537973E+03  0.34008638820E+03  0.84725647398E+02 0.  0.
         11    1    3    3    0    0  0.25369015217E+03 -0.15879898788E+03 -0.40331842901E+02  0.30199746590E+03  0.00000000000E+00 0. -1.
        -12    1    3    3    0    0  0.34529651532E+03 -0.17657312976E+03 -0.13767182355E+03  0.41153527752E+03  0.00000000000E+00 0.  1.
         15    1    5    5    0    0 -0.13474821474E+03  0.10404997408E+03  0.66076629688E+01  0.17038279673E+03  0.17770000000E+01 0. -1.
        -16    1    5    5    0    0 -0.27769051227E+03  0.28763505612E+03  0.10693250746E+03  0.41386049251E+03  0.00000000000E+00 0.  1.
          4    1    6    6  502    0 -0.14955412258E+03 -0.74178066330E+02 -0.18182267151E+03  0.24683659571E+03  0.00000000000E+00 0. -1.
         -3    1    6    6    0  502 -0.36993817910E+02  0.17865153761E+02 -0.83712708218E+02  0.93249792492E+02  0.00000000000E+00 0.  1.
<mgrwt>
<rscale>  0 0.73259993E+03</rscale>
<asrwt>0</asrwt>
<pdfrwt beam="1">  1        1 0.15137395E+00 0.73259993E+03</pdfrwt>
<pdfrwt beam="2">  1       -2 0.10060489E+00 0.73259993E+03</pdfrwt>
<totfact> 0.11406901E+01</totfact>
</mgrwt>
</event>
<event>
12    3  0.1182097E-007  0.7288576E+03  0.7818608E-02  0.9669116E-01
          1   -1    0    0  501    0  0.00000000000E+00  0.00000000000E+00  0.77256827560E+03  0.77256827560E+03  0.00000000000E+00 0. -1.
         -2   -1    0    0    0  501 -0.00000000000E+00 -0.00000000000E+00 -0.81987419193E+03  0.81987419193E+03  0.00000000000E+00 0.  1.
        -24    2    1    2    0    0 -0.59386208701E+03 -0.29638637868E+03  0.12810032923E+03  0.68074920465E+03  0.80577425129E+02 0.  0.
    5000000    2    1    2    0    0  0.59386208701E+03  0.29638637868E+03 -0.17540624555E+03  0.91169326288E+03  0.59991681986E+03 0.  0.
        -24    2    4    4    0    0  0.18796814454E+03  0.33072190940E+03 -0.28562490623E+03  0.48242949606E+03  0.80297116310E+02 0.  0.
         24    2    4    4    0    0  0.40589394247E+03 -0.34335530726E+02  0.11021866068E+03  0.42926376682E+03  0.78679140455E+02 0.  0.
         13    1    3    3    0    0 -0.28894538528E+03 -0.11872194612E+03  0.93914361514E+02  0.32619663312E+03  0.00000000000E+00 0. -1.
        -14    1    3    3    0    0 -0.30491670173E+03 -0.17766443256E+03  0.34185967712E+02  0.35455257153E+03  0.00000000000E+00 0.  1.
         15    1    5    5    0    0  0.12788271524E+03  0.16562511162E+03 -0.18871376355E+03  0.28178308810E+03  0.17770000000E+01 0. -1.
        -16    1    5    5    0    0  0.60085429298E+02  0.16509679778E+03 -0.96911142686E+02  0.20064640796E+03  0.00000000000E+00 0.  1.
          2    1    6    6  502    0  0.33273566487E+03 -0.24054085497E+02  0.57543262266E+02  0.33853042513E+03  0.00000000000E+00 0. -1.
         -1    1    6    6    0  502  0.73158277596E+02 -0.10281445229E+02  0.52675398411E+02  0.90733341691E+02  0.00000000000E+00 0.  1.
<mgrwt>
<rscale>  0 0.72885760E+03</rscale>
<asrwt>0</asrwt>
<pdfrwt beam="1">  1        1 0.11885666E+00 0.72885760E+03</pdfrwt>
<pdfrwt beam="2">  1       -2 0.12613449E+00 0.72885760E+03</pdfrwt>
<totfact> 0.98290101E+00</totfact>
</mgrwt>
</event>
<event>
12    3  0.1182097E-007  0.5315404E+03  0.7818608E-02  0.1005859E+00
          1   -1    0    0  501    0  0.00000000000E+00  0.00000000000E+00  0.25604481951E+03  0.25604481951E+03  0.00000000000E+00 0. -1.
         -2   -1    0    0    0  501 -0.00000000000E+00 -0.00000000000E+00 -0.12339623785E+04  0.12339623785E+04  0.00000000000E+00 0.  1.
        -24    2    1    2    0    0  0.36279781359E+03 -0.11210541368E+03 -0.50669500949E+03  0.63780081986E+03  0.76551785404E+02 0.  0.
    5000000    2    1    2    0    0 -0.36279781359E+03  0.11210541368E+03 -0.47122254947E+03  0.85220637812E+03  0.60001261858E+03 0.  0.
        -24    2    4    4    0    0 -0.36852035673E+03  0.29858823227E+03 -0.43024130010E+03  0.64511674415E+03  0.78139948113E+02 0.  0.
         24    2    4    4    0    0  0.57225431412E+01 -0.18648281859E+03 -0.40981249370E+02  0.20708963397E+03  0.79987902637E+02 0.  0.
         11    1    3    3    0    0  0.16390054262E+03 -0.81628135713E+02 -0.28143348140E+03  0.33575488807E+03  0.00000000000E+00 0. -1.
        -12    1    3    3    0    0  0.19889727098E+03 -0.30477277964E+02 -0.22526152810E+03  0.30204593180E+03  0.00000000000E+00 0.  1.
         15    1    5    5    0    0 -0.19268955279E+03  0.11402015159E+03 -0.17288668132E+03  0.28288305187E+03  0.17770000000E+01 0. -1.
        -16    1    5    5    0    0 -0.17583080394E+03  0.18456808068E+03 -0.25735461878E+03  0.36223369228E+03  0.00000000000E+00 0.  1.
          2    1    6    6  502    0 -0.33194271514E+02 -0.85303789572E+02 -0.98099905503E+00  0.91539928642E+02  0.00000000000E+00 0. -1.
         -1    1    6    6    0  502  0.38916814655E+02 -0.10117902902E+03 -0.40000250315E+02  0.11554970533E+03  0.00000000000E+00 0.  1.
<mgrwt>
<rscale>  0 0.53154035E+03</rscale>
<asrwt>0</asrwt>
<pdfrwt beam="1">  1        1 0.39391511E-01 0.53154035E+03</pdfrwt>
<pdfrwt beam="2">  1       -2 0.18984037E+00 0.53154035E+03</pdfrwt>
<totfact> 0.15248921E+01</totfact>
</mgrwt>
</event>
<event>
12    3  0.1182097E-007  0.8214606E+03  0.7818608E-02  0.9529463E-01
         -2   -1    0    0    0  501 -0.00000000000E+00  0.00000000000E+00  0.99659938271E+03  0.99659938271E+03  0.00000000000E+00 0.  1.
          1   -1    0    0  501    0  0.00000000000E+00 -0.00000000000E+00 -0.78723359485E+03  0.78723359485E+03  0.00000000000E+00 0. -1.
        -24    2    1    2    0    0  0.57708663085E+03  0.42329109738E+03  0.40975704003E+03  0.82864171667E+03  0.80882199075E+02 0.  0.
    5000000    2    1    2    0    0 -0.57708663085E+03 -0.42329109738E+03 -0.20039125216E+03  0.95519126089E+03  0.60002446477E+03 0.  0.
        -24    2    4    4    0    0 -0.67492544878E+03 -0.26086580806E+03 -0.17127615019E+03  0.74799647225E+03  0.81165704900E+02 0.  0.
         24    2    4    4    0    0  0.97838817933E+02 -0.16242528932E+03 -0.29115101973E+02  0.20719478864E+03  0.78278875646E+02 0.  0.
         13    1    3    3    0    0  0.38784264724E+03  0.32599419145E+03  0.30619566529E+03  0.59198810573E+03  0.00000000000E+00 0. -1.
        -14    1    3    3    0    0  0.18924398361E+03  0.97296905932E+02  0.10356137473E+03  0.23665361094E+03  0.00000000000E+00 0.  1.
         15    1    5    5    0    0 -0.58198876169E+03 -0.24451426825E+03 -0.12769857255E+03  0.64405607618E+03  0.17770000000E+01 0. -1.
        -16    1    5    5    0    0 -0.92936687093E+02 -0.16351539814E+02 -0.43577577645E+02  0.10394039607E+03  0.00000000000E+00 0.  1.
          2    1    6    6  502    0  0.18216307528E+02 -0.84484603667E+02  0.14325871851E+02  0.87605437737E+02  0.00000000000E+00 0. -1.
         -1    1    6    6    0  502  0.79622510404E+02 -0.77940685651E+02 -0.43440973824E+02  0.11958935090E+03  0.00000000000E+00 0.  1.
<mgrwt>
<rscale>  0 0.82146057E+03</rscale>
<asrwt>0</asrwt>
<pdfrwt beam="1">  1        1 0.12111286E+00 0.82146057E+03</pdfrwt>
<pdfrwt beam="2">  1       -2 0.15332298E+00 0.82146057E+03</pdfrwt>
<totfact> 0.56999953E+00</totfact>
</mgrwt>
</event>
<event>
12    3  0.1616509E-007  0.1373427E+04  0.7818608E-02  0.8973281E-01
         -2   -1    0    0    0  501 -0.00000000000E+00  0.00000000000E+00  0.16611585477E+04  0.16611585477E+04  0.00000000000E+00 0.  1.
          1   -1    0    0  501    0  0.00000000000E+00 -0.00000000000E+00 -0.15901008170E+04  0.15901008170E+04  0.00000000000E+00 0. -1.
        -24    2    1    2    0    0 -0.85268537106E+03  0.99194653337E+03  0.90054664643E+03  0.15901388563E+04  0.80790176915E+02 0.  0.
    5000000    2    1    2    0    0  0.85268537106E+03 -0.99194653337E+03 -0.82948891573E+03  0.16611205084E+04  0.60019931280E+03 0.  0.
        -24    2    4    4    0    0  0.38917183850E+03 -0.70381865929E+02 -0.23839756465E+03  0.46918279281E+03  0.83010645741E+02 0.  0.
         24    2    4    4    0    0  0.46351353256E+03 -0.92156466744E+03 -0.59109135109E+03  0.11919377156E+04  0.84854589907E+02 0.  0.
         13    1    3    3    0    0 -0.18925419941E+03  0.25408081817E+03  0.18616581672E+03  0.36746690392E+03  0.00000000000E+00 0. -1.
        -14    1    3    3    0    0 -0.66343117164E+03  0.73786571521E+03  0.71438082970E+03  0.12226719523E+04  0.00000000000E+00 0.  1.
         15    1    5    5    0    0  0.22382780394E+03 -0.81750617502E+02 -0.13624438392E+03  0.27449542648E+03  0.17770000000E+01 0. -1.
        -16    1    5    5    0    0  0.16534403455E+03  0.11368751572E+02 -0.10215318072E+03  0.19468736632E+03  0.00000000000E+00 0.  1.
          4    1    6    6  502    0  0.29381430407E+03 -0.51030267469E+03 -0.30693027509E+03  0.66403453136E+03  0.00000000000E+00 0. -1.
         -3    1    6    6    0  502  0.16969922849E+03 -0.41126199275E+03 -0.28416107600E+03  0.52790318426E+03  0.00000000000E+00 0.  1.
<mgrwt>
<rscale>  0 0.13734270E+04</rscale>
<asrwt>0</asrwt>
<pdfrwt beam="1">  1        1 0.24463089E+00 0.13734270E+04</pdfrwt>
<pdfrwt beam="2">  1       -2 0.25556285E+00 0.13734270E+04</pdfrwt>
<totfact> 0.28198606E-01</totfact>
</mgrwt>
</event>
<event>
12    3  0.1182097E-007  0.7644510E+03  0.7818608E-02  0.9612948E-01
          1   -1    0    0  501    0  0.00000000000E+00  0.00000000000E+00  0.13244127923E+04  0.13244127923E+04  0.00000000000E+00 0. -1.
         -2   -1    0    0    0  501 -0.00000000000E+00 -0.00000000000E+00 -0.52292250026E+03  0.52292250026E+03  0.00000000000E+00 0.  1.
        -24    2    1    2    0    0 -0.70747416411E+03  0.13609918481E+03  0.30656703621E+03  0.78697196881E+03  0.79365301079E+02 0.  0.
    5000000    2    1    2    0    0  0.70747416411E+03 -0.13609918481E+03  0.49492325582E+03  0.10603633237E+04  0.60031547389E+03 0.  0.
        -24    2    4    4    0    0  0.24735575177E+03 -0.21592109856E+03 -0.45722059866E+02  0.34116798133E+03  0.80612008947E+02 0.  0.
         24    2    4    4    0    0  0.46011841234E+03  0.79821913751E+02  0.54064531568E+03  0.71919534242E+03  0.82849815278E+02 0.  0.
         13    1    3    3    0    0 -0.35317677439E+03  0.70391657285E+02  0.19624523855E+03  0.41012316813E+03  0.00000000000E+00 0. -1.
        -14    1    3    3    0    0 -0.35429738972E+03  0.65707527524E+02  0.11032179766E+03  0.37684880069E+03  0.00000000000E+00 0.  1.
         15    1    5    5    0    0  0.11676807924E+02 -0.43390014427E+02 -0.15328021817E+02  0.47509443031E+02  0.17770000000E+01 0. -1.
        -16    1    5    5    0    0  0.23567894385E+03 -0.17253108413E+03 -0.30394038049E+02  0.29365853829E+03  0.00000000000E+00 0.  1.
          2    1    6    6  502    0  0.57430209988E+02  0.32344765204E+02  0.10565498529E+03  0.12452866646E+03  0.00000000000E+00 0. -1.
         -1    1    6    6    0  502  0.40268820235E+03  0.47477148547E+02  0.43499033040E+03  0.59466667595E+03  0.00000000000E+00 0.  1.
<mgrwt>
<rscale>  0 0.76445099E+03</rscale>
<asrwt>0</asrwt>
<pdfrwt beam="1">  1        1 0.20375581E+00 0.76445099E+03</pdfrwt>
<pdfrwt beam="2">  1       -2 0.80449616E-01 0.76445099E+03</pdfrwt>
<totfact> 0.10688489E+01</totfact>
</mgrwt>
</event>
<event>
12    3  0.1182097E-007  0.2549278E+03  0.7818608E-02  0.1110230E+00
         -2   -1    0    0    0  501 -0.00000000000E+00  0.00000000000E+00  0.85690859177E+03  0.85690859177E+03  0.00000000000E+00 0.  1.
          1   -1    0    0  501    0  0.00000000000E+00 -0.00000000000E+00 -0.22375670927E+03  0.22375670927E+03  0.00000000000E+00 0. -1.
        -24    2    1    2    0    0 -0.19145664203E+03 -0.97094089885E+02  0.24177707745E+03  0.33295428216E+03  0.79495224757E+02 0.  0.
    5000000    2    1    2    0    0  0.19145664203E+03  0.97094089885E+02  0.39137480504E+03  0.74771101888E+03  0.59984549815E+03 0.  0.
        -24    2    4    4    0    0  0.97565239112E+02  0.14136497539E+03 -0.11549308703E+03  0.22390048668E+03  0.85379989650E+02 0.  0.
         24    2    4    4    0    0  0.93891402921E+02 -0.44270885508E+02  0.50686789207E+03  0.52381053220E+03  0.81773509041E+02 0.  0.
         11    1    3    3    0    0 -0.45889309648E+02 -0.63486123326E+02  0.67477704214E+02  0.10339031464E+03  0.00000000000E+00 0. -1.
        -12    1    3    3    0    0 -0.14556733239E+03 -0.33607966559E+02  0.17429937324E+03  0.22956396753E+03  0.00000000000E+00 0.  1.
         15    1    5    5    0    0  0.69395979866E+02  0.10083753956E+03 -0.31386031444E+02  0.12638137562E+03  0.17770000000E+01 0. -1.
        -16    1    5    5    0    0  0.28169259246E+02  0.40527435834E+02 -0.84107055584E+02  0.97519111054E+02  0.00000000000E+00 0.  1.
          4    1    6    6  502    0  0.42637357898E+02 -0.26579803680E-01  0.35476269453E+03  0.35731570694E+03  0.00000000000E+00 0. -1.
         -3    1    6    6    0  502  0.51254045023E+02 -0.44244305705E+02  0.15210519754E+03  0.16649482526E+03  0.00000000000E+00 0.  1.
<mgrwt>
<rscale>  0 0.25492778E+03</rscale>
<asrwt>0</asrwt>
<pdfrwt beam="1">  1        1 0.34424110E-01 0.25492778E+03</pdfrwt>
<pdfrwt beam="2">  1       -2 0.13183209E+00 0.25492778E+03</pdfrwt>
<totfact> 0.49715449E+01</totfact>
</mgrwt>
</event>
<event>
12    3  0.1182097E-007  0.6997302E+03  0.7818608E-02  0.9717694E-01
         -2   -1    0    0    0  501 -0.00000000000E+00  0.00000000000E+00  0.69343190199E+03  0.69343190199E+03  0.00000000000E+00 0.  1.
          1   -1    0    0  501    0  0.00000000000E+00 -0.00000000000E+00 -0.10170850653E+04  0.10170850653E+04  0.00000000000E+00 0. -1.
        -24    2    1    2    0    0 -0.40865970106E+03 -0.55681639956E+03  0.10018803561E+03  0.70225172008E+03  0.77926771958E+02 0.  0.
    5000000    2    1    2    0    0  0.40865970106E+03  0.55681639956E+03 -0.42384119895E+03  0.10082652472E+04  0.59992515597E+03 0.  0.
        -24    2    4    4    0    0  0.21681027476E+03  0.21328308479E+03 -0.50861937167E+03  0.59788076319E+03  0.79191996149E+02 0.  0.
         24    2    4    4    0    0  0.19184942631E+03  0.34353331477E+03  0.84778172722E+02  0.41038448405E+03  0.80042147943E+02 0.  0.
         11    1    3    3    0    0 -0.74693062029E+02 -0.14672171259E+03  0.39359384946E+01  0.16468699424E+03  0.00000000000E+00 0. -1.
        -12    1    3    3    0    0 -0.33396663903E+03 -0.41009468697E+03  0.96252097115E+02  0.53756472584E+03  0.00000000000E+00 0.  1.
         15    1    5    5    0    0  0.43004823578E+02  0.83973077778E+02 -0.19608484450E+03  0.21760817221E+03  0.17770000000E+01 0. -1.
        -16    1    5    5    0    0  0.17380545118E+03  0.12931000701E+03 -0.31253452718E+03  0.38027259098E+03  0.00000000000E+00 0.  1.
          2    1    6    6  502    0  0.12459049877E+03  0.18847800597E+03  0.84927443625E+02  0.24136988586E+03  0.00000000000E+00 0. -1.
         -1    1    6    6    0  502  0.67258927539E+02  0.15505530880E+03 -0.14927090226E+00  0.16901459819E+03  0.00000000000E+00 0.  1.
<mgrwt>
<rscale>  0 0.69973024E+03</rscale>
<asrwt>0</asrwt>
<pdfrwt beam="1">  1        1 0.15647463E+00 0.69973024E+03</pdfrwt>
<pdfrwt beam="2">  1       -2 0.10668183E+00 0.69973024E+03</pdfrwt>
<totfact> 0.93832722E+00</totfact>
</mgrwt>
</event>
<event>
12    3  0.1182097E-007  0.5941509E+03  0.7818608E-02  0.9917616E-01
          1   -1    0    0  501    0  0.00000000000E+00  0.00000000000E+00  0.52554736975E+03  0.52554736975E+03  0.00000000000E+00 0. -1.
         -2   -1    0    0    0  501 -0.00000000000E+00 -0.00000000000E+00 -0.82015369152E+03  0.82015369152E+03  0.00000000000E+00 0.  1.
        -24    2    1    2    0    0 -0.45571202364E+03 -0.16228618132E+03  0.66439055131E+02  0.49456751670E+03  0.78566070247E+02 0.  0.
    5000000    2    1    2    0    0  0.45571202364E+03  0.16228618132E+03 -0.36104537690E+03  0.85113354457E+03  0.60005357542E+03 0.  0.
        -24    2    4    4    0    0  0.54255800819E+03  0.55968975907E+02 -0.12352024613E+03  0.56498885550E+03  0.80333287770E+02 0.  0.
         24    2    4    4    0    0 -0.86845984555E+02  0.10631720541E+03 -0.23752513077E+03  0.28614468906E+03  0.81332786329E+02 0.  0.
         11    1    3    3    0    0 -0.25196660489E+03 -0.50863228276E+02  0.20680048640E+02  0.25787962770E+03  0.00000000000E+00 0. -1.
        -12    1    3    3    0    0 -0.20374541875E+03 -0.11142295304E+03  0.45759006491E+02  0.23668788900E+03  0.00000000000E+00 0.  1.
         15    1    5    5    0    0  0.15669504840E+03 -0.60354879578E+01 -0.61904536105E+01  0.15694344444E+03  0.17770000000E+01 0. -1.
        -16    1    5    5    0    0  0.38586295979E+03  0.62004463865E+02 -0.11732979252E+03  0.40804541106E+03  0.00000000000E+00 0.  1.
          2    1    6    6  502    0 -0.28818724750E+02 -0.16045327923E+01 -0.16031061727E+02  0.33016486212E+02  0.00000000000E+00 0. -1.
         -1    1    6    6    0  502 -0.58027259805E+02  0.10792173820E+03 -0.22149406904E+03  0.25312820285E+03  0.00000000000E+00 0.  1.
<mgrwt>
<rscale>  0 0.59415095E+03</rscale>
<asrwt>0</asrwt>
<pdfrwt beam="1">  1        1 0.80853442E-01 0.59415095E+03</pdfrwt>
<pdfrwt beam="2">  1       -2 0.12617749E+00 0.59415095E+03</pdfrwt>
<totfact> 0.17535671E+01</totfact>
</mgrwt>
</event>
<event>
12    3  0.1182097E-007  0.6212972E+03  0.7818608E-02  0.9862180E-01
         -2   -1    0    0    0  501 -0.00000000000E+00  0.00000000000E+00  0.28959877053E+03  0.28959877053E+03  0.00000000000E+00 0.  1.
          1   -1    0    0  501    0  0.00000000000E+00 -0.00000000000E+00 -0.14859033821E+04  0.14859033821E+04  0.00000000000E+00 0. -1.
        -24    2    1    2    0    0 -0.50535027644E+03  0.16614992611E+02 -0.60786705594E+03  0.79460411521E+03  0.78983430777E+02 0.  0.
    5000000    2    1    2    0    0  0.50535027644E+03 -0.16614992611E+02 -0.58843755567E+03  0.98089803745E+03  0.60020600054E+03 0.  0.
        -24    2    4    4    0    0  0.12540779266E+02 -0.19722674868E+03 -0.38487758873E+02  0.21651811344E+03  0.79643733749E+02 0.  0.
         24    2    4    4    0    0  0.49280949717E+03  0.18061175607E+03 -0.54994979680E+03  0.76437992401E+03  0.79687403646E+02 0.  0.
         11    1    3    3    0    0 -0.13752477358E+03 -0.19530696371E+02 -0.12787031663E+03  0.18879970690E+03  0.00000000000E+00 0. -1.
        -12    1    3    3    0    0 -0.36782550285E+03  0.36145688982E+02 -0.47999673931E+03  0.60580440831E+03  0.00000000000E+00 0.  1.
         15    1    5    5    0    0 -0.20384905973E+02 -0.72592974984E+02 -0.44314445663E+02  0.87476923997E+02  0.17770000000E+01 0. -1.
        -16    1    5    5    0    0  0.32925685239E+02 -0.12463377370E+03  0.58266867900E+01  0.12904118945E+03  0.00000000000E+00 0.  1.
          2    1    6    6  502    0  0.21515645125E+03  0.41169600361E+02 -0.20319843344E+03  0.29879229887E+03  0.00000000000E+00 0. -1.
         -1    1    6    6    0  502  0.27765304592E+03  0.13944215571E+03 -0.34675136336E+03  0.46558762514E+03  0.00000000000E+00 0.  1.
<mgrwt>
<rscale>  0 0.62129724E+03</rscale>
<asrwt>0</asrwt>
<pdfrwt beam="1">  1        1 0.22860053E+00 0.62129724E+03</pdfrwt>
<pdfrwt beam="2">  1       -2 0.44553656E-01 0.62129724E+03</pdfrwt>
<totfact> 0.29326394E+01</totfact>
</mgrwt>
</event>
<event>
12    3  0.1182097E-007  0.8031160E+03  0.7818608E-02  0.9555518E-01
          3   -1    0    0  501    0  0.00000000000E+00  0.00000000000E+00  0.39358200568E+03  0.39358200568E+03  0.00000000000E+00 0. -1.
         -4   -1    0    0    0  501 -0.00000000000E+00 -0.00000000000E+00 -0.16667471842E+04  0.16667471842E+04  0.00000000000E+00 0.  1.
        -24    2    1    2    0    0  0.59763221721E+03  0.35317825884E+03 -0.61549556753E+03  0.93143585490E+03  0.82697089353E+02 0.  0.
    5000000    2    1    2    0    0 -0.59763221721E+03 -0.35317825884E+03 -0.65766961101E+03  0.11288933350E+04  0.59997641204E+03 0.  0.
        -24    2    4    4    0    0  0.18163371064E+02 -0.28083495404E+03 -0.22570871128E+03  0.36886874416E+03  0.76951599146E+02 0.  0.
         24    2    4    4    0    0 -0.61579558827E+03 -0.72343304797E+02 -0.43196089973E+03  0.76002459085E+03  0.81298213446E+02 0.  0.
         13    1    3    3    0    0  0.47762189102E+03  0.24807458008E+03 -0.44966078973E+03  0.70132623927E+03  0.00000000000E+00 0. -1.
        -14    1    3    3    0    0  0.12001032619E+03  0.10510367876E+03 -0.16583477780E+03  0.23010961564E+03  0.00000000000E+00 0.  1.
         15    1    5    5    0    0 -0.90662700728E+01 -0.96582825795E+02 -0.37323463372E+02  0.10395498131E+03  0.17770000000E+01 0. -1.
        -16    1    5    5    0    0  0.27229641137E+02 -0.18425212825E+03 -0.18838524790E+03  0.26491376285E+03  0.00000000000E+00 0.  1.
          2    1    6    6  502    0 -0.13623128385E+03  0.17385677621E+02 -0.10096347120E+03  0.17045482394E+03  0.00000000000E+00 0. -1.
         -1    1    6    6    0  502 -0.47956430442E+03 -0.89728982418E+02 -0.33099742853E+03  0.58956976691E+03  0.00000000000E+00 0.  1.
<mgrwt>
<rscale>  0 0.80311601E+03</rscale>
<asrwt>0</asrwt>
<pdfrwt beam="1">  1        3 0.60551078E-01 0.80311601E+03</pdfrwt>
<pdfrwt beam="2">  1       -4 0.25642264E+00 0.80311601E+03</pdfrwt>
<totfact> 0.35064430E-01</totfact>
</mgrwt>
</event>
<event>
12    3  0.1182097E-007  0.9493761E+03  0.7818608E-02  0.9365880E-01
          1   -1    0    0  501    0  0.00000000000E+00  0.00000000000E+00  0.24669476725E+04  0.24669476725E+04  0.00000000000E+00 0. -1.
         -2   -1    0    0    0  501 -0.00000000000E+00 -0.00000000000E+00 -0.37073051189E+03  0.37073051189E+03  0.00000000000E+00 0.  1.
        -24    2    1    2    0    0  0.73807084540E+03 -0.43785021408E+03  0.85559358230E+03  0.12143425069E+04  0.78268532207E+02 0.  0.
    5000000    2    1    2    0    0 -0.73807084540E+03  0.43785021408E+03  0.12406235783E+04  0.16233356775E+04  0.59967530886E+03 0.  0.
        -24    2    4    4    0    0 -0.56712979951E+03  0.57616391538E+03  0.94224437398E+03  0.12442192884E+04  0.81584989362E+02 0.  0.
         24    2    4    4    0    0 -0.17094104588E+03 -0.13831370130E+03  0.29837920434E+03  0.37911638911E+03  0.79671612107E+02 0.  0.
         13    1    3    3    0    0  0.11678952513E+03 -0.42147639173E+02  0.10375526499E+03  0.16180658725E+03  0.00000000000E+00 0. -1.
        -14    1    3    3    0    0  0.62128132027E+03 -0.39570257491E+03  0.75183831731E+03  0.10525359196E+04  0.00000000000E+00 0.  1.
         15    1    5    5    0    0 -0.12507312170E+03  0.11057247157E+03  0.14949816571E+03  0.22410358435E+03  0.17770000000E+01 0. -1.
        -16    1    5    5    0    0 -0.44205667782E+03  0.46559144381E+03  0.79274620826E+03  0.10201157041E+04  0.00000000000E+00 0.  1.
          4    1    6    6  502    0 -0.22005385759E+02 -0.52995610493E+02  0.44295950225E+02  0.72490709337E+02  0.00000000000E+00 0. -1.
         -3    1    6    6    0  502 -0.14893566012E+03 -0.85318090805E+02  0.25408325411E+03  0.30662567977E+03  0.00000000000E+00 0.  1.
<mgrwt>
<rscale>  0 0.94937606E+03</rscale>
<asrwt>0</asrwt>
<pdfrwt beam="1">  1        1 0.37953040E+00 0.94937606E+03</pdfrwt>
<pdfrwt beam="2">  1       -2 0.57035465E-01 0.94937606E+03</pdfrwt>
<totfact> 0.36954824E+00</totfact>
</mgrwt>
</event>
<event>
12    3  0.1182097E-007  0.5882756E+03  0.7818608E-02  0.9930033E-01
          1   -1    0    0  501    0  0.00000000000E+00  0.00000000000E+00  0.32451623464E+04  0.32451623464E+04  0.00000000000E+00 0. -1.
         -2   -1    0    0    0  501 -0.00000000000E+00 -0.00000000000E+00 -0.11542912823E+03  0.11542912823E+03  0.00000000000E+00 0.  1.
        -24    2    1    2    0    0 -0.12590006397E+03 -0.43339347842E+03  0.93846975809E+03  0.10444466904E+04  0.80390726741E+02 0.  0.
    5000000    2    1    2    0    0  0.12590006397E+03  0.43339347842E+03  0.21912634600E+04  0.23161447842E+04  0.59934161953E+03 0.  0.
        -24    2    4    4    0    0  0.25856265150E+03  0.40812116686E+01  0.11056055257E+04  0.11383551265E+04  0.81348107119E+02 0.  0.
         24    2    4    4    0    0 -0.13266258753E+03  0.42931226675E+03  0.10856579344E+04  0.11777896577E+04  0.81406037316E+02 0.  0.
         13    1    3    3    0    0 -0.65332530893E+02 -0.34013022687E+03  0.73694623909E+03  0.81427677735E+03  0.00000000000E+00 0. -1.
        -14    1    3    3    0    0 -0.60567533074E+02 -0.93263251546E+02  0.20152351900E+03  0.23016991302E+03  0.00000000000E+00 0.  1.
         15    1    5    5    0    0  0.18245666800E+03  0.36233770046E+02  0.83222289242E+03  0.85276105808E+03  0.17770000000E+01 0. -1.
        -16    1    5    5    0    0  0.76105983497E+02 -0.32152558378E+02  0.27338263325E+03  0.28559406838E+03  0.00000000000E+00 0.  1.
          2    1    6    6  502    0 -0.12052117995E+03  0.35126903491E+03  0.96050259611E+03  0.10297963521E+04  0.00000000000E+00 0. -1.
         -1    1    6    6    0  502 -0.12141407583E+02  0.78043231844E+02  0.12515533826E+03  0.14799330562E+03  0.00000000000E+00 0.  1.
<mgrwt>
<rscale>  0 0.58827564E+03</rscale>
<asrwt>0</asrwt>
<pdfrwt beam="1">  1        1 0.49925568E+00 0.58827564E+03</pdfrwt>
<pdfrwt beam="2">  1       -2 0.17758330E-01 0.58827564E+03</pdfrwt>
<totfact> 0.99815635E+00</totfact>
</mgrwt>
</event>
<event>
12    3  0.1182097E-007  0.5600470E+03  0.7818608E-02  0.9991948E-01
          1   -1    0    0  501    0  0.00000000000E+00  0.00000000000E+00  0.20342384796E+04  0.20342384796E+04  0.00000000000E+00 0. -1.
         -2   -1    0    0    0  501 -0.00000000000E+00 -0.00000000000E+00 -0.17542866075E+03  0.17542866075E+03  0.00000000000E+00 0.  1.
        -24    2    1    2    0    0  0.20683263050E+03 -0.39074524409E+03  0.66994173611E+03  0.80649660889E+03  0.78442766066E+02 0.  0.
    5000000    2    1    2    0    0 -0.20683263050E+03  0.39074524409E+03  0.11888680828E+04  0.14031705315E+04  0.60001553263E+03 0.  0.
        -24    2    4    4    0    0 -0.17328767005E+03  0.51025225656E+03  0.11034841884E+04  0.12306517013E+04  0.80251318470E+02 0.  0.
         24    2    4    4    0    0 -0.33544960452E+02 -0.11950701247E+03  0.85383894434E+02  0.17251883018E+03  0.84054428405E+02 0.  0.
         13    1    3    3    0    0  0.15810005376E+03 -0.22709375395E+03  0.38116304107E+03  0.47101216965E+03  0.00000000000E+00 0. -1.
        -14    1    3    3    0    0  0.48732576736E+02 -0.16365149014E+03  0.28877869504E+03  0.33548443924E+03  0.00000000000E+00 0.  1.
         15    1    5    5    0    0 -0.62088528546E+02  0.13811566260E+03  0.23920727000E+03  0.28311516629E+03  0.17770000000E+01 0. -1.
        -16    1    5    5    0    0 -0.11119914150E+03  0.37213659397E+03  0.86427691835E+03  0.94753653504E+03  0.00000000000E+00 0.  1.
          4    1    6    6  502    0 -0.19877429555E+02 -0.96540580843E+01 -0.11942419643E+02  0.25118408193E+02  0.00000000000E+00 0. -1.
         -3    1    6    6    0  502 -0.13667530897E+02 -0.10985295439E+03  0.97326314077E+02  0.14740042198E+03  0.00000000000E+00 0.  1.
<mgrwt>
<rscale>  0 0.56004704E+03</rscale>
<asrwt>0</asrwt>
<pdfrwt beam="1">  1        1 0.31295975E+00 0.56004704E+03</pdfrwt>
<pdfrwt beam="2">  1       -2 0.26989026E-01 0.56004704E+03</pdfrwt>
<totfact> 0.32916355E+01</totfact>
</mgrwt>
</event>
<event>
12    3  0.1182097E-007  0.5620017E+03  0.7818608E-02  0.9987536E-01
         -2   -1    0    0    0  501 -0.00000000000E+00  0.00000000000E+00  0.84546380527E+03  0.84546380527E+03  0.00000000000E+00 0.  1.
          1   -1    0    0  501    0  0.00000000000E+00 -0.00000000000E+00 -0.19683355993E+04  0.19683355993E+04  0.00000000000E+00 0. -1.
        -24    2    1    2    0    0 -0.33498079016E+03  0.43792670924E+03 -0.17170286248E+04  0.18052131759E+04  0.81334984432E+02 0.  0.
    5000000    2    1    2    0    0  0.33498079016E+03 -0.43792670924E+03  0.59415683078E+03  0.10085862286E+04  0.60019322605E+03 0.  0.
        -24    2    4    4    0    0  0.10307790109E+03 -0.68197883159E+02  0.54247344694E+03  0.56194662979E+03  0.78933954242E+02 0.  0.
         24    2    4    4    0    0  0.23190288907E+03 -0.36972882608E+03  0.51683383838E+02  0.44663959885E+03  0.79607815586E+02 0.  0.
         11    1    3    3    0    0 -0.12018792987E+03  0.11836105722E+03 -0.62169153833E+03  0.64416989000E+03  0.00000000000E+00 0. -1.
        -12    1    3    3    0    0 -0.21479286029E+03  0.31956565202E+03 -0.10953370865E+04  0.11610432859E+04  0.00000000000E+00 0.  1.
         15    1    5    5    0    0  0.64189598646E+02 -0.58760000726E+02  0.47948592411E+03  0.48732222544E+03  0.17770000000E+01 0. -1.
        -16    1    5    5    0    0  0.38888302443E+02 -0.94378824326E+01  0.62987522835E+02  0.74624404350E+02  0.00000000000E+00 0.  1.
          2    1    6    6  502    0  0.16316429348E+03 -0.31720230090E+03  0.49288574787E+02  0.36009616767E+03  0.00000000000E+00 0. -1.
         -1    1    6    6    0  502  0.68738595585E+02 -0.52526525185E+02  0.23948090506E+01  0.86543431186E+02  0.00000000000E+00 0.  1.
<mgrwt>
<rscale>  0 0.56200174E+03</rscale>
<asrwt>0</asrwt>
<pdfrwt beam="1">  1        1 0.30282086E+00 0.56200174E+03</pdfrwt>
<pdfrwt beam="2">  1       -2 0.13007135E+00 0.56200174E+03</pdfrwt>
<totfact> 0.12972929E+00</totfact>
</mgrwt>
</event>
<event>
12    3  0.1182097E-007  0.7906597E+03  0.7818608E-02  0.9573636E-01
         -2   -1    0    0    0  501 -0.00000000000E+00  0.00000000000E+00  0.36423187834E+03  0.36423187834E+03  0.00000000000E+00 0.  1.
          1   -1    0    0  501    0  0.00000000000E+00 -0.00000000000E+00 -0.23024410913E+04  0.23024410913E+04  0.00000000000E+00 0. -1.
        -24    2    1    2    0    0  0.42001547025E+03 -0.65168660255E+03 -0.49954585570E+03  0.92573132255E+03  0.79523558835E+02 0.  0.
    5000000    2    1    2    0    0 -0.42001547025E+03  0.65168660255E+03 -0.14386633573E+04  0.17409416471E+04  0.60001428308E+03 0.  0.
        -24    2    4    4    0    0 -0.36183753368E+03  0.39496431715E+03 -0.41956138075E+03  0.68504950926E+03  0.79610711091E+02 0.  0.
         24    2    4    4    0    0 -0.58177936571E+02  0.25672228540E+03 -0.10191019765E+04  0.10558921379E+04  0.83954535896E+02 0.  0.
         11    1    3    3    0    0  0.69947504560E+02 -0.16455917339E+03 -0.98402959476E+02  0.20409683333E+03  0.00000000000E+00 0. -1.
        -12    1    3    3    0    0  0.35006796569E+03 -0.48712742916E+03 -0.40114289622E+03  0.72163448922E+03  0.00000000000E+00 0.  1.
         15    1    5    5    0    0 -0.11294176833E+03  0.84738440729E+02 -0.14039936354E+03  0.19912705839E+03  0.17770000000E+01 0. -1.
        -16    1    5    5    0    0 -0.24889576535E+03  0.31022587642E+03 -0.27916201722E+03  0.48592245088E+03  0.00000000000E+00 0.  1.
          4    1    6    6  502    0 -0.13787393657E+02  0.35691170355E+02 -0.29595887167E+03  0.29842185843E+03  0.00000000000E+00 0. -1.
         -1    1    6    6    0  502 -0.44390542914E+02  0.22103111504E+03 -0.72314310486E+03  0.75747027943E+03  0.00000000000E+00 0.  1.
<mgrwt>
<rscale>  0 0.79065970E+03</rscale>
<asrwt>0</asrwt>
<pdfrwt beam="1">  1        1 0.35422170E+00 0.79065970E+03</pdfrwt>
<pdfrwt beam="2">  1       -2 0.56035674E-01 0.79065970E+03</pdfrwt>
<totfact> 0.50778579E+00</totfact>
</mgrwt>
</event>
<event>
12    3  0.1182097E-007  0.1725723E+04  0.7818608E-02  0.8746828E-01
          1   -1    0    0  501    0  0.00000000000E+00  0.00000000000E+00  0.22630853859E+04  0.22630853859E+04  0.00000000000E+00 0. -1.
         -2   -1    0    0    0  501 -0.00000000000E+00 -0.00000000000E+00 -0.16703916900E+04  0.16703916900E+04  0.00000000000E+00 0.  1.
        -24    2    1    2    0    0 -0.83664803938E+03 -0.14909587099E+04  0.11212796577E+04  0.20460846841E+04  0.79098970887E+02 0.  0.
    5000000    2    1    2    0    0  0.83664803938E+03  0.14909587099E+04 -0.52858596190E+03  0.18873923918E+04  0.59992424926E+03 0.  0.
        -24    2    4    4    0    0  0.32455930484E+03  0.31496400578E+03 -0.37562962704E+03  0.59323846828E+03  0.79329668051E+02 0.  0.
         24    2    4    4    0    0  0.51208873453E+03  0.11759947042E+04 -0.15295633486E+03  0.12941539235E+04  0.78995702896E+02 0.  0.
         11    1    3    3    0    0 -0.44998896186E+03 -0.82991916881E+03  0.66304980334E+03  0.11536424638E+04  0.00000000000E+00 0. -1.
        -12    1    3    3    0    0 -0.38665907751E+03 -0.66103954114E+03  0.45822985440E+03  0.89244222033E+03  0.00000000000E+00 0.  1.
         15    1    5    5    0    0  0.26356138840E+02  0.62330755851E+02 -0.66938716975E+02  0.95203564738E+02  0.17770000000E+01 0. -1.
        -16    1    5    5    0    0  0.29820316600E+03  0.25263324993E+03 -0.30869091006E+03  0.49803490354E+03  0.00000000000E+00 0.  1.
          2    1    6    6  502    0  0.39771524933E+03  0.87950803763E+03 -0.14649719110E+03  0.97630591251E+03  0.00000000000E+00 0. -1.
         -1    1    6    6    0  502  0.11437348520E+03  0.29648666653E+03 -0.64591437553E+01  0.31784801098E+03  0.00000000000E+00 0.  1.
<mgrwt>
<rscale>  0 0.17257225E+04</rscale>
<asrwt>0</asrwt>
<pdfrwt beam="1">  1        1 0.34816698E+00 0.17257225E+04</pdfrwt>
<pdfrwt beam="2">  1       -2 0.25698334E+00 0.17257225E+04</pdfrwt>
<totfact> 0.92229412E-02</totfact>
</mgrwt>
</event>
<event>
12    3  0.1220577E-007  0.1579801E+04  0.7818608E-02  0.8833054E-01
          1   -1    0    0  501    0  0.00000000000E+00  0.00000000000E+00  0.13146506955E+04  0.13146506955E+04  0.00000000000E+00 0. -1.
         -2   -1    0    0    0  501 -0.00000000000E+00 -0.00000000000E+00 -0.20092046694E+04  0.20092046694E+04  0.00000000000E+00 0.  1.
        -24    2    1    2    0    0 -0.15197717164E+04 -0.15205089834E+03 -0.70172673537E+03  0.16828274021E+04  0.81621739948E+02 0.  0.
    5000000    2    1    2    0    0  0.15197717164E+04  0.15205089834E+03  0.71727614561E+01  0.16410279628E+04  0.60007981193E+03 0.  0.
        -24    2    4    4    0    0  0.10425474959E+04 -0.16034017939E+03 -0.66952845758E+02  0.10602204868E+04  0.83489775661E+02 0.  0.
         24    2    4    4    0    0  0.47722422047E+03  0.31239107773E+03  0.74125607214E+02  0.58080747606E+03  0.80694340320E+02 0.  0.
         13    1    3    3    0    0 -0.65662944295E+03 -0.41941385594E+02 -0.26616904861E+03  0.70976564274E+03  0.00000000000E+00 0. -1.
        -14    1    3    3    0    0 -0.86314227345E+03 -0.11010951274E+03 -0.43555768676E+03  0.97306175935E+03  0.00000000000E+00 0.  1.
         15    1    5    5    0    0  0.46388431984E+03 -0.44895385730E+02 -0.61772976429E+02  0.47013116914E+03  0.17770000000E+01 0. -1.
        -16    1    5    5    0    0  0.57866317609E+03 -0.11544479366E+03 -0.51798693294E+01  0.59008931764E+03  0.00000000000E+00 0.  1.
          2    1    6    6  502    0  0.17354358280E+03  0.71256985010E+02  0.10950864039E+02  0.18792246930E+03  0.00000000000E+00 0. -1.
         -1    1    6    6    0  502  0.30368063767E+03  0.24113409272E+03  0.63174743175E+02  0.39288500677E+03  0.00000000000E+00 0.  1.
<mgrwt>
<rscale>  0 0.15798011E+04</rscale>
<asrwt>0</asrwt>
<pdfrwt beam="1">  1        1 0.20225395E+00 0.15798011E+04</pdfrwt>
<pdfrwt beam="2">  1       -2 0.30910841E+00 0.15798011E+04</pdfrwt>
<totfact> 0.20267790E-01</totfact>
</mgrwt>
</event>
<event>
12    3  0.1182097E-007  0.8770133E+03  0.7818608E-02  0.9454781E-01
         -2   -1    0    0    0  501 -0.00000000000E+00  0.00000000000E+00  0.59405034719E+03  0.59405034719E+03  0.00000000000E+00 0.  1.
          1   -1    0    0  501    0  0.00000000000E+00 -0.00000000000E+00 -0.22137390426E+04  0.22137390426E+04  0.00000000000E+00 0. -1.
        -24    2    1    2    0    0 -0.85615643145E+03  0.11150628702E+03  0.11235106112E+02  0.86714695548E+03  0.79875701166E+02 0.  0.
    5000000    2    1    2    0    0  0.85615643145E+03 -0.11150628702E+03 -0.16309238015E+04  0.19406424343E+04  0.60061895102E+03 0.  0.
        -24    2    4    4    0    0  0.12543946311E+03  0.23606978890E+01 -0.18562137269E+01  0.14968071215E+03  0.81610282819E+02 0.  0.
         24    2    4    4    0    0  0.73071696835E+03 -0.11386698491E+03 -0.16290675878E+04  0.17909617222E+04  0.82278226532E+02 0.  0.
         13    1    3    3    0    0 -0.68300283377E+03  0.56985984088E+02  0.15744985371E+02  0.68555683782E+03  0.00000000000E+00 0. -1.
        -14    1    3    3    0    0 -0.17315359768E+03  0.54520302932E+02 -0.45098792595E+01  0.18159011766E+03  0.00000000000E+00 0.  1.
         15    1    5    5    0    0  0.11027323110E+03  0.27708599790E+02  0.16495890451E+02  0.11490528330E+03  0.17770000000E+01 0. -1.
        -16    1    5    5    0    0  0.15166232007E+02 -0.25347901901E+02 -0.18352104178E+02  0.34775428852E+02  0.00000000000E+00 0.  1.
          2    1    6    6  502    0  0.32999653911E+03 -0.11139906337E+02 -0.74556449243E+03  0.81540678542E+03  0.00000000000E+00 0. -1.
         -1    1    6    6    0  502  0.40072042924E+03 -0.10272707857E+03 -0.88350309537E+03  0.97555493674E+03  0.00000000000E+00 0.  1.
<mgrwt>
<rscale>  0 0.87701329E+03</rscale>
<asrwt>0</asrwt>
<pdfrwt beam="1">  1        1 0.34057524E+00 0.87701329E+03</pdfrwt>
<pdfrwt beam="2">  1       -2 0.91392360E-01 0.87701329E+03</pdfrwt>
<totfact> 0.19613582E+00</totfact>
</mgrwt>
</event>
<event>
12    3  0.1182097E-007  0.5164128E+03  0.7818608E-02  0.1009582E+00
          1   -1    0    0  501    0  0.00000000000E+00  0.00000000000E+00  0.20693101274E+04  0.20693101274E+04  0.00000000000E+00 0. -1.
         -2   -1    0    0    0  501 -0.00000000000E+00 -0.00000000000E+00 -0.20593661490E+03  0.20593661490E+03  0.00000000000E+00 0.  1.
        -24    2    1    2    0    0 -0.33118014624E+03 -0.16086572202E+03  0.13565156366E+04  0.14078415767E+04  0.79530891644E+02 0.  0.
    5000000    2    1    2    0    0  0.33118014624E+03  0.16086572202E+03  0.50685787590E+03  0.86740516568E+03  0.59994061814E+03 0.  0.
        -24    2    4    4    0    0 -0.16110765578E+02  0.27857176469E+03  0.36966164656E+03  0.46778549113E+03  0.65663901224E+02 0.  0.
         24    2    4    4    0    0  0.34729091182E+03 -0.11770604267E+03  0.13719622933E+03  0.39961967454E+03  0.80046168088E+02 0.  0.
         11    1    3    3    0    0 -0.14566268597E+03 -0.40207869948E+02  0.65702071680E+03  0.67417394876E+03  0.00000000000E+00 0. -1.
        -12    1    3    3    0    0 -0.18551746027E+03 -0.12065785207E+03  0.69949491985E+03  0.73366762790E+03  0.00000000000E+00 0.  1.
         15    1    5    5    0    0  0.25576016315E+02  0.98724782602E+02  0.13553067111E+03  0.16962439639E+03  0.17770000000E+01 0. -1.
        -16    1    5    5    0    0 -0.41686781893E+02  0.17984698209E+03  0.23413097545E+03  0.29816109474E+03  0.00000000000E+00 0.  1.
          4    1    6    6  502    0  0.27661898466E+03 -0.61187238867E+02  0.11917082724E+03  0.30734935649E+03  0.00000000000E+00 0. -1.
         -3    1    6    6    0  502  0.70671927165E+02 -0.56518803803E+02  0.18025402091E+02  0.92270318050E+02  0.00000000000E+00 0.  1.
<mgrwt>
<rscale>  0 0.51641281E+03</rscale>
<asrwt>0</asrwt>
<pdfrwt beam="1">  1        1 0.31835539E+00 0.51641281E+03</pdfrwt>
<pdfrwt beam="2">  1       -2 0.31682558E-01 0.51641281E+03</pdfrwt>
<totfact> 0.23417463E+01</totfact>
</mgrwt>
</event>
<event>
12    3  0.1182097E-007  0.7465989E+03  0.7818608E-02  0.9640701E-01
         -2   -1    0    0    0  501 -0.00000000000E+00  0.00000000000E+00  0.54532210549E+03  0.54532210549E+03  0.00000000000E+00 0.  1.
          1   -1    0    0  501    0  0.00000000000E+00 -0.00000000000E+00 -0.12057585628E+04  0.12057585628E+04  0.00000000000E+00 0. -1.
        -24    2    1    2    0    0 -0.61342097711E+03  0.28091378917E+03 -0.94537132167E+02  0.68571678981E+03  0.77925569379E+02 0.  0.
    5000000    2    1    2    0    0  0.61342097711E+03 -0.28091378917E+03 -0.56589932517E+03  0.10653638785E+04  0.59963346747E+03 0.  0.
        -24    2    4    4    0    0 -0.92088176966E+01 -0.17555049266E+03 -0.34375392166E+03  0.39115898741E+03  0.62736089874E+02 0.  0.
         24    2    4    4    0    0  0.62262979480E+03 -0.10536329651E+03 -0.22214540351E+03  0.67420489111E+03  0.80214520266E+02 0.  0.
         13    1    3    3    0    0 -0.68935861541E+02  0.10999383793E+02 -0.24484853043E+02  0.73977344361E+02  0.00000000000E+00 0. -1.
        -14    1    3    3    0    0 -0.54448511557E+03  0.26991440537E+03 -0.70052279124E+02  0.61173944544E+03  0.00000000000E+00 0.  1.
         15    1    5    5    0    0  0.63501334507E+01 -0.60114875164E+01 -0.56829005076E+02  0.57525261615E+02  0.17770000000E+01 0. -1.
        -16    1    5    5    0    0 -0.15558951147E+02 -0.16953900514E+03 -0.28692491659E+03  0.33363372579E+03  0.00000000000E+00 0.  1.
          4    1    6    6  502    0  0.34952732059E+03 -0.18901226127E+02 -0.12660544441E+03  0.37223049679E+03  0.00000000000E+00 0. -1.
         -1    1    6    6    0  502  0.27310247422E+03 -0.86462070379E+02 -0.95539959101E+02  0.30197439432E+03  0.00000000000E+00 0.  1.
<mgrwt>
<rscale>  0 0.74659894E+03</rscale>
<asrwt>0</asrwt>
<pdfrwt beam="1">  1        1 0.18550131E+00 0.74659894E+03</pdfrwt>
<pdfrwt beam="2">  1       -2 0.83895710E-01 0.74659894E+03</pdfrwt>
<totfact> 0.11837787E+01</totfact>
</mgrwt>
</event>
<event>
12    3  0.1182097E-007  0.4711695E+03  0.7818608E-02  0.1021591E+00
         -2   -1    0    0    0  501 -0.00000000000E+00  0.00000000000E+00  0.25587633395E+03  0.25587633395E+03  0.00000000000E+00 0.  1.
          1   -1    0    0  501    0  0.00000000000E+00 -0.00000000000E+00 -0.10220283822E+04  0.10220283822E+04  0.00000000000E+00 0. -1.
        -24    2    1    2    0    0 -0.27182510500E+03  0.18421199381E+03 -0.22873131470E+03  0.40801193741E+03  0.79578768379E+02 0.  0.
    5000000    2    1    2    0    0  0.27182510500E+03 -0.18421199381E+03 -0.53742073351E+03  0.86989277870E+03  0.60005787658E+03 0.  0.
        -24    2    4    4    0    0  0.30095598228E+03 -0.33096294453E+03 -0.20851469226E+03  0.49983530102E+03  0.79031495811E+02 0.  0.
         24    2    4    4    0    0 -0.29130877289E+02  0.14675095072E+03 -0.32890604125E+03  0.37005747768E+03  0.79868036552E+02 0.  0.
         13    1    3    3    0    0 -0.12850796070E+03  0.13378900326E+03 -0.13597167162E+03  0.23000454091E+03  0.00000000000E+00 0. -1.
        -14    1    3    3    0    0 -0.14331714429E+03  0.50422990553E+02 -0.92759643083E+02  0.17800739650E+03  0.00000000000E+00 0.  1.
         15    1    5    5    0    0  0.12390288820E+03 -0.19325648645E+03 -0.95076230960E+02  0.24848066863E+03  0.17770000000E+01 0. -1.
        -16    1    5    5    0    0  0.17705309408E+03 -0.13770645808E+03 -0.11343846130E+03  0.25135463239E+03  0.00000000000E+00 0.  1.
          4    1    6    6  502    0 -0.32157184367E+02  0.13973924036E+03 -0.23121886703E+03  0.27207224091E+03  0.00000000000E+00 0. -1.
         -3    1    6    6    0  502  0.30263070784E+01  0.70117103615E+01 -0.97687174222E+02  0.97985236766E+02  0.00000000000E+00 0.  1.
<mgrwt>
<rscale>  0 0.47116955E+03</rscale>
<asrwt>0</asrwt>
<pdfrwt beam="1">  1        1 0.15723513E+00 0.47116955E+03</pdfrwt>
<pdfrwt beam="2">  1       -2 0.39365590E-01 0.47116955E+03</pdfrwt>
<totfact> 0.81522789E+01</totfact>
</mgrwt>
</event>
<event>
12    3  0.1182097E-007  0.6097703E+03  0.7818608E-02  0.9885341E-01
         -2   -1    0    0    0  501 -0.00000000000E+00  0.00000000000E+00  0.26620554121E+04  0.26620554121E+04  0.00000000000E+00 0.  1.
          1   -1    0    0  501    0  0.00000000000E+00 -0.00000000000E+00 -0.35953005423E+03  0.35953005423E+03  0.00000000000E+00 0. -1.
        -24    2    1    2    0    0 -0.18651053983E+03 -0.42917252223E+03  0.22037185743E+04  0.22543837887E+04  0.83039007589E+02 0.  0.
    5000000    2    1    2    0    0  0.18651053983E+03  0.42917252223E+03  0.98806783550E+02  0.76720167760E+03  0.59988365399E+03 0.  0.
        -24    2    4    4    0    0 -0.14017754080E+03  0.37852908562E+03 -0.79087948553E+01  0.41088484687E+03  0.76353105656E+02 0.  0.
         24    2    4    4    0    0  0.32668808064E+03  0.50643436604E+02  0.10671557840E+03  0.35631683073E+03  0.79269221554E+02 0.  0.
         11    1    3    3    0    0 -0.13764346626E+03 -0.35340895572E+03  0.16241531357E+04  0.16678480213E+04  0.00000000000E+00 0. -1.
        -12    1    3    3    0    0 -0.48867073571E+02 -0.75763566503E+02  0.57956543857E+03  0.58653576743E+03  0.00000000000E+00 0.  1.
         15    1    5    5    0    0 -0.96010111681E+01  0.12573699761E+03 -0.78651477940E+01  0.12636055659E+03  0.17770000000E+01 0. -1.
        -16    1    5    5    0    0 -0.13057652963E+03  0.25279208801E+03 -0.43647061353E-01  0.28452429028E+03  0.00000000000E+00 0.  1.
          4    1    6    6  502    0  0.11274888339E+03  0.55099310758E+02  0.30318448854E+02  0.12910249065E+03  0.00000000000E+00 0. -1.
         -3    1    6    6    0  502  0.21393919725E+03 -0.44558741544E+01  0.76397129551E+02  0.22721434008E+03  0.00000000000E+00 0.  1.
<mgrwt>
<rscale>  0 0.60977033E+03</rscale>
<asrwt>0</asrwt>
<pdfrwt beam="1">  1        1 0.55312318E-01 0.60977033E+03</pdfrwt>
<pdfrwt beam="2">  1       -2 0.40954698E+00 0.60977033E+03</pdfrwt>
<totfact> 0.42777757E-01</totfact>
</mgrwt>
</event>
<event>
12    3  0.1182097E-007  0.1318127E+04  0.7818608E-02  0.9015313E-01
          1   -1    0    0  501    0  0.00000000000E+00  0.00000000000E+00  0.37665321981E+04  0.37665321981E+04  0.00000000000E+00 0. -1.
         -2   -1    0    0    0  501 -0.00000000000E+00 -0.00000000000E+00 -0.48675980007E+03  0.48675980007E+03  0.00000000000E+00 0.  1.
        -24    2    1    2    0    0 -0.18336994649E+02  0.12635466401E+04  0.19377698420E+04  0.23147603990E+04  0.79229965005E+02 0.  0.
    5000000    2    1    2    0    0  0.18336994649E+02 -0.12635466401E+04  0.13420025561E+04  0.19385315991E+04  0.60003961796E+03 0.  0.
        -24    2    4    4    0    0  0.26684322059E+03 -0.65021818589E+03  0.87246267471E+03  0.11231231617E+04  0.78901989358E+02 0.  0.
         24    2    4    4    0    0 -0.24850622594E+03 -0.61332845425E+03  0.46953988136E+03  0.81540843744E+03  0.80598278702E+02 0.  0.
         11    1    3    3    0    0 -0.15550894556E+02  0.40411610747E+03  0.68655533455E+03  0.79681232799E+03  0.00000000000E+00 0. -1.
        -12    1    3    3    0    0 -0.27861000923E+01  0.85943053267E+03  0.12512145074E+04  0.15179480711E+04  0.00000000000E+00 0.  1.
         15    1    5    5    0    0  0.21364594518E+03 -0.42866746903E+03  0.57230077174E+03  0.74627858066E+03  0.17770000000E+01 0. -1.
        -16    1    5    5    0    0  0.53197275404E+02 -0.22155071686E+03  0.30016190297E+03  0.37684458103E+03  0.00000000000E+00 0.  1.
          4    1    6    6  502    0 -0.21834091933E+03 -0.45822639712E+03  0.33815245371E+03  0.60991087056E+03  0.00000000000E+00 0. -1.
         -3    1    6    6    0  502 -0.30165306606E+02 -0.15510205713E+03  0.13138742765E+03  0.20549756688E+03  0.00000000000E+00 0.  1.
<mgrwt>
<rscale>  0 0.13181270E+04</rscale>
<asrwt>0</asrwt>
<pdfrwt beam="1">  1        1 0.57946647E+00 0.13181270E+04</pdfrwt>
<pdfrwt beam="2">  1       -2 0.74886126E-01 0.13181270E+04</pdfrwt>
<totfact> 0.21220395E-01</totfact>
</mgrwt>
</event>
<event>
12    3  0.1182097E-007  0.1216043E+04  0.7818608E-02  0.9098929E-01
         -2   -1    0    0    0  501 -0.00000000000E+00  0.00000000000E+00  0.19506809784E+04  0.19506809784E+04  0.00000000000E+00 0.  1.
          1   -1    0    0  501    0  0.00000000000E+00 -0.00000000000E+00 -0.82022417991E+03  0.82022417991E+03  0.00000000000E+00 0. -1.
        -24    2    1    2    0    0 -0.60255763488E+03 -0.10255727025E+04  0.62635931272E+03  0.13465717600E+04  0.77810311795E+02 0.  0.
    5000000    2    1    2    0    0  0.60255763488E+03  0.10255727025E+04  0.50409748578E+03  0.14243333984E+04  0.59978019559E+03 0.  0.
        -24    2    4    4    0    0  0.14427489339E+03  0.59242443165E+03  0.18375822706E+01  0.61491165903E+03  0.79567704621E+02 0.  0.
         24    2    4    4    0    0  0.45828274149E+03  0.43314827085E+03  0.50225990351E+03  0.80942173933E+03  0.72512383306E+02 0.  0.
         11    1    3    3    0    0 -0.10028378884E+03 -0.21665469714E+03  0.10254976193E+03  0.25983177205E+03  0.00000000000E+00 0. -1.
        -12    1    3    3    0    0 -0.50227384604E+03 -0.80891800537E+03  0.52380955080E+03  0.10867399879E+04  0.00000000000E+00 0.  1.
         15    1    5    5    0    0  0.69601495078E+02  0.30211665369E+03 -0.38637015047E+02  0.31243370051E+03  0.17770000000E+01 0. -1.
        -16    1    5    5    0    0  0.74673398311E+02  0.29030777796E+03  0.40474597317E+02  0.30247795852E+03  0.00000000000E+00 0.  1.
          2    1    6    6  502    0  0.14569414471E+03  0.11776874354E+03  0.18812735589E+03  0.26549606926E+03  0.00000000000E+00 0. -1.
         -1    1    6    6    0  502  0.31258859679E+03  0.31537952732E+03  0.31413254761E+03  0.54392567007E+03  0.00000000000E+00 0.  1.
<mgrwt>
<rscale>  0 0.12160432E+04</rscale>
<asrwt>0</asrwt>
<pdfrwt beam="1">  1        1 0.12618834E+00 0.12160432E+04</pdfrwt>
<pdfrwt beam="2">  1       -2 0.30010476E+00 0.12160432E+04</pdfrwt>
<totfact> 0.57939526E-01</totfact>
</mgrwt>
</event>
<event>
12    3  0.1182097E-007  0.3621060E+03  0.7818608E-02  0.1057753E+00
         -2   -1    0    0    0  501 -0.00000000000E+00  0.00000000000E+00  0.19666282799E+03  0.19666282799E+03  0.00000000000E+00 0.  1.
          1   -1    0    0  501    0  0.00000000000E+00 -0.00000000000E+00 -0.11481533672E+04  0.11481533672E+04  0.00000000000E+00 0. -1.
        -24    2    1    2    0    0 -0.25804728263E+03 -0.95125755827E+02 -0.26407396372E+03  0.39181466031E+03  0.90257189324E+02 0.  0.
    5000000    2    1    2    0    0  0.25804728263E+03  0.95125755827E+02 -0.68741657550E+03  0.95300153488E+03  0.60002755580E+03 0.  0.
        -24    2    4    4    0    0 -0.66050610920E+02  0.11165723392E+02  0.63889019473E+02  0.12658198714E+03  0.86335601455E+02 0.  0.
         24    2    4    4    0    0  0.32409789355E+03  0.83960032435E+02 -0.75130559497E+03  0.82641954773E+03  0.80127649345E+02 0.  0.
         13    1    3    3    0    0 -0.11953607063E+03 -0.84076028035E+02 -0.16913335067E+03  0.22352570542E+03  0.00000000000E+00 0. -1.
        -14    1    3    3    0    0 -0.13851121200E+03 -0.11049727793E+02 -0.94940613047E+02  0.16828895489E+03  0.00000000000E+00 0.  1.
         15    1    5    5    0    0 -0.32200653443E+01 -0.29306272458E+02  0.36570517447E+02  0.47008370548E+02  0.17770000000E+01 0. -1.
        -16    1    5    5    0    0 -0.62830545575E+02  0.40471995850E+02  0.27318502026E+02  0.79573616597E+02  0.00000000000E+00 0.  1.
          4    1    6    6  502    0  0.27109569353E+03  0.68051882808E+02 -0.54077581845E+03  0.60873838356E+03  0.00000000000E+00 0. -1.
         -3    1    6    6    0  502  0.53002200019E+02  0.15908149628E+02 -0.21052977652E+03  0.21768116417E+03  0.00000000000E+00 0.  1.
<mgrwt>
<rscale>  0 0.36210596E+03</rscale>
<asrwt>0</asrwt>
<pdfrwt beam="1">  1        1 0.17663898E+00 0.36210596E+03</pdfrwt>
<pdfrwt beam="2">  1       -2 0.30255820E-01 0.36210596E+03</pdfrwt>
<totfact> 0.10965065E+02</totfact>
</mgrwt>
</event>
<event>
12    3  0.1182097E-007  0.7830843E+03  0.7818608E-02  0.9584830E-01
         -2   -1    0    0    0  501 -0.00000000000E+00  0.00000000000E+00  0.90979259502E+03  0.90979259502E+03  0.00000000000E+00 0.  1.
          1   -1    0    0  501    0  0.00000000000E+00 -0.00000000000E+00 -0.12035267237E+04  0.12035267237E+04  0.00000000000E+00 0. -1.
        -24    2    1    2    0    0  0.17715999851E+03  0.65595147432E+03 -0.81770596762E+03  0.10662064151E+04  0.80591986698E+02 0.  0.
    5000000    2    1    2    0    0 -0.17715999851E+03 -0.65595147432E+03  0.52397183893E+03  0.10471129037E+04  0.60020075248E+03 0.  0.
        -24    2    4    4    0    0 -0.18381178338E+03  0.22433026260E+02  0.22234678477E+03  0.30011881425E+03  0.79644193726E+02 0.  0.
         24    2    4    4    0    0  0.66517848703E+01 -0.67838450058E+03  0.30162505416E+03  0.74699408940E+03  0.82296533534E+02 0.  0.
         13    1    3    3    0    0  0.14176992433E+03  0.41422661161E+03 -0.48410192637E+03  0.65271515405E+03  0.00000000000E+00 0. -1.
        -14    1    3    3    0    0  0.35390074185E+02  0.24172486271E+03 -0.33360404125E+03  0.41349126102E+03  0.00000000000E+00 0.  1.
         15    1    5    5    0    0 -0.64297332496E+02 -0.29637407357E+02  0.69480134986E+02  0.99212750025E+02  0.17770000000E+01 0. -1.
        -16    1    5    5    0    0 -0.11951445089E+03  0.52070433617E+02  0.15286664978E+03  0.20090606423E+03  0.00000000000E+00 0.  1.
          4    1    6    6  502    0 -0.33755336598E+02 -0.20516317927E+03  0.78448994922E+02  0.22222870580E+03  0.00000000000E+00 0. -1.
         -3    1    6    6    0  502  0.40407121468E+02 -0.47322132131E+03  0.22317605924E+03  0.52476538360E+03  0.00000000000E+00 0.  1.
<mgrwt>
<rscale>  0 0.78308429E+03</rscale>
<asrwt>0</asrwt>
<pdfrwt beam="1">  1        1 0.18515796E+00 0.78308429E+03</pdfrwt>
<pdfrwt beam="2">  1       -2 0.13996809E+00 0.78308429E+03</pdfrwt>
<totfact> 0.34279303E+00</totfact>
</mgrwt>
</event>
<event>
12    3  0.1182097E-007  0.8066093E+03  0.7818608E-02  0.9550499E-01
          1   -1    0    0  501    0  0.00000000000E+00  0.00000000000E+00  0.14781355369E+04  0.14781355369E+04  0.00000000000E+00 0. -1.
         -2   -1    0    0    0  501 -0.00000000000E+00 -0.00000000000E+00 -0.48817047008E+03  0.48817047008E+03  0.00000000000E+00 0.  1.
        -24    2    1    2    0    0 -0.93328549073E+02  0.70981582458E+03  0.21272958758E+03  0.75103335623E+03  0.79047465703E+02 0.  0.
    5000000    2    1    2    0    0  0.93328549073E+02 -0.70981582458E+03  0.77723547923E+03  0.12152726507E+04  0.60020321773E+03 0.  0.
        -24    2    4    4    0    0 -0.17692335598E+03 -0.53872597667E+03  0.63790067522E+03  0.85731529329E+03  0.80899251168E+02 0.  0.
         24    2    4    4    0    0  0.27025190505E+03 -0.17108984792E+03  0.13933480401E+03  0.35795735745E+03  0.80071554892E+02 0.  0.
         11    1    3    3    0    0 -0.98949406715E+02  0.47147678444E+03  0.14880580680E+03  0.50420681421E+03  0.00000000000E+00 0. -1.
        -12    1    3    3    0    0  0.56208576423E+01  0.23833904014E+03  0.63923780789E+02  0.24682654202E+03  0.00000000000E+00 0.  1.
         15    1    5    5    0    0 -0.60280596574E+01 -0.11880015004E+03  0.14653982218E+03  0.18875086852E+03  0.17770000000E+01 0. -1.
        -16    1    5    5    0    0 -0.17089529632E+03 -0.41992582662E+03  0.49136085304E+03  0.66856442477E+03  0.00000000000E+00 0.  1.
          2    1    6    6  502    0  0.40688842435E+02 -0.36256741699E+02  0.57981030984E+02  0.79573445140E+02  0.00000000000E+00 0. -1.
         -1    1    6    6    0  502  0.22956306261E+03 -0.13483310622E+03  0.81353773024E+02  0.27838391231E+03  0.00000000000E+00 0.  1.
<mgrwt>
<rscale>  0 0.80660926E+03</rscale>
<asrwt>0</asrwt>
<pdfrwt beam="1">  1        1 0.22740546E+00 0.80660926E+03</pdfrwt>
<pdfrwt beam="2">  1       -2 0.75103150E-01 0.80660926E+03</pdfrwt>
<totfact> 0.96939810E+00</totfact>
</mgrwt>
</event>
<event>
12    3  0.1182097E-007  0.7755722E+03  0.7818608E-02  0.9596064E-01
          1   -1    0    0  501    0  0.00000000000E+00  0.00000000000E+00  0.11198601409E+04  0.11198601409E+04  0.00000000000E+00 0. -1.
         -2   -1    0    0    0  501 -0.00000000000E+00 -0.00000000000E+00 -0.57757328447E+03  0.57757328447E+03  0.00000000000E+00 0.  1.
        -24    2    1    2    0    0 -0.22589099882E+03 -0.65117752979E+03  0.26163779783E+03  0.74157410370E+03  0.80118009066E+02 0.  0.
    5000000    2    1    2    0    0  0.22589099882E+03  0.65117752979E+03  0.28064905861E+03  0.95585932167E+03  0.59987017768E+03 0.  0.
        -24    2    4    4    0    0  0.20263119614E+03  0.72228453896E+03  0.34396586096E+03  0.82900407884E+03  0.78618651468E+02 0.  0.
         24    2    4    4    0    0  0.23259802683E+02 -0.71107009169E+02 -0.63316802350E+02  0.12685524283E+03  0.80535768449E+02 0.  0.
         13    1    3    3    0    0 -0.72240555746E+02 -0.27875452388E+03  0.14349177258E+03  0.32173385162E+03  0.00000000000E+00 0. -1.
        -14    1    3    3    0    0 -0.15365044307E+03 -0.37242300591E+03  0.11814602524E+03  0.41984025208E+03  0.00000000000E+00 0.  1.
         15    1    5    5    0    0  0.30551512625E+02  0.13392436855E+03  0.96737923137E+02  0.16801938851E+03  0.17770000000E+01 0. -1.
        -16    1    5    5    0    0  0.17207968351E+03  0.58836017041E+03  0.24722793782E+03  0.66098469032E+03  0.00000000000E+00 0.  1.
          4    1    6    6  502    0  0.53274946021E+02 -0.51316503876E+02 -0.42875261423E+02  0.85497903400E+02  0.00000000000E+00 0. -1.
         -3    1    6    6    0  502 -0.30015143337E+02 -0.19790505292E+02 -0.20441540926E+02  0.41357339430E+02  0.00000000000E+00 0.  1.
<mgrwt>
<rscale>  0 0.77557219E+03</rscale>
<asrwt>0</asrwt>
<pdfrwt beam="1">  1        1 0.17228617E+00 0.77557219E+03</pdfrwt>
<pdfrwt beam="2">  1       -2 0.88857429E-01 0.77557219E+03</pdfrwt>
<totfact> 0.11957057E+01</totfact>
</mgrwt>
</event>
<event>
12    3  0.2534496E-007  0.1710835E+04  0.7818608E-02  0.8755209E-01
          1   -1    0    0  501    0  0.00000000000E+00  0.00000000000E+00  0.23825507998E+04  0.23825507998E+04  0.00000000000E+00 0. -1.
         -2   -1    0    0    0  501 -0.00000000000E+00 -0.00000000000E+00 -0.14533537318E+04  0.14533537318E+04  0.00000000000E+00 0.  1.
        -24    2    1    2    0    0  0.16316497917E+04 -0.37650523288E+03 -0.25972449777E+03  0.16963919922E+04  0.79067966611E+02 0.  0.
    5000000    2    1    2    0    0 -0.16316497917E+04  0.37650523288E+03  0.11889215658E+04  0.21395125394E+04  0.59995181768E+03 0.  0.
        -24    2    4    4    0    0 -0.22232148618E+02  0.10038350672E+03  0.16931586721E+03  0.21282080455E+03  0.77805623882E+02 0.  0.
         24    2    4    4    0    0 -0.16094176431E+04  0.27612172616E+03  0.10196056986E+04  0.19266917348E+04  0.77954493546E+02 0.  0.
         11    1    3    3    0    0  0.41933452893E+03 -0.68967085352E+02 -0.44463428655E+02  0.42728784502E+03  0.00000000000E+00 0. -1.
        -12    1    3    3    0    0  0.12123152627E+04 -0.30753814753E+03 -0.21526106912E+03  0.12691041472E+04  0.00000000000E+00 0.  1.
         15    1    5    5    0    0  0.36482034185E+01  0.79749390396E+02  0.63723260760E+02  0.10216205924E+03  0.17770000000E+01 0. -1.
        -16    1    5    5    0    0 -0.25880352037E+02  0.20634116327E+02  0.10559260645E+03  0.11065874532E+03  0.00000000000E+00 0.  1.
          2    1    6    6  502    0 -0.96404995062E+03  0.15629456631E+03  0.56577293210E+03  0.11286803398E+04  0.00000000000E+00 0. -1.
         -1    1    6    6    0  502 -0.64536769244E+03  0.11982715984E+03  0.45383276648E+03  0.79801139504E+03  0.00000000000E+00 0.  1.
<mgrwt>
<rscale>  0 0.17108350E+04</rscale>
<asrwt>0</asrwt>
<pdfrwt beam="1">  1        1 0.36654628E+00 0.17108350E+04</pdfrwt>
<pdfrwt beam="2">  1       -2 0.22359288E+00 0.17108350E+04</pdfrwt>
<totfact> 0.12342975E-01</totfact>
</mgrwt>
</event>
<event>
12    3  0.1182097E-007  0.4207615E+03  0.7818608E-02  0.1036819E+00
          1   -1    0    0  501    0  0.00000000000E+00  0.00000000000E+00  0.68790679916E+03  0.68790679916E+03  0.00000000000E+00 0. -1.
         -4   -1    0    0    0  501 -0.00000000000E+00 -0.00000000000E+00 -0.37949110689E+03  0.37949110689E+03  0.00000000000E+00 0.  1.
        -24    2    1    2    0    0  0.93968555413E+02  0.30690068658E+03  0.16952714528E+03  0.37291096227E+03  0.85469362701E+02 0.  0.
    5000000    2    1    2    0    0 -0.93968555413E+02 -0.30690068658E+03  0.13888854698E+03  0.69448694378E+03  0.60000330480E+03 0.  0.
        -24    2    4    4    0    0 -0.22988723443E+03 -0.60891393030E+02  0.27821802918E+03  0.37086793924E+03  0.59848594788E+02 0.  0.
         24    2    4    4    0    0  0.13591867901E+03 -0.24600929355E+03 -0.13932948220E+03  0.32361900454E+03  0.79511607131E+02 0.  0.
         11    1    3    3    0    0  0.40121188010E+02  0.10206611942E+03  0.14896654543E+02  0.11067570997E+03  0.00000000000E+00 0. -1.
        -12    1    3    3    0    0  0.53847367402E+02  0.20483456716E+03  0.15463049074E+03  0.26223525230E+03  0.00000000000E+00 0.  1.
         15    1    5    5    0    0 -0.21014301369E+03 -0.48459176779E+02  0.21966798510E+03  0.30784015239E+03  0.17770000000E+01 0. -1.
        -16    1    5    5    0    0 -0.19744220735E+02 -0.12432216251E+02  0.58550044078E+02  0.63027786847E+02  0.00000000000E+00 0.  1.
          2    1    6    6  502    0  0.11006789169E+03 -0.19811154548E+03 -0.73613377286E+02  0.23828985406E+03  0.00000000000E+00 0. -1.
         -1    1    6    6    0  502  0.25850787321E+02 -0.47897748072E+02 -0.65716104913E+02  0.85329150473E+02  0.00000000000E+00 0.  1.
<mgrwt>
<rscale>  0 0.42076155E+03</rscale>
<asrwt>0</asrwt>
<pdfrwt beam="1">  1        1 0.10583181E+00 0.42076155E+03</pdfrwt>
<pdfrwt beam="2">  1       -4 0.58383247E-01 0.42076155E+03</pdfrwt>
<totfact> 0.38099346E+01</totfact>
</mgrwt>
</event>
<event>
12    3  0.1182097E-007  0.2188884E+03  0.7818608E-02  0.1134714E+00
          1   -1    0    0  501    0  0.00000000000E+00  0.00000000000E+00  0.67639189535E+03  0.67639189535E+03  0.00000000000E+00 0. -1.
         -2   -1    0    0    0  501 -0.00000000000E+00 -0.00000000000E+00 -0.71374288595E+03  0.71374288595E+03  0.00000000000E+00 0.  1.
        -24    2    1    2    0    0 -0.13263161455E+03  0.17669027051E+02 -0.56108451006E+03  0.58251472820E+03  0.81266484108E+02 0.  0.
    5000000    2    1    2    0    0  0.13263161455E+03 -0.17669027051E+02  0.52373351946E+03  0.80762005311E+03  0.60004167445E+03 0.  0.
        -24    2    4    4    0    0  0.18590830255E+01 -0.11097537530E+03  0.60417565644E+03  0.61954077488E+03  0.80520542667E+02 0.  0.
         24    2    4    4    0    0  0.13077253152E+03  0.93306348249E+02 -0.80442136984E+02  0.18807927822E+03  0.55635850575E+02 0.  0.
         11    1    3    3    0    0 -0.11796093044E+03 -0.15400134675E+01 -0.33545282716E+03  0.35559211465E+03  0.00000000000E+00 0. -1.
        -12    1    3    3    0    0 -0.14670684113E+02  0.19209040518E+02 -0.22563168290E+03  0.22692261355E+03  0.00000000000E+00 0.  1.
         15    1    5    5    0    0  0.25075534444E+02 -0.19453137502E+02  0.28282525901E+03  0.28460585351E+03  0.17770000000E+01 0. -1.
        -16    1    5    5    0    0 -0.23216451418E+02 -0.91522237798E+02  0.32135039743E+03  0.33493492138E+03  0.00000000000E+00 0.  1.
          4    1    6    6  502    0  0.10418534441E+03  0.97285348471E+02 -0.73181258405E+02  0.16023271076E+03  0.00000000000E+00 0. -1.
         -3    1    6    6    0  502  0.26587187117E+02 -0.39790002223E+01 -0.72608785792E+01  0.27846567460E+02  0.00000000000E+00 0.  1.
<mgrwt>
<rscale>  0 0.21888844E+03</rscale>
<asrwt>0</asrwt>
<pdfrwt beam="1">  1        1 0.10406029E+00 0.21888844E+03</pdfrwt>
<pdfrwt beam="2">  1       -2 0.10980660E+00 0.21888844E+03</pdfrwt>
<totfact> 0.18487385E+01</totfact>
</mgrwt>
</event>
<event>
12    3  0.1182097E-007  0.1193626E+04  0.7818608E-02  0.9118454E-01
         -2   -1    0    0    0  501 -0.00000000000E+00  0.00000000000E+00  0.12081721221E+04  0.12081721221E+04  0.00000000000E+00 0.  1.
          1   -1    0    0  501    0  0.00000000000E+00 -0.00000000000E+00 -0.12201310099E+04  0.12201310099E+04  0.00000000000E+00 0. -1.
        -24    2    1    2    0    0 -0.39286122609E+03  0.10659961499E+04 -0.79940160775E+02  0.11417115702E+04  0.80169481224E+02 0.  0.
    5000000    2    1    2    0    0  0.39286122609E+03 -0.10659961499E+04  0.67981273034E+02  0.12865915618E+04  0.60000721577E+03 0.  0.
        -24    2    4    4    0    0  0.52078483970E+03 -0.81530306557E+03 -0.47410702759E+02  0.97197815027E+03  0.80980317822E+02 0.  0.
         24    2    4    4    0    0 -0.12792361361E+03 -0.25069308430E+03  0.11539197579E+03  0.31461341156E+03  0.80341877111E+02 0.  0.
         13    1    3    3    0    0 -0.20138677705E+03  0.54138805555E+03 -0.50188277034E+00  0.57763129464E+03  0.00000000000E+00 0. -1.
        -14    1    3    3    0    0 -0.19147444905E+03  0.52460809432E+03 -0.79438278005E+02  0.56408027556E+03  0.00000000000E+00 0.  1.
         15    1    5    5    0    0  0.11477946513E+03 -0.21988740492E+03 -0.40139334417E+02  0.25127498952E+03  0.17770000000E+01 0. -1.
        -16    1    5    5    0    0  0.40600537457E+03 -0.59541566065E+03 -0.72713683419E+01  0.72070316076E+03  0.00000000000E+00 0.  1.
          2    1    6    6  502    0 -0.10517391645E+03 -0.18344262057E+03  0.48229580277E+02  0.21688439353E+03  0.00000000000E+00 0. -1.
         -1    1    6    6    0  502 -0.22749697164E+02 -0.67250463727E+02  0.67162395516E+02  0.97729018024E+02  0.00000000000E+00 0.  1.
<mgrwt>
<rscale>  0 0.11936263E+04</rscale>
<asrwt>0</asrwt>
<pdfrwt beam="1">  1        1 0.18771246E+00 0.11936263E+04</pdfrwt>
<pdfrwt beam="2">  1       -2 0.18587263E+00 0.11936263E+04</pdfrwt>
<totfact> 0.14599035E+00</totfact>
</mgrwt>
</event>
<event>
12    3  0.1182097E-007  0.4382558E+03  0.7818608E-02  0.1031283E+00
          1   -1    0    0  501    0  0.00000000000E+00  0.00000000000E+00  0.17805122634E+04  0.17805122634E+04  0.00000000000E+00 0. -1.
         -2   -1    0    0    0  501 -0.00000000000E+00 -0.00000000000E+00 -0.15217894723E+03  0.15217894723E+03  0.00000000000E+00 0.  1.
        -24    2    1    2    0    0  0.99970106521E+02  0.32368482011E+03  0.47533614525E+03  0.58974352731E+03  0.84184868373E+02 0.  0.
    5000000    2    1    2    0    0 -0.99970106521E+02 -0.32368482011E+03  0.11529971709E+04  0.13429476833E+04  0.59944984695E+03 0.  0.
        -24    2    4    4    0    0  0.20112722967E+02  0.93517900452E+02  0.20291953626E+02  0.12722774083E+03  0.81394197123E+02 0.  0.
         24    2    4    4    0    0 -0.12008282949E+03 -0.41720272056E+03  0.11327052173E+04  0.12157199425E+04  0.80472810912E+02 0.  0.
         13    1    3    3    0    0  0.98582171763E+01  0.20432371698E+02  0.81404773670E+02  0.84506824786E+02  0.00000000000E+00 0. -1.
        -14    1    3    3    0    0  0.90111889344E+02  0.30325244841E+03  0.39393137158E+03  0.50523670253E+03  0.00000000000E+00 0.  1.
         15    1    5    5    0    0  0.11363537766E+02  0.52975829326E+01 -0.24740485221E+02  0.27792871630E+02  0.17770000000E+01 0. -1.
        -16    1    5    5    0    0  0.87491852011E+01  0.88220317519E+02  0.45032438846E+02  0.99434869203E+02  0.00000000000E+00 0.  1.
          2    1    6    6  502    0 -0.95078611013E+02 -0.25728798561E+03  0.61729443115E+03  0.67549201664E+03  0.00000000000E+00 0. -1.
         -1    1    6    6    0  502 -0.25004218475E+02 -0.15991473495E+03  0.51541078611E+03  0.54022792582E+03  0.00000000000E+00 0.  1.
<mgrwt>
<rscale>  0 0.43825579E+03</rscale>
<asrwt>0</asrwt>
<pdfrwt beam="1">  1        1 0.27392495E+00 0.43825579E+03</pdfrwt>
<pdfrwt beam="2">  1       -2 0.23412147E-01 0.43825579E+03</pdfrwt>
<totfact> 0.63847613E+01</totfact>
</mgrwt>
</event>
<event>
12    3  0.1182097E-007  0.8301871E+03  0.7818608E-02  0.9517322E-01
         -2   -1    0    0    0  501 -0.00000000000E+00  0.00000000000E+00  0.41994001523E+03  0.41994001523E+03  0.00000000000E+00 0.  1.
          1   -1    0    0  501    0  0.00000000000E+00 -0.00000000000E+00 -0.20567211613E+04  0.20567211613E+04  0.00000000000E+00 0. -1.
        -24    2    1    2    0    0  0.38344200605E+03 -0.68785617103E+03 -0.10857271907E+04  0.13436435398E+04  0.80003408281E+02 0.  0.
    5000000    2    1    2    0    0 -0.38344200605E+03  0.68785617103E+03 -0.55105395535E+03  0.11330176367E+04  0.59991217643E+03 0.  0.
        -24    2    4    4    0    0 -0.35097165870E+02  0.40371423748E+03 -0.53551328723E+03  0.67620831994E+03  0.79159424980E+02 0.  0.
         24    2    4    4    0    0 -0.34834484018E+03  0.28414193355E+03 -0.15540668126E+02  0.45680931680E+03  0.79702405676E+02 0.  0.
         11    1    3    3    0    0  0.17309293310E+03 -0.23581525801E+03 -0.42362329025E+03  0.51480743142E+03  0.00000000000E+00 0. -1.
        -12    1    3    3    0    0  0.21034907295E+03 -0.45204091302E+03 -0.66210390047E+03  0.82883610838E+03  0.00000000000E+00 0.  1.
         15    1    5    5    0    0  0.19954368758E+02  0.38668152555E+02 -0.62696200865E+02  0.76337239841E+02  0.17770000000E+01 0. -1.
        -16    1    5    5    0    0 -0.55051534628E+02  0.36504608493E+03 -0.47281708636E+03  0.59987108010E+03  0.00000000000E+00 0.  1.
          2    1    6    6  502    0 -0.21080943169E+03  0.22028984022E+03 -0.11195196709E+02  0.30511237704E+03  0.00000000000E+00 0. -1.
         -1    1    6    6    0  502 -0.13753540849E+03  0.63852093327E+02 -0.43454714166E+01  0.15169693976E+03  0.00000000000E+00 0.  1.
<mgrwt>
<rscale>  0 0.83018709E+03</rscale>
<asrwt>0</asrwt>
<pdfrwt beam="1">  1        1 0.31641864E+00 0.83018709E+03</pdfrwt>
<pdfrwt beam="2">  1       -2 0.64606156E-01 0.83018709E+03</pdfrwt>
<totfact> 0.54643034E+00</totfact>
</mgrwt>
</event>
<event>
12    3  0.1182097E-007  0.1167596E+04  0.7818608E-02  0.9141702E-01
         -2   -1    0    0    0  501 -0.00000000000E+00  0.00000000000E+00  0.60289884031E+03  0.60289884031E+03  0.00000000000E+00 0.  1.
          1   -1    0    0  501    0  0.00000000000E+00 -0.00000000000E+00 -0.23221586728E+04  0.23221586728E+04  0.00000000000E+00 0. -1.
        -24    2    1    2    0    0 -0.60623761904E+03  0.90681020861E+03 -0.10284258247E+04  0.15013024726E+04  0.80128847189E+02 0.  0.
    5000000    2    1    2    0    0  0.60623761904E+03 -0.90681020861E+03 -0.69083400775E+03  0.14237550405E+04  0.59999831989E+03 0.  0.
        -24    2    4    4    0    0  0.40812568663E+03 -0.12456687192E+03 -0.22366407198E+03  0.48826267239E+03  0.79317958127E+02 0.  0.
         24    2    4    4    0    0  0.19811193241E+03 -0.78224333669E+03 -0.46716993576E+03  0.93549236810E+03  0.75797403196E+02 0.  0.
         11    1    3    3    0    0 -0.27443849503E+03  0.34158569283E+03 -0.42392529990E+03  0.60968018912E+03  0.00000000000E+00 0. -1.
        -12    1    3    3    0    0 -0.33179912401E+03  0.56522451578E+03 -0.60450052485E+03  0.89162228352E+03  0.00000000000E+00 0.  1.
         15    1    5    5    0    0  0.87444087294E+02 -0.54063041176E+02 -0.30205183383E+02  0.10716712022E+03  0.17770000000E+01 0. -1.
        -16    1    5    5    0    0  0.32068159934E+03 -0.70503830746E+02 -0.19345888860E+03  0.38109555217E+03  0.00000000000E+00 0.  1.
          2    1    6    6  502    0  0.93244872196E+02 -0.22744531478E+03 -0.13676208362E+03  0.28130027537E+03  0.00000000000E+00 0. -1.
         -1    1    6    6    0  502  0.10486706021E+03 -0.55479802191E+03 -0.33040785215E+03  0.65419209273E+03  0.00000000000E+00 0.  1.
<mgrwt>
<rscale>  0 0.11675961E+04</rscale>
<asrwt>0</asrwt>
<pdfrwt beam="1">  1        1 0.35725519E+00 0.11675961E+04</pdfrwt>
<pdfrwt beam="2">  1       -2 0.92753666E-01 0.11675961E+04</pdfrwt>
<totfact> 0.15384954E+00</totfact>
</mgrwt>
</event>
<event>
12    3  0.1182097E-007  0.4727504E+03  0.7818608E-02  0.1021147E+00
         -2   -1    0    0    0  501 -0.00000000000E+00  0.00000000000E+00  0.14661543374E+04  0.14661543374E+04  0.00000000000E+00 0.  1.
          1   -1    0    0  501    0  0.00000000000E+00 -0.00000000000E+00 -0.48149653997E+03  0.48149653997E+03  0.00000000000E+00 0. -1.
        -24    2    1    2    0    0 -0.28648798985E+03 -0.42045001831E+02  0.12084715064E+04  0.12449671911E+04  0.75476980780E+02 0.  0.
    5000000    2    1    2    0    0  0.28648798985E+03  0.42045001831E+02 -0.22381370895E+03  0.70268368629E+03  0.59985717980E+03 0.  0.
        -24    2    4    4    0    0 -0.75951642672E+02  0.22494727219E+03 -0.10865692623E+03  0.27322910235E+03  0.80485324504E+02 0.  0.
         24    2    4    4    0    0  0.36243963252E+03 -0.18290227036E+03 -0.11515678272E+03  0.42945458394E+03  0.79714662001E+02 0.  0.
         11    1    3    3    0    0 -0.16023310861E+03 -0.48731271664E+02  0.80141133146E+03  0.81872431753E+03  0.00000000000E+00 0. -1.
        -12    1    3    3    0    0 -0.12625488124E+03  0.66862698331E+01  0.40706017492E+03  0.42624287355E+03  0.00000000000E+00 0.  1.
         15    1    5    5    0    0 -0.38497885428E+02  0.90069677369E+02 -0.32897591762E+01  0.98023539052E+02  0.17770000000E+01 0. -1.
        -16    1    5    5    0    0 -0.37453757245E+02  0.13487759482E+03 -0.10536716705E+03  0.17520556329E+03  0.00000000000E+00 0.  1.
          4    1    6    6  502    0  0.66788595147E+02 -0.15638851985E+01 -0.21861017356E+02  0.70292718388E+02  0.00000000000E+00 0. -1.
         -3    1    6    6    0  502  0.29565103738E+03 -0.18133838516E+03 -0.93295765361E+02  0.35916186556E+03  0.00000000000E+00 0.  1.
<mgrwt>
<rscale>  0 0.47275040E+03</rscale>
<asrwt>0</asrwt>
<pdfrwt beam="1">  1        1 0.74076391E-01 0.47275040E+03</pdfrwt>
<pdfrwt beam="2">  1       -2 0.22556220E+00 0.47275040E+03</pdfrwt>
<totfact> 0.40116661E+00</totfact>
</mgrwt>
</event>
<event>
12    3  0.1182097E-007  0.1959568E+04  0.7818608E-02  0.8625761E-01
         -2   -1    0    0    0  501 -0.00000000000E+00  0.00000000000E+00  0.21006842149E+04  0.21006842149E+04  0.00000000000E+00 0.  1.
          1   -1    0    0  501    0  0.00000000000E+00 -0.00000000000E+00 -0.28923559470E+04  0.28923559470E+04  0.00000000000E+00 0. -1.
        -24    2    1    2    0    0  0.16430792233E+04 -0.10621343660E+04 -0.18458919040E+04  0.26910310867E+04  0.80576936694E+02 0.  0.
    5000000    2    1    2    0    0 -0.16430792233E+04  0.10621343660E+04  0.10542201720E+04  0.23020090752E+04  0.60002238780E+03 0.  0.
        -24    2    4    4    0    0 -0.31432393647E+03  0.18322770737E+03  0.47931459281E+03  0.60644821145E+03  0.75266357035E+02 0.  0.
         24    2    4    4    0    0 -0.13287552868E+04  0.87890665861E+03  0.57490557914E+03  0.16955608637E+04  0.79641012684E+02 0.  0.
         13    1    3    3    0    0  0.10957035105E+04 -0.66435187985E+03 -0.12221246108E+04  0.17707394408E+04  0.00000000000E+00 0. -1.
        -14    1    3    3    0    0  0.54737571280E+03 -0.39778248613E+03 -0.62376729326E+03  0.92029164583E+03  0.00000000000E+00 0.  1.
         15    1    5    5    0    0 -0.26216516877E+02  0.25714894800E+01  0.13337618145E+02  0.29579859737E+02  0.17770000000E+01 0. -1.
        -16    1    5    5    0    0 -0.28810741959E+03  0.18065621789E+03  0.46597697467E+03  0.57686835171E+03  0.00000000000E+00 0.  1.
          2    1    6    6  502    0 -0.64583009768E+03  0.38559187585E+03  0.25054549638E+03  0.79281186643E+03  0.00000000000E+00 0. -1.
         -1    1    6    6    0  502 -0.68292518911E+03  0.49331478276E+03  0.32436008276E+03  0.90274899728E+03  0.00000000000E+00 0.  1.
<mgrwt>
<rscale>  0 0.19595680E+04</rscale>
<asrwt>0</asrwt>
<pdfrwt beam="1">  1        1 0.44497784E+00 0.19595680E+04</pdfrwt>
<pdfrwt beam="2">  1       -2 0.32318219E+00 0.19595680E+04</pdfrwt>
<totfact> 0.12744631E-02</totfact>
</mgrwt>
</event>
<event>
12    3  0.1182097E-007  0.7542453E+03  0.7818608E-02  0.9628714E-01
          1   -1    0    0  501    0  0.00000000000E+00  0.00000000000E+00  0.15539276380E+04  0.15539276380E+04  0.00000000000E+00 0. -1.
         -4   -1    0    0    0  501 -0.00000000000E+00 -0.00000000000E+00 -0.93034313421E+03  0.93034313421E+03  0.00000000000E+00 0.  1.
        -24    2    1    2    0    0 -0.39511357584E+03  0.53488044446E+03  0.12314824832E+04  0.14018483872E+04  0.80112212933E+02 0.  0.
    5000000    2    1    2    0    0  0.39511357584E+03 -0.53488044446E+03 -0.60789797941E+03  0.10824223850E+04  0.59990535789E+03 0.  0.
        -24    2    4    4    0    0  0.41905195476E+03 -0.14319334107E+03 -0.15135535361E+03  0.47518195732E+03  0.82344251675E+02 0.  0.
         24    2    4    4    0    0 -0.23938378911E+02 -0.39168710340E+03 -0.45654262580E+03  0.60724042765E+03  0.79485437956E+02 0.  0.
         11    1    3    3    0    0 -0.53186790296E+02  0.12268048823E+03  0.26884513289E+03  0.30026162315E+03  0.00000000000E+00 0. -1.
        -12    1    3    3    0    0 -0.34192678555E+03  0.41219995623E+03  0.96263735028E+03  0.11015867641E+04  0.00000000000E+00 0.  1.
         15    1    5    5    0    0  0.28258975648E+03 -0.10968124068E+03 -0.14089122638E+03  0.33427599439E+03  0.17770000000E+01 0. -1.
        -16    1    5    5    0    0  0.13646219827E+03 -0.33512100391E+02 -0.10464127229E+02  0.14090596293E+03  0.00000000000E+00 0.  1.
          4    1    6    6  502    0  0.87505019932E+01 -0.25023008040E+03 -0.24221039136E+03  0.34836408843E+03  0.00000000000E+00 0. -1.
         -3    1    6    6    0  502 -0.32688880904E+02 -0.14145702300E+03 -0.21433223444E+03  0.25887633922E+03  0.00000000000E+00 0.  1.
<mgrwt>
<rscale>  0 0.75424529E+03</rscale>
<asrwt>0</asrwt>
<pdfrwt beam="1">  1        1 0.23906579E+00 0.75424529E+03</pdfrwt>
<pdfrwt beam="2">  1       -4 0.14312971E+00 0.75424529E+03</pdfrwt>
<totfact> 0.99167571E-01</totfact>
</mgrwt>
</event>
<event>
12    3  0.1182097E-007  0.4789721E+03  0.7818608E-02  0.1019418E+00
         -4   -1    0    0    0  501 -0.00000000000E+00  0.00000000000E+00  0.43154421501E+03  0.43154421501E+03  0.00000000000E+00 0.  1.
          3   -1    0    0  501    0  0.00000000000E+00 -0.00000000000E+00 -0.10064834817E+04  0.10064834817E+04  0.00000000000E+00 0. -1.
        -24    2    1    2    0    0  0.41823854627E+03 -0.10446948746E+02  0.10571727317E+03  0.43885297382E+03  0.79894746114E+02 0.  0.
    5000000    2    1    2    0    0 -0.41823854627E+03  0.10446948746E+02 -0.68065653987E+03  0.99917472290E+03  0.60002015075E+03 0.  0.
        -24    2    4    4    0    0 -0.45762301053E+03  0.22054852720E+02 -0.75246782491E+03  0.88452329394E+03  0.79173188013E+02 0.  0.
         24    2    4    4    0    0  0.39384464260E+02 -0.11607903974E+02  0.71811285043E+02  0.11465142896E+03  0.79386460082E+02 0.  0.
         11    1    3    3    0    0  0.25438261086E+03 -0.39773613897E+02  0.84830992712E+02  0.27108808605E+03  0.00000000000E+00 0. -1.
        -12    1    3    3    0    0  0.16385593541E+03  0.29326665151E+02  0.20886280458E+02  0.16776488777E+03  0.00000000000E+00 0.  1.
         15    1    5    5    0    0 -0.44001876009E+02 -0.14027214799E+02 -0.46809574997E+02  0.65781622720E+02  0.17770000000E+01 0. -1.
        -16    1    5    5    0    0 -0.41362113452E+03  0.36082067519E+02 -0.70565824991E+03  0.81874167122E+03  0.00000000000E+00 0.  1.
          4    1    6    6  502    0 -0.15294584660E+02 -0.92449229274E+01  0.54335264425E+02  0.57198897542E+02  0.00000000000E+00 0. -1.
         -3    1    6    6    0  502  0.54679048920E+02 -0.23629810468E+01  0.17476020618E+02  0.57452531423E+02  0.00000000000E+00 0.  1.
<mgrwt>
<rscale>  0 0.47897214E+03</rscale>
<asrwt>0</asrwt>
<pdfrwt beam="1">  1        3 0.15484361E+00 0.47897214E+03</pdfrwt>
<pdfrwt beam="2">  1       -4 0.66391418E-01 0.47897214E+03</pdfrwt>
<totfact> 0.14231439E+00</totfact>
</mgrwt>
</event>
<event>
12    3  0.1182097E-007  0.5099697E+03  0.7818608E-02  0.1011209E+00
          1   -1    0    0  501    0  0.00000000000E+00  0.00000000000E+00  0.28138025541E+04  0.28138025541E+04  0.00000000000E+00 0. -1.
         -2   -1    0    0    0  501 -0.00000000000E+00 -0.00000000000E+00 -0.14576443416E+03  0.14576443416E+03  0.00000000000E+00 0.  1.
        -24    2    1    2    0    0 -0.18513318905E+03 -0.40125907381E+03  0.15662916973E+04  0.16294927255E+04  0.81815154405E+02 0.  0.
    5000000    2    1    2    0    0  0.18513318905E+03  0.40125907381E+03  0.11017464226E+04  0.13300742627E+04  0.59997435160E+03 0.  0.
        -24    2    4    4    0    0 -0.44235525263E+02  0.33476668899E+03  0.10003750385E+04  0.10586778312E+04  0.77608085276E+02 0.  0.
         24    2    4    4    0    0  0.22936871431E+03  0.66492384818E+02  0.10137138416E+03  0.27139643154E+03  0.79678235289E+02 0.  0.
         13    1    3    3    0    0 -0.66115429024E+02 -0.11385904948E+03  0.60354545260E+03  0.61773962675E+03  0.00000000000E+00 0. -1.
        -14    1    3    3    0    0 -0.11901776003E+03 -0.28740002433E+03  0.96274624466E+03  0.10117530987E+04  0.00000000000E+00 0.  1.
         15    1    5    5    0    0 -0.21089552378E+02  0.14418791060E+03  0.31784279447E+03  0.34966000988E+03  0.17770000000E+01 0. -1.
        -16    1    5    5    0    0 -0.23145972884E+02  0.19057877839E+03  0.68253224401E+03  0.70901782132E+03  0.00000000000E+00 0.  1.
          2    1    6    6  502    0  0.60504463499E+02  0.93383511721E+01  0.65298547943E+02  0.89509190977E+02  0.00000000000E+00 0. -1.
         -1    1    6    6    0  502  0.16886425082E+03  0.57154033646E+02  0.36072836221E+02  0.18188724056E+03  0.00000000000E+00 0.  1.
<mgrwt>
<rscale>  0 0.50996966E+03</rscale>
<asrwt>0</asrwt>
<pdfrwt beam="1">  1        1 0.43289266E+00 0.50996966E+03</pdfrwt>
<pdfrwt beam="2">  1       -2 0.22425300E-01 0.50996966E+03</pdfrwt>
<totfact> 0.13774061E+01</totfact>
</mgrwt>
</event>
<event>
12    3  0.1182097E-007  0.9959819E+03  0.7818608E-02  0.9312963E-01
          1   -1    0    0  501    0  0.00000000000E+00  0.00000000000E+00  0.22172271409E+04  0.22172271409E+04  0.00000000000E+00 0. -1.
         -2   -1    0    0    0  501 -0.00000000000E+00 -0.00000000000E+00 -0.55719964903E+03  0.55719964903E+03  0.00000000000E+00 0.  1.
        -24    2    1    2    0    0  0.61109232840E+03  0.78166459554E+03  0.11106896137E+04  0.14914733200E+04  0.80174014022E+02 0.  0.
    5000000    2    1    2    0    0 -0.61109232840E+03 -0.78166459554E+03  0.54933787815E+03  0.12829534699E+04  0.59980340765E+03 0.  0.
        -24    2    4    4    0    0 -0.29326632292E+03 -0.34873515322E+03  0.57716247618E+03  0.73936968706E+03  0.77004330915E+02 0.  0.
         24    2    4    4    0    0 -0.31782600548E+03 -0.43292944232E+03 -0.27824598031E+02  0.54358378285E+03  0.79169747606E+02 0.  0.
         11    1    3    3    0    0  0.32372020839E+03  0.45244577985E+03  0.66975963962E+03  0.87067785770E+03  0.00000000000E+00 0. -1.
        -12    1    3    3    0    0  0.28737212001E+03  0.32921881569E+03  0.44092997406E+03  0.62079546228E+03  0.00000000000E+00 0.  1.
         15    1    5    5    0    0 -0.58330673116E+02 -0.10015229630E+03  0.10545196909E+03  0.15670426093E+03  0.17770000000E+01 0. -1.
        -16    1    5    5    0    0 -0.23493564981E+03 -0.24858285692E+03  0.47171050709E+03  0.58266542613E+03  0.00000000000E+00 0.  1.
          4    1    6    6  502    0 -0.28834690148E+03 -0.35488745910E+03 -0.41116854054E+02  0.45910743831E+03  0.00000000000E+00 0. -1.
         -3    1    6    6    0  502 -0.29479103997E+02 -0.78041983221E+02  0.13292256023E+02  0.84476344545E+02  0.00000000000E+00 0.  1.
<mgrwt>
<rscale>  0 0.99598188E+03</rscale>
<asrwt>0</asrwt>
<pdfrwt beam="1">  1        1 0.34111186E+00 0.99598188E+03</pdfrwt>
<pdfrwt beam="2">  1       -2 0.85723024E-01 0.99598188E+03</pdfrwt>
<totfact> 0.22229935E+00</totfact>
</mgrwt>
</event>
<event>
12    3  0.1182097E-007  0.9244709E+03  0.7818608E-02  0.9395498E-01
         -2   -1    0    0    0  501 -0.00000000000E+00  0.00000000000E+00  0.72977868522E+03  0.72977868522E+03  0.00000000000E+00 0.  1.
          1   -1    0    0  501    0  0.00000000000E+00 -0.00000000000E+00 -0.13277722317E+04  0.13277722317E+04  0.00000000000E+00 0. -1.
        -24    2    1    2    0    0 -0.73105959304E+03  0.48537847298E+03 -0.43397467290E+03  0.98192119487E+03  0.76123751876E+02 0.  0.
    5000000    2    1    2    0    0  0.73105959304E+03 -0.48537847298E+03 -0.16401887357E+03  0.10756297220E+04  0.60003059710E+03 0.  0.
        -24    2    4    4    0    0  0.10402059254E+03 -0.29396969037E+03 -0.25269885581E+03  0.40938593996E+03  0.80632955884E+02 0.  0.
         24    2    4    4    0    0  0.62703900050E+03 -0.19140878261E+03  0.88679982242E+02  0.66624378209E+03  0.78749017246E+02 0.  0.
         11    1    3    3    0    0 -0.43034819342E+03  0.26658897101E+03 -0.28796388784E+03  0.58240230747E+03  0.00000000000E+00 0. -1.
        -12    1    3    3    0    0 -0.30071139962E+03  0.21878950197E+03 -0.14601078506E+03  0.39951888740E+03  0.00000000000E+00 0.  1.
         15    1    5    5    0    0  0.28563424111E+02 -0.60056866935E+02 -0.99749937335E+02  0.11989955876E+03  0.17770000000E+01 0. -1.
        -16    1    5    5    0    0  0.75457168429E+02 -0.23391282344E+03 -0.15294891848E+03  0.28948638120E+03  0.00000000000E+00 0.  1.
          2    1    6    6  502    0  0.33708310505E+03 -0.13509022386E+03  0.24457018515E+02  0.36396776512E+03  0.00000000000E+00 0. -1.
         -1    1    6    6    0  502  0.28995589545E+03 -0.56318558751E+02  0.64222963727E+02  0.30227601697E+03  0.00000000000E+00 0.  1.
<mgrwt>
<rscale>  0 0.92447085E+03</rscale>
<asrwt>0</asrwt>
<pdfrwt beam="1">  1        1 0.20427265E+00 0.92447085E+03</pdfrwt>
<pdfrwt beam="2">  1       -2 0.11227364E+00 0.92447085E+03</pdfrwt>
<totfact> 0.47733626E+00</totfact>
</mgrwt>
</event>
<event>
12    3  0.1182097E-007  0.3507869E+03  0.7818608E-02  0.1062293E+00
          1   -1    0    0  501    0  0.00000000000E+00  0.00000000000E+00  0.18998802775E+04  0.18998802775E+04  0.00000000000E+00 0. -1.
         -2   -1    0    0    0  501 -0.00000000000E+00 -0.00000000000E+00 -0.17549358172E+03  0.17549358172E+03  0.00000000000E+00 0.  1.
        -24    2    1    2    0    0  0.58133624987E+02  0.31612159138E+03  0.15434087138E+03  0.36414548045E+03  0.73948951726E+02 0.  0.
    5000000    2    1    2    0    0 -0.58133624987E+02 -0.31612159138E+03  0.15700458244E+04  0.17112283788E+04  0.59995524393E+03 0.  0.
        -24    2    4    4    0    0 -0.63477105468E+02 -0.26704308590E+03  0.22638465647E+03  0.36429549627E+03  0.78229427143E+02 0.  0.
         24    2    4    4    0    0  0.53434804816E+01 -0.49078505476E+02  0.13436611679E+04  0.13469328825E+04  0.79784730907E+02 0.  0.
         13    1    3    3    0    0 -0.29578492720E+01  0.12862670070E+03  0.33804562293E+02  0.13302753639E+03  0.00000000000E+00 0. -1.
        -14    1    3    3    0    0  0.61091474259E+02  0.18749489068E+03  0.12053630909E+03  0.23111794406E+03  0.00000000000E+00 0.  1.
         15    1    5    5    0    0  0.13900295433E+02 -0.45405202671E+02  0.19419278922E+02  0.51333388409E+02  0.17770000000E+01 0. -1.
        -16    1    5    5    0    0 -0.77377400901E+02 -0.22163788323E+03  0.20696537755E+03  0.31296210786E+03  0.00000000000E+00 0.  1.
          4    1    6    6  502    0  0.35652375711E+02 -0.51938875692E+02  0.96093128505E+03  0.96299411903E+03  0.00000000000E+00 0. -1.
         -3    1    6    6    0  502 -0.30308895229E+02  0.28603702158E+01  0.38272988289E+03  0.38393876348E+03  0.00000000000E+00 0.  1.
<mgrwt>
<rscale>  0 0.35078691E+03</rscale>
<asrwt>0</asrwt>
<pdfrwt beam="1">  1        1 0.29228926E+00 0.35078691E+03</pdfrwt>
<pdfrwt beam="2">  1       -2 0.26999014E-01 0.35078691E+03</pdfrwt>
<totfact> 0.42095277E+01</totfact>
</mgrwt>
</event>
<event>
12    3  0.1182097E-007  0.5177964E+03  0.7818608E-02  0.1009235E+00
         -2   -1    0    0    0  501 -0.00000000000E+00  0.00000000000E+00  0.26110198417E+03  0.26110198417E+03  0.00000000000E+00 0.  1.
          1   -1    0    0  501    0  0.00000000000E+00 -0.00000000000E+00 -0.19823002954E+04  0.19823002954E+04  0.00000000000E+00 0. -1.
        -24    2    1    2    0    0 -0.34943919426E+03 -0.12786669378E+03 -0.14290628537E+04  0.14789657742E+04  0.81617888703E+02 0.  0.
    5000000    2    1    2    0    0  0.34943919426E+03  0.12786669378E+03 -0.29213545755E+03  0.76443650532E+03  0.60046848648E+03 0.  0.
        -24    2    4    4    0    0  0.16882719954E+03  0.33673469740E+03 -0.27950255510E+03  0.47567372166E+03  0.79062832167E+02 0.  0.
         24    2    4    4    0    0  0.18061199472E+03 -0.20886800362E+03 -0.12632902447E+02  0.28876278367E+03  0.83533343237E+02 0.  0.
         11    1    3    3    0    0 -0.18164735239E+03 -0.69291516021E+02 -0.90306519443E+03  0.92375528156E+03  0.00000000000E+00 0. -1.
        -12    1    3    3    0    0 -0.16779184187E+03 -0.58575177754E+02 -0.52599765922E+03  0.55521049266E+03  0.00000000000E+00 0.  1.
         15    1    5    5    0    0  0.89179234791E+02  0.12799760997E+03 -0.76298806168E+02  0.17366919597E+03  0.17770000000E+01 0. -1.
        -16    1    5    5    0    0  0.79647964747E+02  0.20873708743E+03 -0.20320374894E+03  0.30200452569E+03  0.00000000000E+00 0.  1.
          2    1    6    6  502    0  0.58480863450E+02 -0.25703857287E+02  0.18305720649E+02  0.66451479124E+02  0.00000000000E+00 0. -1.
         -1    1    6    6    0  502  0.12213113127E+03 -0.18316414634E+03 -0.30938623096E+02  0.22231130454E+03  0.00000000000E+00 0.  1.
<mgrwt>
<rscale>  0 0.51779643E+03</rscale>
<asrwt>0</asrwt>
<pdfrwt beam="1">  1        1 0.30496930E+00 0.51779643E+03</pdfrwt>
<pdfrwt beam="2">  1       -2 0.40169534E-01 0.51779643E+03</pdfrwt>
<totfact> 0.17029950E+01</totfact>
</mgrwt>
</event>
<event>
12    3  0.1182097E-007  0.1299549E+04  0.7818608E-02  0.9029923E-01
          1   -1    0    0  501    0  0.00000000000E+00  0.00000000000E+00  0.19746950814E+04  0.19746950814E+04  0.00000000000E+00 0. -1.
         -4   -1    0    0    0  501 -0.00000000000E+00 -0.00000000000E+00 -0.93453569971E+03  0.93453569971E+03  0.00000000000E+00 0.  1.
        -24    2    1    2    0    0  0.61520577701E+02  0.12869906197E+04  0.57969773145E+03  0.14152432595E+04  0.82063312345E+02 0.  0.
    5000000    2    1    2    0    0 -0.61520577701E+02 -0.12869906197E+04  0.46046165028E+03  0.14939875216E+04  0.59987010825E+03 0.  0.
        -24    2    4    4    0    0  0.56584313585E+02 -0.14661240366E+03  0.28167809077E+03  0.33090639779E+03  0.73888536530E+02 0.  0.
         24    2    4    4    0    0 -0.11810489129E+03 -0.11403782160E+04  0.17878355951E+03  0.11630811238E+04  0.79893044524E+02 0.  0.
         13    1    3    3    0    0  0.96851712632E+01  0.85085428622E+03  0.40800841407E+03  0.94367244575E+03  0.00000000000E+00 0. -1.
        -14    1    3    3    0    0  0.51835406438E+02  0.43613633344E+03  0.17168931738E+03  0.47157081378E+03  0.00000000000E+00 0.  1.
         15    1    5    5    0    0  0.56613781395E+02 -0.94915972610E+02  0.12987847408E+03  0.17054541289E+03  0.17770000000E+01 0. -1.
        -16    1    5    5    0    0 -0.29467809939E-01 -0.51696431054E+02  0.15179961669E+03  0.16036098490E+03  0.00000000000E+00 0.  1.
          4    1    6    6  502    0 -0.70337513337E+02 -0.79173785906E+03  0.15917812479E+03  0.81063794548E+03  0.00000000000E+00 0. -1.
         -3    1    6    6    0  502 -0.47767377950E+02 -0.34864035694E+03  0.19605434722E+02  0.35244317834E+03  0.00000000000E+00 0.  1.
<mgrwt>
<rscale>  0 0.12995486E+04</rscale>
<asrwt>0</asrwt>
<pdfrwt beam="1">  1        1 0.30379924E+00 0.12995486E+04</pdfrwt>
<pdfrwt beam="2">  1       -4 0.14377472E+00 0.12995486E+04</pdfrwt>
<totfact> 0.47997486E-01</totfact>
</mgrwt>
</event>
<event>
12    3  0.1182097E-007  0.8649760E+03  0.7818608E-02  0.9470454E-01
          1   -1    0    0  501    0  0.00000000000E+00  0.00000000000E+00  0.66471554228E+03  0.66471554228E+03  0.00000000000E+00 0. -1.
         -2   -1    0    0    0  501 -0.00000000000E+00 -0.00000000000E+00 -0.13608814952E+04  0.13608814952E+04  0.00000000000E+00 0.  1.
        -24    2    1    2    0    0  0.73694140968E+03 -0.42305289873E+03 -0.40810453965E+03  0.94620227829E+03  0.81811000024E+02 0.  0.
    5000000    2    1    2    0    0 -0.73694140968E+03  0.42305289873E+03 -0.28806141330E+03  0.10793947592E+04  0.60004772476E+03 0.  0.
        -24    2    4    4    0    0 -0.66371136225E+03  0.38104381967E+03 -0.44139469115E+03  0.88717161109E+03  0.80851897117E+02 0.  0.
         24    2    4    4    0    0 -0.73230047427E+02  0.42009079068E+02  0.15333327785E+03  0.19222314814E+03  0.79443325794E+02 0.  0.
         13    1    3    3    0    0  0.28131661070E+03 -0.20770859320E+03 -0.16338258318E+03  0.38597378620E+03  0.00000000000E+00 0. -1.
        -14    1    3    3    0    0  0.45562479897E+03 -0.21534430553E+03 -0.24472195648E+03  0.56022849209E+03  0.00000000000E+00 0.  1.
         15    1    5    5    0    0 -0.17227897875E+03  0.95560676865E+02 -0.74151215048E+02  0.21050760059E+03  0.17770000000E+01 0. -1.
        -16    1    5    5    0    0 -0.49143238350E+03  0.28548314280E+03 -0.36724347610E+03  0.67666401051E+03  0.00000000000E+00 0.  1.
          4    1    6    6  502    0 -0.58063277798E+02 -0.80823250689E+01  0.52860360347E+02  0.78935960773E+02  0.00000000000E+00 0. -1.
         -3    1    6    6    0  502 -0.15166769629E+02  0.50091404137E+02  0.10047291750E+03  0.11328718736E+03  0.00000000000E+00 0.  1.
<mgrwt>
<rscale>  0 0.86497598E+03</rscale>
<asrwt>0</asrwt>
<pdfrwt beam="1">  1        1 0.10226393E+00 0.86497598E+03</pdfrwt>
<pdfrwt beam="2">  1       -2 0.20936638E+00 0.86497598E+03</pdfrwt>
<totfact> 0.30221456E+00</totfact>
</mgrwt>
</event>
<event>
12    3  0.1182097E-007  0.2478325E+04  0.7818608E-02  0.8410748E-01
         -2   -1    0    0    0  501 -0.00000000000E+00  0.00000000000E+00  0.14330999278E+04  0.14330999278E+04  0.00000000000E+00 0.  1.
          1   -1    0    0  501    0  0.00000000000E+00 -0.00000000000E+00 -0.44024180444E+04  0.44024180444E+04  0.00000000000E+00 0. -1.
        -24    2    1    2    0    0 -0.81748152716E+03 -0.23291502000E+04 -0.12496554932E+04  0.27678883364E+04  0.79688708366E+02 0.  0.
    5000000    2    1    2    0    0  0.81748152716E+03  0.23291502000E+04 -0.17196626234E+04  0.30676296358E+04  0.59991277936E+03 0.  0.
        -24    2    4    4    0    0  0.44547789628E+03  0.16577933947E+04 -0.14526796863E+04  0.22513528031E+04  0.10761820117E+03 0.  0.
         24    2    4    4    0    0  0.37200363088E+03  0.67135680524E+03 -0.26698293710E+03  0.81627683272E+03  0.76950098191E+02 0.  0.
         13    1    3    3    0    0 -0.30803102892E+03 -0.84199774979E+03 -0.41316610172E+03  0.98719276387E+03  0.00000000000E+00 0. -1.
        -14    1    3    3    0    0 -0.50945049824E+03 -0.14871524502E+04 -0.83648939145E+03  0.17806955726E+04  0.00000000000E+00 0.  1.
         15    1    5    5    0    0  0.38140831356E+03  0.15287936480E+04 -0.13194304836E+04  0.20551355865E+04  0.17770000000E+01 0. -1.
        -16    1    5    5    0    0  0.64069582717E+02  0.12899974670E+03 -0.13324920271E+03  0.19621721663E+03  0.00000000000E+00 0.  1.
          2    1    6    6  502    0  0.19290298913E+03  0.38541100818E+03 -0.18522858203E+03  0.46910855465E+03  0.00000000000E+00 0. -1.
         -1    1    6    6    0  502  0.17910064175E+03  0.28594579706E+03 -0.81754355071E+02  0.34716827807E+03  0.00000000000E+00 0.  1.
<mgrwt>
<rscale>  0 0.24783251E+04</rscale>
<asrwt>0</asrwt>
<pdfrwt beam="1">  1        1 0.67729509E+00 0.24783251E+04</pdfrwt>
<pdfrwt beam="2">  1       -2 0.22047691E+00 0.24783251E+04</pdfrwt>
<totfact> 0.29535712E-03</totfact>
</mgrwt>
</event>
<event>
12    3  0.1182097E-007  0.6477985E+03  0.7818608E-02  0.9810919E-01
          1   -1    0    0  501    0  0.00000000000E+00  0.00000000000E+00  0.20931822880E+04  0.20931822880E+04  0.00000000000E+00 0. -1.
         -2   -1    0    0    0  501 -0.00000000000E+00 -0.00000000000E+00 -0.46803695592E+03  0.46803695592E+03  0.00000000000E+00 0.  1.
        -24    2    1    2    0    0  0.48672654750E+03  0.39808877573E+03 -0.88231703543E+02  0.64002362507E+03  0.80423887803E+02 0.  0.
    5000000    2    1    2    0    0 -0.48672654750E+03 -0.39808877573E+03  0.17133770357E+04  0.19211956189E+04  0.59996194406E+03 0.  0.
        -24    2    4    4    0    0 -0.35568507280E+03 -0.36123948408E+03  0.57181508567E+03  0.76904774914E+03  0.86348783277E+02 0.  0.
         24    2    4    4    0    0 -0.13104147470E+03 -0.36849291644E+02  0.11415619500E+04  0.11521478698E+04  0.75837258249E+02 0.  0.
         13    1    3    3    0    0  0.37920034408E+03  0.26916156727E+03 -0.48775100923E+02  0.46756802790E+03  0.00000000000E+00 0. -1.
        -14    1    3    3    0    0  0.10752620342E+03  0.12892720846E+03 -0.39456602620E+02  0.17245559717E+03  0.00000000000E+00 0.  1.
         15    1    5    5    0    0 -0.71857723994E+02 -0.98029538746E+02  0.18840926298E+03  0.22421982756E+03  0.17770000000E+01 0. -1.
        -16    1    5    5    0    0 -0.28382734881E+03 -0.26320994534E+03  0.38340582269E+03  0.54482792157E+03  0.00000000000E+00 0.  1.
          2    1    6    6  502    0 -0.32976771587E+02 -0.44841797289E+02  0.49935570564E+03  0.50244838044E+03  0.00000000000E+00 0. -1.
         -1    1    6    6    0  502 -0.98064703114E+02  0.79925056448E+01  0.64220624435E+03  0.64969948932E+03  0.00000000000E+00 0.  1.
<mgrwt>
<rscale>  0 0.64779854E+03</rscale>
<asrwt>0</asrwt>
<pdfrwt beam="1">  1        1 0.32202804E+00 0.64779854E+03</pdfrwt>
<pdfrwt beam="2">  1       -2 0.72005687E-01 0.64779854E+03</pdfrwt>
<totfact> 0.42088979E+00</totfact>
</mgrwt>
</event>
<event>
12    3  0.1182097E-007  0.1001910E+04  0.7818608E-02  0.9306452E-01
          1   -1    0    0  501    0  0.00000000000E+00  0.00000000000E+00  0.16133424256E+04  0.16133424256E+04  0.00000000000E+00 0. -1.
         -2   -1    0    0    0  501 -0.00000000000E+00 -0.00000000000E+00 -0.95138865356E+03  0.95138865356E+03  0.00000000000E+00 0.  1.
        -24    2    1    2    0    0 -0.82873098097E+03 -0.49398239693E+03  0.98752168099E+03  0.13828952517E+04  0.79915953241E+02 0.  0.
    5000000    2    1    2    0    0  0.82873098097E+03  0.49398239693E+03 -0.32556790893E+03  0.11818358274E+04  0.59993984064E+03 0.  0.
        -24    2    4    4    0    0  0.61988552668E+03  0.16319626982E+03  0.30423332137E+02  0.64682144870E+03  0.81001967237E+02 0.  0.
         24    2    4    4    0    0  0.20884545430E+03  0.33078612711E+03 -0.35599124106E+03  0.53501437873E+03  0.80465744684E+02 0.  0.
         11    1    3    3    0    0 -0.10809813177E+03 -0.81820848099E+02  0.10684645699E+03  0.17261524454E+03  0.00000000000E+00 0. -1.
        -12    1    3    3    0    0 -0.72063284920E+03 -0.41216154883E+03  0.88067522400E+03  0.12102800072E+04  0.00000000000E+00 0.  1.
         15    1    5    5    0    0  0.19813072609E+03  0.18764803306E+02  0.28220755231E+02  0.20101609692E+03  0.17770000000E+01 0. -1.
        -16    1    5    5    0    0  0.42175480058E+03  0.14443146651E+03  0.22025769066E+01  0.44580535178E+03  0.00000000000E+00 0.  1.
          2    1    6    6  502    0  0.67522154618E+02  0.74248994364E+02 -0.13444694728E+03  0.16777406284E+03  0.00000000000E+00 0. -1.
         -1    1    6    6    0  502  0.14132329968E+03  0.25653713275E+03 -0.22154429378E+03  0.36724031589E+03  0.00000000000E+00 0.  1.
<mgrwt>
<rscale>  0 0.10019100E+04</rscale>
<asrwt>0</asrwt>
<pdfrwt beam="1">  1        1 0.24820653E+00 0.10019100E+04</pdfrwt>
<pdfrwt beam="2">  1       -2 0.14636748E+00 0.10019100E+04</pdfrwt>
<totfact> 0.15308410E+00</totfact>
</mgrwt>
</event>
<event>
12    3  0.1182097E-007  0.4575844E+03  0.7818608E-02  0.1025484E+00
         -2   -1    0    0    0  501 -0.00000000000E+00  0.00000000000E+00  0.12912463804E+03  0.12912463804E+03  0.00000000000E+00 0.  1.
          1   -1    0    0  501    0  0.00000000000E+00 -0.00000000000E+00 -0.27860191064E+04  0.27860191064E+04  0.00000000000E+00 0. -1.
        -24    2    1    2    0    0 -0.37092608273E+02 -0.40251641211E+03 -0.14563693127E+04  0.15135097277E+04  0.79402753590E+02 0.  0.
    5000000    2    1    2    0    0  0.37092608273E+02  0.40251641211E+03 -0.12005251556E+04  0.14016340167E+04  0.59993494971E+03 0.  0.
        -24    2    4    4    0    0  0.82593854796E+02  0.40205568491E+03 -0.34699788583E+03  0.54329164090E+03  0.79295369838E+02 0.  0.
         24    2    4    4    0    0 -0.45501246523E+02  0.46072720589E+00 -0.85352726976E+03  0.85834237579E+03  0.78563720204E+02 0.  0.
         13    1    3    3    0    0  0.31074227095E+01 -0.24677210816E+03 -0.77178160713E+03  0.81027956814E+03  0.00000000000E+00 0. -1.
        -14    1    3    3    0    0 -0.40200030982E+02 -0.15574430395E+03 -0.68458770559E+03  0.70323015958E+03  0.00000000000E+00 0.  1.
         15    1    5    5    0    0  0.68020152904E+01  0.21935413939E+03 -0.16595676121E+03  0.27514961422E+03  0.17770000000E+01 0. -1.
        -16    1    5    5    0    0  0.75791839506E+02  0.18270154551E+03 -0.18104112462E+03  0.26814202668E+03  0.00000000000E+00 0.  1.
          2    1    6    6  502    0 -0.62580224949E+02 -0.17996194416E+02 -0.65501538571E+03  0.65824410600E+03  0.00000000000E+00 0. -1.
         -1    1    6    6    0  502  0.17078978426E+02  0.18456921622E+02 -0.19851188406E+03  0.20009826979E+03  0.00000000000E+00 0.  1.
<mgrwt>
<rscale>  0 0.45758436E+03</rscale>
<asrwt>0</asrwt>
<pdfrwt beam="1">  1        1 0.42861828E+00 0.45758436E+03</pdfrwt>
<pdfrwt beam="2">  1       -2 0.19865331E-01 0.45758436E+03</pdfrwt>
<totfact> 0.18026586E+01</totfact>
</mgrwt>
</event>
<event>
12    3  0.1182097E-007  0.8784863E+03  0.7818608E-02  0.9452881E-01
         -2   -1    0    0    0  501 -0.00000000000E+00  0.00000000000E+00  0.12814232829E+04  0.12814232829E+04  0.00000000000E+00 0.  1.
          1   -1    0    0  501    0  0.00000000000E+00 -0.00000000000E+00 -0.71180359294E+03  0.71180359294E+03  0.00000000000E+00 0. -1.
        -24    2    1    2    0    0 -0.76313186114E+03 -0.18930924967E+03 -0.10334442699E+03  0.79702244867E+03  0.79727558580E+02 0.  0.
    5000000    2    1    2    0    0  0.76313186114E+03  0.18930924967E+03  0.67296411694E+03  0.11962044272E+04  0.59984672988E+03 0.  0.
        -24    2    4    4    0    0 -0.30491144207E+02 -0.10331544512E+03  0.49049532659E+02  0.14208705353E+03  0.78607143761E+02 0.  0.
         24    2    4    4    0    0  0.79362300535E+03  0.29262469479E+03  0.62391458428E+03  0.10541173736E+04  0.80170707051E+02 0.  0.
         13    1    3    3    0    0 -0.21724200000E+03 -0.78160903648E+02 -0.25610810565E+01  0.23088909147E+03  0.00000000000E+00 0. -1.
        -14    1    3    3    0    0 -0.54588986114E+03 -0.11114834602E+03 -0.10078334593E+03  0.56613335720E+03  0.00000000000E+00 0.  1.
         15    1    5    5    0    0 -0.35662059894E+02 -0.23576832637E+02 -0.84871647283E+01  0.43621545676E+02  0.17770000000E+01 0. -1.
        -16    1    5    5    0    0  0.51709156873E+01 -0.79738612488E+02  0.57536697387E+02  0.98465507853E+02  0.00000000000E+00 0.  1.
          2    1    6    6  502    0  0.33619303592E+03  0.13869241523E+03  0.31461101746E+03  0.48087569678E+03  0.00000000000E+00 0. -1.
         -1    1    6    6    0  502  0.45742996942E+03  0.15393227956E+03  0.30930356682E+03  0.57324167684E+03  0.00000000000E+00 0.  1.
<mgrwt>
<rscale>  0 0.87848632E+03</rscale>
<asrwt>0</asrwt>
<pdfrwt beam="1">  1        1 0.10950825E+00 0.87848632E+03</pdfrwt>
<pdfrwt beam="2">  1       -2 0.19714204E+00 0.87848632E+03</pdfrwt>
<totfact> 0.32655068E+00</totfact>
</mgrwt>
</event>
<event>
12    3  0.1465792E-007  0.1083021E+04  0.7818608E-02  0.9221900E-01
          1   -1    0    0  501    0  0.00000000000E+00  0.00000000000E+00  0.14709809393E+04  0.14709809393E+04  0.00000000000E+00 0. -1.
         -2   -1    0    0    0  501 -0.00000000000E+00 -0.00000000000E+00 -0.82789113220E+03  0.82789113220E+03  0.00000000000E+00 0.  1.
        -24    2    1    2    0    0 -0.47445135731E+03  0.88817236987E+03  0.47062630191E+03  0.11142665226E+04  0.78399733524E+02 0.  0.
    5000000    2    1    2    0    0  0.47445135731E+03 -0.88817236987E+03  0.17246350521E+03  0.11846055490E+04  0.59966023457E+03 0.  0.
        -24    2    4    4    0    0  0.19673509942E+03 -0.85020302254E+03  0.17409721115E+03  0.89351330173E+03  0.80661654775E+02 0.  0.
         24    2    4    4    0    0  0.27771625789E+03 -0.37969347328E+02 -0.16337059456E+01  0.29109224722E+03  0.78511376036E+02 0.  0.
         13    1    3    3    0    0 -0.21708804002E+03  0.43796882682E+03  0.18840906010E+03  0.52387201138E+03  0.00000000000E+00 0. -1.
        -14    1    3    3    0    0 -0.25736331729E+03  0.45020354305E+03  0.28221724181E+03  0.59039451118E+03  0.00000000000E+00 0.  1.
         15    1    5    5    0    0  0.14370567726E+03 -0.50144263380E+03  0.74272645260E+02  0.52689241808E+03  0.17770000000E+01 0. -1.
        -16    1    5    5    0    0  0.53029422162E+02 -0.34876038874E+03  0.99824565895E+02  0.36662088364E+03  0.00000000000E+00 0.  1.
          2    1    6    6  502    0  0.12471357243E+03 -0.40808872916E+02 -0.32030996893E+02  0.13507340234E+03  0.00000000000E+00 0. -1.
         -1    1    6    6    0  502  0.15300268546E+03  0.28395255875E+01  0.30397290948E+02  0.15601884489E+03  0.00000000000E+00 0.  1.
<mgrwt>
<rscale>  0 0.10830214E+04</rscale>
<asrwt>0</asrwt>
<pdfrwt beam="1">  1        1 0.22630476E+00 0.10830214E+04</pdfrwt>
<pdfrwt beam="2">  1       -2 0.12736787E+00 0.10830214E+04</pdfrwt>
<totfact> 0.27206452E+00</totfact>
</mgrwt>
</event>
<event>
12    3  0.1182097E-007  0.1233185E+04  0.7818608E-02  0.9084295E-01
         -2   -1    0    0    0  501 -0.00000000000E+00  0.00000000000E+00  0.10778866571E+04  0.10778866571E+04  0.00000000000E+00 0.  1.
          1   -1    0    0  501    0  0.00000000000E+00 -0.00000000000E+00 -0.16826154131E+04  0.16826154131E+04  0.00000000000E+00 0. -1.
        -24    2    1    2    0    0  0.76274334587E+03 -0.91236214979E+03  0.19388724216E+03  0.12075380210E+04  0.79835489996E+02 0.  0.
    5000000    2    1    2    0    0 -0.76274334587E+03  0.91236214979E+03 -0.79861599810E+03  0.15529640492E+04  0.59977305846E+03 0.  0.
        -24    2    4    4    0    0 -0.79659532834E+03  0.75045984300E+03 -0.81901286409E+03  0.13693065716E+04  0.80401010423E+02 0.  0.
         24    2    4    4    0    0  0.33851982475E+02  0.16190230678E+03  0.20396865996E+02  0.18365747756E+03  0.77173332588E+02 0.  0.
         13    1    3    3    0    0  0.56080911176E+03 -0.65166155850E+03  0.17398191650E+03  0.87717692282E+03  0.00000000000E+00 0. -1.
        -14    1    3    3    0    0  0.20193423411E+03 -0.26070059129E+03  0.19905325661E+02  0.33036109819E+03  0.00000000000E+00 0.  1.
         15    1    5    5    0    0 -0.47930179577E+03  0.40801176203E+03 -0.44019916238E+03  0.76810303324E+03  0.17770000000E+01 0. -1.
        -16    1    5    5    0    0 -0.31729353258E+03  0.34244808098E+03 -0.37881370171E+03  0.60120353840E+03  0.00000000000E+00 0.  1.
          2    1    6    6  502    0  0.56549833967E+02  0.10416582950E+03  0.56646835083E+00  0.11852731603E+03  0.00000000000E+00 0. -1.
         -3    1    6    6    0  502 -0.22697851492E+02  0.57736477281E+02  0.19830397645E+02  0.65130161537E+02  0.00000000000E+00 0.  1.
<mgrwt>
<rscale>  0 0.12331854E+04</rscale>
<asrwt>0</asrwt>
<pdfrwt beam="1">  1        1 0.25886391E+00 0.12331854E+04</pdfrwt>
<pdfrwt beam="2">  1       -2 0.16582872E+00 0.12331854E+04</pdfrwt>
<totfact> 0.95302616E-01</totfact>
</mgrwt>
</event>
<event>
12    3  0.1182097E-007  0.9209582E+03  0.7818608E-02  0.9399755E-01
          1   -1    0    0  501    0  0.00000000000E+00  0.00000000000E+00  0.11421763371E+04  0.11421763371E+04  0.00000000000E+00 0. -1.
         -2   -1    0    0    0  501 -0.00000000000E+00 -0.00000000000E+00 -0.78412448860E+03  0.78412448860E+03  0.00000000000E+00 0.  1.
        -24    2    1    2    0    0 -0.15693347667E+03  0.81580055936E+03 -0.18777264058E+02  0.83447713885E+03  0.76425394025E+02 0.  0.
    5000000    2    1    2    0    0  0.15693347667E+03 -0.81580055936E+03  0.37682911253E+03  0.10918236868E+04  0.59993342489E+03 0.  0.
        -24    2    4    4    0    0 -0.20803961314E+03 -0.34237904771E+03  0.65203811232E+02  0.41351662133E+03  0.78997254183E+02 0.  0.
         24    2    4    4    0    0  0.36497308981E+03 -0.47342151166E+03  0.31162530129E+03  0.67830706549E+03  0.75212118092E+02 0.  0.
         13    1    3    3    0    0 -0.24462217237E+02  0.27882810245E+03 -0.28279148422E+02  0.28132404985E+03  0.00000000000E+00 0. -1.
        -14    1    3    3    0    0 -0.13247125943E+03  0.53697245692E+03  0.95018843636E+01  0.55315308900E+03  0.00000000000E+00 0.  1.
         15    1    5    5    0    0 -0.69652904413E+02 -0.56125108659E+02  0.25926069946E+02  0.93149738309E+02  0.17770000000E+01 0. -1.
        -16    1    5    5    0    0 -0.13838670873E+03 -0.28625393905E+03  0.39277741286E+02  0.32036688302E+03  0.00000000000E+00 0.  1.
          2    1    6    6  502    0  0.30089405653E+03 -0.34341775626E+03  0.21990350402E+03  0.50678451007E+03  0.00000000000E+00 0. -1.
         -1    1    6    6    0  502  0.64079033283E+02 -0.13000375539E+03  0.91721797272E+02  0.17152255542E+03  0.00000000000E+00 0.  1.
<mgrwt>
<rscale>  0 0.92095816E+03</rscale>
<asrwt>0</asrwt>
<pdfrwt beam="1">  1        1 0.17571944E+00 0.92095816E+03</pdfrwt>
<pdfrwt beam="2">  1       -2 0.12063454E+00 0.92095816E+03</pdfrwt>
<totfact> 0.54491909E+00</totfact>
</mgrwt>
</event>
<event>
12    3  0.1182097E-007  0.3166029E+03  0.7818608E-02  0.1077223E+00
          1   -1    0    0  501    0  0.00000000000E+00  0.00000000000E+00  0.84932024029E+03  0.84932024029E+03  0.00000000000E+00 0. -1.
         -2   -1    0    0    0  501 -0.00000000000E+00 -0.00000000000E+00 -0.18246061340E+03  0.18246061340E+03  0.00000000000E+00 0.  1.
        -24    2    1    2    0    0  0.32346278009E+02 -0.66918390502E+02 -0.22116717066E+02  0.11520474248E+03  0.85197598722E+02 0.  0.
    5000000    2    1    2    0    0 -0.32346278009E+02  0.66918390502E+02  0.68897634396E+03  0.91657611120E+03  0.59991583777E+03 0.  0.
        -24    2    4    4    0    0  0.24116263989E+03  0.11151955887E+03  0.17762608898E+03  0.32971684787E+03  0.81031730782E+02 0.  0.
         24    2    4    4    0    0 -0.27350891790E+03 -0.44601168366E+02  0.51135025498E+03  0.58685926334E+03  0.78283582573E+02 0.  0.
         13    1    3    3    0    0  0.27898319051E+02 -0.38305138476E+02  0.29643090201E+02  0.55895551131E+02  0.00000000000E+00 0. -1.
        -14    1    3    3    0    0  0.44479589577E+01 -0.28613252026E+02 -0.51759807267E+02  0.59309191351E+02  0.00000000000E+00 0.  1.
         15    1    5    5    0    0  0.28307468452E+02  0.46809755275E+02  0.43740003498E+02  0.70062911688E+02  0.17770000000E+01 0. -1.
        -16    1    5    5    0    0  0.21285517144E+03  0.64709803592E+02  0.13388608548E+03  0.25965393618E+03  0.00000000000E+00 0.  1.
          4    1    6    6  502    0 -0.11999688889E+03 -0.73784746400E+00  0.29080491756E+03  0.31459068301E+03  0.00000000000E+00 0. -1.
         -3    1    6    6    0  502 -0.15351202901E+03 -0.43863320902E+02  0.22054533743E+03  0.27226858032E+03  0.00000000000E+00 0.  1.
<mgrwt>
<rscale>  0 0.31660290E+03</rscale>
<asrwt>0</asrwt>
<pdfrwt beam="1">  1        1 0.13066465E+00 0.31660290E+03</pdfrwt>
<pdfrwt beam="2">  1       -2 0.28070864E-01 0.31660290E+03</pdfrwt>
<totfact> 0.21342445E+02</totfact>
</mgrwt>
</event>
<event>
12    3  0.1182097E-007  0.3874362E+03  0.7818608E-02  0.1048219E+00
         -2   -1    0    0    0  501 -0.00000000000E+00  0.00000000000E+00  0.66651841015E+02  0.66651841015E+02  0.00000000000E+00 0.  1.
          1   -1    0    0  501    0  0.00000000000E+00 -0.00000000000E+00 -0.29912544983E+04  0.29912544983E+04  0.00000000000E+00 0. -1.
        -24    2    1    2    0    0 -0.58931992907E+02 -0.22674620509E+03 -0.84746319830E+03  0.88317494747E+03  0.83170271390E+02 0.  0.
    5000000    2    1    2    0    0  0.58931992907E+02  0.22674620509E+03 -0.20771394590E+04  0.21747313919E+04  0.60005122559E+03 0.  0.
        -24    2    4    4    0    0  0.26604028449E+03  0.94125197884E+02 -0.52529662501E+03  0.60154848832E+03  0.79290943418E+02 0.  0.
         24    2    4    4    0    0 -0.20710829159E+03  0.13262100720E+03 -0.15518428340E+04  0.15731829035E+04  0.78778744611E+02 0.  0.
         13    1    3    3    0    0 -0.39001568245E+02 -0.20024291175E+03 -0.60534605995E+03  0.63879746268E+03  0.00000000000E+00 0. -1.
        -14    1    3    3    0    0 -0.19930424662E+02 -0.26503293338E+02 -0.24211713836E+03  0.24437748479E+03  0.00000000000E+00 0.  1.
         15    1    5    5    0    0  0.17657349175E+03  0.25131420942E+02 -0.35319427856E+03  0.39567555199E+03  0.17770000000E+01 0. -1.
        -16    1    5    5    0    0  0.89466792744E+02  0.68993776943E+02 -0.17210234645E+03  0.20587293633E+03  0.00000000000E+00 0.  1.
          2    1    6    6  502    0 -0.18614733650E+03  0.12418415321E+03 -0.12047294576E+04  0.12253348933E+04  0.00000000000E+00 0. -1.
         -1    1    6    6    0  502 -0.20960955085E+02  0.84368539935E+01 -0.34711337639E+03  0.34784801022E+03  0.00000000000E+00 0.  1.
<mgrwt>
<rscale>  0 0.38743624E+03</rscale>
<asrwt>0</asrwt>
<pdfrwt beam="1">  1        1 0.46019300E+00 0.38743624E+03</pdfrwt>
<pdfrwt beam="2">  1       -2 0.10254129E-01 0.38743624E+03</pdfrwt>
<totfact> 0.39737003E+01</totfact>
</mgrwt>
</event>
<event>
12    3  0.1182097E-007  0.2025996E+04  0.7818608E-02  0.8594562E-01
         -2   -1    0    0    0  501 -0.00000000000E+00  0.00000000000E+00  0.40109831478E+04  0.40109831478E+04  0.00000000000E+00 0.  1.
          1   -1    0    0  501    0  0.00000000000E+00 -0.00000000000E+00 -0.10444977243E+04  0.10444977243E+04  0.00000000000E+00 0. -1.
        -24    2    1    2    0    0  0.36768657811E+03 -0.19619408762E+04  0.12620568778E+04  0.23629982144E+04  0.81040589269E+02 0.  0.
    5000000    2    1    2    0    0 -0.36768657811E+03  0.19619408762E+04  0.17044285456E+04  0.26924826577E+04  0.59998397772E+03 0.  0.
        -24    2    4    4    0    0 -0.37359946541E+03  0.74029300396E+03  0.90642293203E+03  0.12310265009E+04  0.78825262638E+02 0.  0.
         24    2    4    4    0    0  0.59128872951E+01  0.12216478722E+04  0.79800561359E+03  0.14614561567E+04  0.81133549700E+02 0.  0.
         11    1    3    3    0    0  0.53636455284E+02 -0.46789224562E+03  0.28821356764E+03  0.55214770073E+03  0.00000000000E+00 0. -1.
        -12    1    3    3    0    0  0.31405012283E+03 -0.14940486305E+04  0.97384331020E+03  0.18108505137E+04  0.00000000000E+00 0.  1.
         15    1    5    5    0    0 -0.14788462143E+03  0.25544328971E+03  0.37309097975E+03  0.47573224866E+03  0.17770000000E+01 0. -1.
        -16    1    5    5    0    0 -0.22571484398E+03  0.48484971425E+03  0.53333195227E+03  0.75529425227E+03  0.00000000000E+00 0.  1.
          2    1    6    6  502    0  0.40078556226E+02  0.90088237253E+03  0.58780241714E+03  0.10764325438E+04  0.00000000000E+00 0. -1.
         -3    1    6    6    0  502 -0.34165668930E+02  0.32076549966E+03  0.21020319646E+03  0.38502361292E+03  0.00000000000E+00 0.  1.
<mgrwt>
<rscale>  0 0.20259956E+04</rscale>
<asrwt>0</asrwt>
<pdfrwt beam="1">  1        1 0.16069196E+00 0.20259956E+04</pdfrwt>
<pdfrwt beam="2">  1       -2 0.61707432E+00 0.20259956E+04</pdfrwt>
<totfact> 0.46700396E-03</totfact>
</mgrwt>
</event>
<event>
12    3  0.1182097E-007  0.1182234E+04  0.7818608E-02  0.9128551E-01
          1   -1    0    0  501    0  0.00000000000E+00  0.00000000000E+00  0.10158093711E+04  0.10158093711E+04  0.00000000000E+00 0. -1.
         -2   -1    0    0    0  501 -0.00000000000E+00 -0.00000000000E+00 -0.14668172485E+04  0.14668172485E+04  0.00000000000E+00 0.  1.
        -24    2    1    2    0    0  0.60823939149E+03  0.92955623764E+03  0.71385622447E+02  0.11160419719E+04  0.80148734394E+02 0.  0.
    5000000    2    1    2    0    0 -0.60823939149E+03 -0.92955623764E+03 -0.52239349982E+03  0.13665846477E+04  0.60052366684E+03 0.  0.
        -24    2    4    4    0    0  0.70479415153E+02 -0.33625123971E+03 -0.89638416602E+02  0.36363267058E+03  0.78494771910E+02 0.  0.
         24    2    4    4    0    0 -0.67871880665E+03 -0.59330499793E+03 -0.43275508322E+03  0.10029519771E+04  0.77237732564E+02 0.  0.
         11    1    3    3    0    0  0.14055686748E+03  0.16649779249E+03  0.31670488152E+02  0.22018348648E+03  0.00000000000E+00 0. -1.
        -12    1    3    3    0    0  0.46768252401E+03  0.76305844515E+03  0.39715134295E+02  0.89585848541E+03  0.00000000000E+00 0.  1.
         15    1    5    5    0    0  0.68171827607E+02 -0.21451174322E+03 -0.27000270190E+02  0.22670434133E+03  0.17770000000E+01 0. -1.
        -16    1    5    5    0    0  0.23075875463E+01 -0.12173949649E+03 -0.62638146412E+02  0.13692832925E+03  0.00000000000E+00 0.  1.
          2    1    6    6  502    0 -0.34564637718E+03 -0.25124731656E+03 -0.20911623705E+03  0.47573756708E+03  0.00000000000E+00 0. -1.
         -1    1    6    6    0  502 -0.33307242947E+03 -0.34205768137E+03 -0.22363884616E+03  0.52721441006E+03  0.00000000000E+00 0.  1.
<mgrwt>
<rscale>  0 0.11822342E+04</rscale>
<asrwt>0</asrwt>
<pdfrwt beam="1">  1        1 0.15627837E+00 0.11822342E+04</pdfrwt>
<pdfrwt beam="2">  1       -2 0.22566419E+00 0.11822342E+04</pdfrwt>
<totfact> 0.11474971E+00</totfact>
</mgrwt>
</event>
<event>
12    3  0.1182097E-007  0.1059178E+04  0.7818608E-02  0.9245919E-01
         -2   -1    0    0    0  501 -0.00000000000E+00  0.00000000000E+00  0.47785100241E+03  0.47785100241E+03  0.00000000000E+00 0.  1.
          1   -1    0    0  501    0  0.00000000000E+00 -0.00000000000E+00 -0.26248100112E+04  0.26248100112E+04  0.00000000000E+00 0. -1.
        -24    2    1    2    0    0  0.35169826958E+03 -0.95515720170E+03 -0.71652189627E+03  0.12472386826E+04  0.78636828628E+02 0.  0.
    5000000    2    1    2    0    0 -0.35169826958E+03  0.95515720170E+03 -0.14304371125E+04  0.18554223310E+04  0.60035384621E+03 0.  0.
        -24    2    4    4    0    0  0.61028389568E+02  0.29829221817E+03 -0.76509620289E+03  0.83026366627E+03  0.10612654756E+03 0.  0.
         24    2    4    4    0    0 -0.41272665914E+03  0.65686498352E+03 -0.66534090961E+03  0.10251586647E+04  0.80354589529E+02 0.  0.
         13    1    3    3    0    0  0.29884086371E+03 -0.85004630833E+03 -0.65872757976E+03  0.11161570734E+04  0.00000000000E+00 0. -1.
        -14    1    3    3    0    0  0.52857405868E+02 -0.10511089337E+03 -0.57794316508E+02  0.13108160924E+03  0.00000000000E+00 0.  1.
         15    1    5    5    0    0 -0.24478597220E+02  0.12081948035E+03 -0.34229731899E+03  0.36382298013E+03  0.17770000000E+01 0. -1.
        -16    1    5    5    0    0  0.85506986788E+02  0.17747273783E+03 -0.42279888390E+03  0.46644068614E+03  0.00000000000E+00 0.  1.
          4    1    6    6  502    0 -0.23854199752E+03  0.30927656502E+03 -0.35259976085E+03  0.52619470693E+03  0.00000000000E+00 0. -1.
         -3    1    6    6    0  502 -0.17418466163E+03  0.34758841851E+03 -0.31274114877E+03  0.49896395777E+03  0.00000000000E+00 0.  1.
<mgrwt>
<rscale>  0 0.10591781E+04</rscale>
<asrwt>0</asrwt>
<pdfrwt beam="1">  1        1 0.40381693E+00 0.10591781E+04</pdfrwt>
<pdfrwt beam="2">  1       -2 0.73515538E-01 0.10591781E+04</pdfrwt>
<totfact> 0.16392890E+00</totfact>
</mgrwt>
</event>
<event>
12    3  0.1182097E-007  0.7553342E+03  0.7818608E-02  0.9627019E-01
          1   -1    0    0  501    0  0.00000000000E+00  0.00000000000E+00  0.79453873769E+03  0.79453873769E+03  0.00000000000E+00 0. -1.
         -4   -1    0    0    0  501 -0.00000000000E+00 -0.00000000000E+00 -0.86076718167E+03  0.86076718167E+03  0.00000000000E+00 0.  1.
        -24    2    1    2    0    0  0.62574291470E+02  0.63491138598E+03 -0.35360444592E+03  0.73358834981E+03  0.78024052717E+02 0.  0.
    5000000    2    1    2    0    0 -0.62574291470E+02 -0.63491138598E+03  0.28737600194E+03  0.92171756954E+03  0.59995858316E+03 0.  0.
        -24    2    4    4    0    0 -0.28641529599E+03 -0.54086583221E+03  0.17369552934E+03  0.64139847518E+03  0.81561613640E+02 0.  0.
         24    2    4    4    0    0  0.22384100452E+03 -0.94045553768E+02  0.11368047261E+03  0.28031909436E+03  0.81891289668E+02 0.  0.
         13    1    3    3    0    0  0.13669444151E+02  0.44567734291E+03 -0.22323594522E+03  0.49864760595E+03  0.00000000000E+00 0. -1.
        -14    1    3    3    0    0  0.48904847319E+02  0.18923404307E+03 -0.13036850071E+03  0.23494074386E+03  0.00000000000E+00 0.  1.
         15    1    5    5    0    0 -0.22573926134E+03 -0.34543092352E+03  0.10967621030E+03  0.42698099006E+03  0.17770000000E+01 0. -1.
        -16    1    5    5    0    0 -0.60676034647E+02 -0.19543490870E+03  0.64019319037E+02  0.21441748513E+03  0.00000000000E+00 0.  1.
          4    1    6    6  502    0  0.94186644828E+02 -0.41690853621E+01  0.18517923115E+02  0.96080272758E+02  0.00000000000E+00 0. -1.
         -3    1    6    6    0  502  0.12965435969E+03 -0.89876468406E+02  0.95162549490E+02  0.18423882160E+03  0.00000000000E+00 0.  1.
<mgrwt>
<rscale>  0 0.75533420E+03</rscale>
<asrwt>0</asrwt>
<pdfrwt beam="1">  1        1 0.12223673E+00 0.75533420E+03</pdfrwt>
<pdfrwt beam="2">  1       -4 0.13242572E+00 0.75533420E+03</pdfrwt>
<totfact> 0.44555803E+00</totfact>
</mgrwt>
</event>
<event>
12    3  0.1182097E-007  0.9371787E+03  0.7818608E-02  0.9380263E-01
         -2   -1    0    0    0  501 -0.00000000000E+00  0.00000000000E+00  0.13437572787E+04  0.13437572787E+04  0.00000000000E+00 0.  1.
          1   -1    0    0  501    0  0.00000000000E+00 -0.00000000000E+00 -0.73848463006E+03  0.73848463006E+03  0.00000000000E+00 0. -1.
        -24    2    1    2    0    0  0.89379639351E+03  0.42478518311E+02  0.14244166248E+03  0.90955929837E+03  0.79574320448E+02 0.  0.
    5000000    2    1    2    0    0 -0.89379639351E+03 -0.42478518311E+02  0.46283098619E+03  0.11726826104E+04  0.60024625400E+03 0.  0.
        -24    2    4    4    0    0 -0.82926256800E+03 -0.14990812836E+03  0.19897391452E+03  0.86960677955E+03  0.80476572688E+02 0.  0.
         24    2    4    4    0    0 -0.64533825510E+02  0.10742961005E+03  0.26385707167E+03  0.30307583087E+03  0.80800180933E+02 0.  0.
         13    1    3    3    0    0  0.70277230982E+03  0.89439902265E+00  0.10689553875E+03  0.71085608642E+03  0.00000000000E+00 0. -1.
        -14    1    3    3    0    0  0.19102408369E+03  0.41584119288E+02  0.35546123733E+02  0.19870321195E+03  0.00000000000E+00 0.  1.
         15    1    5    5    0    0 -0.62408998776E+03 -0.77642332665E+02  0.15384859079E+03  0.64744821512E+03  0.17770000000E+01 0. -1.
        -16    1    5    5    0    0 -0.20517258024E+03 -0.72265795696E+02  0.45125323738E+02  0.22215856443E+03  0.00000000000E+00 0.  1.
          4    1    6    6  502    0 -0.17646962815E+01  0.29673071393E+02  0.11888743045E+02  0.32014801734E+02  0.00000000000E+00 0. -1.
         -3    1    6    6    0  502 -0.62769129229E+02  0.77756538657E+02  0.25196832862E+03  0.27106102914E+03  0.00000000000E+00 0.  1.
<mgrwt>
<rscale>  0 0.93717873E+03</rscale>
<asrwt>0</asrwt>
<pdfrwt beam="1">  1        1 0.11361302E+00 0.93717873E+03</pdfrwt>
<pdfrwt beam="2">  1       -2 0.20673189E+00 0.93717873E+03</pdfrwt>
<totfact> 0.26547807E+00</totfact>
</mgrwt>
</event>
<event>
12    3  0.1182097E-007  0.5574513E+03  0.7818608E-02  0.9997838E-01
          1   -1    0    0  501    0  0.00000000000E+00  0.00000000000E+00  0.13967502577E+04  0.13967502577E+04  0.00000000000E+00 0. -1.
         -2   -1    0    0    0  501 -0.00000000000E+00 -0.00000000000E+00 -0.33160737395E+03  0.33160737395E+03  0.00000000000E+00 0.  1.
        -24    2    1    2    0    0 -0.46848571812E+03  0.25828942650E+03  0.30229792429E+03  0.62014825907E+03  0.83711004473E+02 0.  0.
    5000000    2    1    2    0    0  0.46848571812E+03 -0.25828942650E+03  0.76284495950E+03  0.11082093726E+04  0.60000273782E+03 0.  0.
        -24    2    4    4    0    0  0.55902321616E+02 -0.11161381338E+03  0.62464897501E+03  0.64202586838E+03  0.80175811774E+02 0.  0.
         24    2    4    4    0    0  0.41258339651E+03 -0.14667561312E+03  0.13819598450E+03  0.46618350424E+03  0.80561373720E+02 0.  0.
         13    1    3    3    0    0 -0.83818751541E+02  0.24477081882E+02  0.78568620637E+02  0.11746377653E+03  0.00000000000E+00 0. -1.
        -14    1    3    3    0    0 -0.38466696658E+03  0.23381234462E+03  0.22372930366E+03  0.50268448255E+03  0.00000000000E+00 0.  1.
         15    1    5    5    0    0  0.23573317964E+02 -0.92480986563E+00  0.21995678278E+03  0.22122545200E+03  0.17770000000E+01 0. -1.
        -16    1    5    5    0    0  0.32329003652E+02 -0.11068900351E+03  0.40469219223E+03  0.42080041638E+03  0.00000000000E+00 0.  1.
          4    1    6    6  502    0  0.21023801346E+03 -0.62785493269E+02  0.28660383584E+02  0.22127688098E+03  0.00000000000E+00 0. -1.
         -3    1    6    6    0  502  0.20234538305E+03 -0.83890119854E+02  0.10953560091E+03  0.24490662326E+03  0.00000000000E+00 0.  1.
<mgrwt>
<rscale>  0 0.55745129E+03</rscale>
<asrwt>0</asrwt>
<pdfrwt beam="1">  1        1 0.21488465E+00 0.55745129E+03</pdfrwt>
<pdfrwt beam="2">  1       -2 0.51016520E-01 0.55745129E+03</pdfrwt>
<totfact> 0.25953931E+01</totfact>
</mgrwt>
</event>
<event>
12    3  0.1182097E-007  0.5070903E+03  0.7818608E-02  0.1011945E+00
         -2   -1    0    0    0  501 -0.00000000000E+00  0.00000000000E+00  0.38841901231E+03  0.38841901231E+03  0.00000000000E+00 0.  1.
          1   -1    0    0  501    0  0.00000000000E+00 -0.00000000000E+00 -0.82854172879E+03  0.82854172879E+03  0.00000000000E+00 0. -1.
        -24    2    1    2    0    0  0.36473411831E+03  0.10800101781E+03 -0.30433625156E+03  0.49376178289E+03  0.80529170588E+02 0.  0.
    5000000    2    1    2    0    0 -0.36473411831E+03 -0.10800101781E+03 -0.13578646491E+03  0.72319895821E+03  0.59990296899E+03 0.  0.
        -24    2    4    4    0    0 -0.40527150550E+03 -0.24381676085E+03  0.42348538352E+02  0.48149852409E+03  0.79723421632E+02 0.  0.
         24    2    4    4    0    0  0.40537387183E+02  0.13581574305E+03 -0.17813500327E+03  0.24170043413E+03  0.81226994586E+02 0.  0.
         11    1    3    3    0    0  0.29876675631E+03  0.81494763220E+02 -0.28305609750E+03  0.41955181496E+03  0.00000000000E+00 0. -1.
        -12    1    3    3    0    0  0.65967362008E+02  0.26506254588E+02 -0.21280154061E+02  0.74209967925E+02  0.00000000000E+00 0.  1.
         15    1    5    5    0    0 -0.21515558708E+03 -0.15752722748E+03  0.55213518190E+02  0.27232048099E+03  0.17770000000E+01 0. -1.
        -16    1    5    5    0    0 -0.19011591842E+03 -0.86289533372E+02 -0.12864979838E+02  0.20917804309E+03  0.00000000000E+00 0.  1.
          2    1    6    6  502    0 -0.42514966440E+00 -0.82100624752E+01  0.93607810348E+00  0.82741839658E+01  0.00000000000E+00 0. -1.
         -1    1    6    6    0  502  0.40962536847E+02  0.14402580552E+03 -0.17907108137E+03  0.23342625016E+03  0.00000000000E+00 0.  1.
<mgrwt>
<rscale>  0 0.50709032E+03</rscale>
<asrwt>0</asrwt>
<pdfrwt beam="1">  1        1 0.12746796E+00 0.50709032E+03</pdfrwt>
<pdfrwt beam="2">  1       -2 0.59756771E-01 0.50709032E+03</pdfrwt>
<totfact> 0.49948680E+01</totfact>
</mgrwt>
</event>
<event>
12    3  0.1182097E-007  0.4426017E+03  0.7818608E-02  0.1029952E+00
         -2   -1    0    0    0  501 -0.00000000000E+00  0.00000000000E+00  0.16796752109E+04  0.16796752109E+04  0.00000000000E+00 0.  1.
          1   -1    0    0  501    0  0.00000000000E+00 -0.00000000000E+00 -0.23018720795E+03  0.23018720795E+03  0.00000000000E+00 0. -1.
        -24    2    1    2    0    0  0.40969111599E+03 -0.39101758869E+02  0.91688746207E+03  0.10082249480E+04  0.80368959667E+02 0.  0.
    5000000    2    1    2    0    0 -0.40969111599E+03  0.39101758869E+02  0.53260054092E+03  0.90163747085E+03  0.59992585757E+03 0.  0.
        -24    2    4    4    0    0 -0.37267429015E+03  0.61734616957E+02  0.25357755875E+02  0.38630140920E+03  0.76736389663E+02 0.  0.
         24    2    4    4    0    0 -0.37016825836E+02 -0.22632858088E+02  0.50724278504E+03  0.51533606164E+03  0.79959500963E+02 0.  0.
         13    1    3    3    0    0  0.37249315700E+03 -0.44908320824E+02  0.76935275602E+03  0.85596236628E+03  0.00000000000E+00 0. -1.
        -14    1    3    3    0    0  0.37197958992E+02  0.58065619550E+01  0.14753470605E+03  0.15226258176E+03  0.00000000000E+00 0.  1.
         15    1    5    5    0    0 -0.19071071079E+03  0.62638963609E+02  0.36338540492E+02  0.20400456423E+03  0.17770000000E+01 0. -1.
        -16    1    5    5    0    0 -0.18196357936E+03 -0.90434665156E+00 -0.10980784617E+02  0.18229684497E+03  0.00000000000E+00 0.  1.
          4    1    6    6  502    0 -0.31846273765E+02  0.25777064352E+02  0.27593979520E+03  0.27896489523E+03  0.00000000000E+00 0. -1.
         -3    1    6    6    0  502 -0.51705520715E+01 -0.48409922440E+02  0.23130298985E+03  0.23637116641E+03  0.00000000000E+00 0.  1.
<mgrwt>
<rscale>  0 0.44260166E+03</rscale>
<asrwt>0</asrwt>
<pdfrwt beam="1">  1        1 0.35413418E-01 0.44260166E+03</pdfrwt>
<pdfrwt beam="2">  1       -2 0.25841156E+00 0.44260166E+03</pdfrwt>
<totfact> 0.66617696E+00</totfact>
</mgrwt>
</event>
<event>
12    3  0.1182097E-007  0.7256347E+03  0.7818608E-02  0.9674371E-01
         -2   -1    0    0    0  501 -0.00000000000E+00  0.00000000000E+00  0.41793099450E+03  0.41793099450E+03  0.00000000000E+00 0.  1.
          1   -1    0    0  501    0  0.00000000000E+00 -0.00000000000E+00 -0.14323938682E+04  0.14323938682E+04  0.00000000000E+00 0. -1.
        -24    2    1    2    0    0  0.38663057069E+03 -0.48549714457E+03 -0.68044820626E+03  0.92468393891E+03  0.82703989687E+02 0.  0.
    5000000    2    1    2    0    0 -0.38663057069E+03  0.48549714457E+03 -0.33401466740E+03  0.92564092375E+03  0.60004553669E+03 0.  0.
        -24    2    4    4    0    0 -0.38257660898E+03  0.58378277408E+03 -0.17759648081E+03  0.72483051576E+03  0.81679725278E+02 0.  0.
         24    2    4    4    0    0 -0.40539617080E+01 -0.98285629513E+02 -0.15641818659E+03  0.20081040799E+03  0.78623605150E+02 0.  0.
         11    1    3    3    0    0  0.22083875262E+03 -0.21201852847E+03 -0.34373074111E+03  0.46029602807E+03  0.00000000000E+00 0. -1.
        -12    1    3    3    0    0  0.16579181807E+03 -0.27347861610E+03 -0.33671746515E+03  0.46438791084E+03  0.00000000000E+00 0.  1.
         15    1    5    5    0    0 -0.69782918580E+02  0.14602125645E+03 -0.69042234626E+02  0.17595979925E+03  0.17770000000E+01 0. -1.
        -16    1    5    5    0    0 -0.31279369040E+03  0.43776151763E+03 -0.10855424618E+03  0.54887071651E+03  0.00000000000E+00 0.  1.
          4    1    6    6  502    0  0.36590298222E+02 -0.55070309107E+02 -0.91208398907E+02  0.11265238968E+03  0.00000000000E+00 0. -1.
         -3    1    6    6    0  502 -0.40644259930E+02 -0.43215320406E+02 -0.65209787686E+02  0.88158018314E+02  0.00000000000E+00 0.  1.
<mgrwt>
<rscale>  0 0.72563475E+03</rscale>
<asrwt>0</asrwt>
<pdfrwt beam="1">  1        1 0.22036829E+00 0.72563475E+03</pdfrwt>
<pdfrwt beam="2">  1       -2 0.64297076E-01 0.72563475E+03</pdfrwt>
<totfact> 0.14776623E+01</totfact>
</mgrwt>
</event>
<event>
12    3  0.1182097E-007  0.1053352E+04  0.7818608E-02  0.9251890E-01
         -2   -1    0    0    0  501 -0.00000000000E+00  0.00000000000E+00  0.12445101557E+04  0.12445101557E+04  0.00000000000E+00 0.  1.
          1   -1    0    0  501    0  0.00000000000E+00 -0.00000000000E+00 -0.99824830686E+03  0.99824830686E+03  0.00000000000E+00 0. -1.
        -24    2    1    2    0    0  0.61312233255E+03  0.82568977252E+03  0.20101917500E+03  0.10511609513E+04  0.82752895535E+02 0.  0.
    5000000    2    1    2    0    0 -0.61312233255E+03 -0.82568977252E+03  0.45242673802E+02  0.11915975112E+04  0.60014592733E+03 0.  0.
        -24    2    4    4    0    0 -0.15104585682E+03 -0.53760382827E+02  0.20774658589E+03  0.27391477251E+03  0.78521519512E+02 0.  0.
         24    2    4    4    0    0 -0.46207647574E+03 -0.77192938969E+03 -0.16250391209E+03  0.91768273871E+03  0.79651964057E+02 0.  0.
         13    1    3    3    0    0  0.83413671092E+02  0.10095705576E+03  0.53386774438E+02  0.14142247105E+03  0.00000000000E+00 0. -1.
        -14    1    3    3    0    0  0.52970866146E+03  0.72473271676E+03  0.14763240056E+03  0.90973848026E+03  0.00000000000E+00 0.  1.
         15    1    5    5    0    0 -0.39280435255E+02 -0.53626509323E+02  0.70417221369E+02  0.96852970477E+02  0.17770000000E+01 0. -1.
        -16    1    5    5    0    0 -0.11176542156E+03 -0.13387350428E+00  0.13732936452E+03  0.17706180203E+03  0.00000000000E+00 0.  1.
          4    1    6    6  502    0 -0.18603437778E+03 -0.29558421410E+03 -0.24569065233E+02  0.35011777491E+03  0.00000000000E+00 0. -1.
         -3    1    6    6    0  502 -0.27604209796E+03 -0.47634517559E+03 -0.13793484686E+03  0.56756496380E+03  0.00000000000E+00 0.  1.
<mgrwt>
<rscale>  0 0.10533524E+04</rscale>
<asrwt>0</asrwt>
<pdfrwt beam="1">  1        1 0.15357666E+00 0.10533524E+04</pdfrwt>
<pdfrwt beam="2">  1       -2 0.19146310E+00 0.10533524E+04</pdfrwt>
<totfact> 0.19971230E+00</totfact>
</mgrwt>
</event>
<event>
12    3  0.1182097E-007  0.9290448E+03  0.7818608E-02  0.9389985E-01
          1   -1    0    0  501    0  0.00000000000E+00  0.00000000000E+00  0.17092481891E+04  0.17092481891E+04  0.00000000000E+00 0. -1.
         -2   -1    0    0    0  501 -0.00000000000E+00 -0.00000000000E+00 -0.59915279471E+03  0.59915279471E+03  0.00000000000E+00 0.  1.
        -24    2    1    2    0    0 -0.61608595357E+03 -0.65557092906E+03  0.28188541921E+03  0.94641261278E+03  0.83080074983E+02 0.  0.
    5000000    2    1    2    0    0  0.61608595357E+03  0.65557092906E+03  0.82820997516E+03  0.13619883710E+04  0.59978780796E+03 0.  0.
        -24    2    4    4    0    0  0.14569348839E+03  0.30575168457E+01  0.42963255541E+03  0.46062126776E+03  0.79698674267E+02 0.  0.
         24    2    4    4    0    0  0.47039246517E+03  0.65251341221E+03  0.39857741975E+03  0.90136710324E+03  0.80968332395E+02 0.  0.
         11    1    3    3    0    0 -0.49993581355E+03 -0.53014955462E+03  0.26179319008E+03  0.77429325343E+03  0.00000000000E+00 0. -1.
        -12    1    3    3    0    0 -0.11615014002E+03 -0.12542137444E+03  0.20092229124E+02  0.17211935935E+03  0.00000000000E+00 0.  1.
         15    1    5    5    0    0 -0.44123902059E+00 -0.48208874238E+01  0.97971820114E+02  0.98107445756E+02  0.17770000000E+01 0. -1.
        -16    1    5    5    0    0  0.14613472741E+03  0.78784042695E+01  0.33166073529E+03  0.36251382201E+03  0.00000000000E+00 0.  1.
          4    1    6    6  502    0  0.16050075219E+03  0.27634566848E+03  0.13111307191E+03  0.34542446000E+03  0.00000000000E+00 0. -1.
         -3    1    6    6    0  502  0.30989171299E+03  0.37616774373E+03  0.26746434784E+03  0.55594264323E+03  0.00000000000E+00 0.  1.
<mgrwt>
<rscale>  0 0.92904476E+03</rscale>
<asrwt>0</asrwt>
<pdfrwt beam="1">  1        1 0.26296126E+00 0.92904476E+03</pdfrwt>
<pdfrwt beam="2">  1       -2 0.92177354E-01 0.92904476E+03</pdfrwt>
<totfact> 0.41707105E+00</totfact>
</mgrwt>
</event>
<event>
12    3  0.1182097E-007  0.1000894E+04  0.7818608E-02  0.9307564E-01
          1   -1    0    0  501    0  0.00000000000E+00  0.00000000000E+00  0.33866139715E+04  0.33866139715E+04  0.00000000000E+00 0. -1.
         -2   -1    0    0    0  501 -0.00000000000E+00 -0.00000000000E+00 -0.34301484608E+03  0.34301484608E+03  0.00000000000E+00 0.  1.
        -24    2    1    2    0    0 -0.98392945437E+03  0.11497390770E+03  0.15123616134E+04  0.18096711706E+04  0.79598526741E+02 0.  0.
    5000000    2    1    2    0    0  0.98392945437E+03 -0.11497390770E+03  0.15312375121E+04  0.19199576470E+04  0.60017737152E+03 0.  0.
        -24    2    4    4    0    0  0.19339355244E+03  0.53462183887E+02  0.36259284023E+02  0.21847546456E+03  0.78469877703E+02 0.  0.
         24    2    4    4    0    0  0.79053590194E+03 -0.16843609159E+03  0.14949782280E+04  0.17014821824E+04  0.82243453483E+02 0.  0.
         11    1    3    3    0    0 -0.26994862151E+03  0.41754233811E+02  0.48104034917E+03  0.55318666997E+03  0.00000000000E+00 0. -1.
        -12    1    3    3    0    0 -0.71398083286E+03  0.73219673889E+02  0.10313212642E+04  0.12564845007E+04  0.00000000000E+00 0.  1.
         15    1    5    5    0    0  0.52717859568E+02  0.21822897278E+02 -0.24356130698E+02  0.62062793964E+02  0.17770000000E+01 0. -1.
        -16    1    5    5    0    0  0.14067569287E+03  0.31639286609E+02  0.60615414721E+02  0.15641267060E+03  0.00000000000E+00 0.  1.
          2    1    6    6  502    0  0.68071689169E+03 -0.16138419033E+03  0.13367619762E+04  0.15087587364E+04  0.00000000000E+00 0. -1.
         -1    1    6    6    0  502  0.10981901025E+03 -0.70519012552E+01  0.15821625184E+03  0.19272344608E+03  0.00000000000E+00 0.  1.
<mgrwt>
<rscale>  0 0.10008944E+04</rscale>
<asrwt>0</asrwt>
<pdfrwt beam="1">  1        1 0.52101751E+00 0.10008944E+04</pdfrwt>
<pdfrwt beam="2">  1       -2 0.52771517E-01 0.10008944E+04</pdfrwt>
<totfact> 0.94279092E-01</totfact>
</mgrwt>
</event>
<event>
12    3  0.1182097E-007  0.9008631E+03  0.7818608E-02  0.9424503E-01
         -2   -1    0    0    0  501 -0.00000000000E+00  0.00000000000E+00  0.41221382157E+03  0.41221382157E+03  0.00000000000E+00 0.  1.
          1   -1    0    0  501    0  0.00000000000E+00 -0.00000000000E+00 -0.37952172133E+04  0.37952172133E+04  0.00000000000E+00 0. -1.
        -24    2    1    2    0    0  0.69091876655E+03  0.57087078791E+03 -0.31157742305E+03  0.95216640654E+03  0.79234946422E+02 0.  0.
    5000000    2    1    2    0    0 -0.69091876655E+03 -0.57087078791E+03 -0.30714259686E+04  0.32552646283E+04  0.59985675029E+03 0.  0.
        -24    2    4    4    0    0 -0.34596749581E+03 -0.32477439471E+03 -0.72880512958E+03  0.87336063668E+03  0.80187088616E+02 0.  0.
         24    2    4    4    0    0 -0.34495127074E+03 -0.24609639320E+03 -0.23426208391E+04  0.23819039916E+04  0.77713677688E+02 0.  0.
         11    1    3    3    0    0  0.63306379398E+03  0.49143770712E+03 -0.27435930314E+03  0.84708548238E+03  0.00000000000E+00 0. -1.
        -12    1    3    3    0    0  0.57854972567E+02  0.79433080784E+02 -0.37218119909E+02  0.10508092416E+03  0.00000000000E+00 0.  1.
         15    1    5    5    0    0 -0.31185011423E+03 -0.26633388945E+03 -0.65862030991E+03  0.77586603532E+03  0.17770000000E+01 0. -1.
        -16    1    5    5    0    0 -0.34117381574E+02 -0.58440505263E+02 -0.70184819672E+02  0.97494601354E+02  0.00000000000E+00 0.  1.
          4    1    6    6  502    0 -0.11987098140E+03 -0.73417073728E+02 -0.59295195839E+03  0.60938587435E+03  0.00000000000E+00 0. -1.
         -3    1    6    6    0  502 -0.22508028934E+03 -0.17267931947E+03 -0.17496688807E+04  0.17725181173E+04  0.00000000000E+00 0.  1.
<mgrwt>
<rscale>  0 0.90086307E+03</rscale>
<asrwt>0</asrwt>
<pdfrwt beam="1">  1        1 0.58387955E+00 0.90086307E+03</pdfrwt>
<pdfrwt beam="2">  1       -2 0.63417514E-01 0.90086307E+03</pdfrwt>
<totfact> 0.30963577E-01</totfact>
</mgrwt>
</event>
<event>
12    3  0.1182097E-007  0.3686457E+03  0.7818608E-02  0.1055212E+00
         -2   -1    0    0    0  501 -0.00000000000E+00  0.00000000000E+00  0.13141635508E+04  0.13141635508E+04  0.00000000000E+00 0.  1.
          1   -1    0    0  501    0  0.00000000000E+00 -0.00000000000E+00 -0.34431463066E+03  0.34431463066E+03  0.00000000000E+00 0. -1.
        -24    2    1    2    0    0 -0.36567903137E+02 -0.31411076410E+03 -0.14182832343E+03  0.35624010831E+03  0.82395131996E+02 0.  0.
    5000000    2    1    2    0    0  0.36567903137E+02  0.31411076410E+03  0.11116772435E+04  0.13022380731E+04  0.59999576798E+03 0.  0.
        -24    2    4    4    0    0  0.11880634781E+03  0.27265247033E+03  0.11360527182E+04  0.11770095563E+04  0.79255278965E+02 0.  0.
         24    2    4    4    0    0 -0.82238444677E+02  0.41458293767E+02 -0.24375474696E+02  0.12522851677E+03  0.81277707533E+02 0.  0.
         13    1    3    3    0    0 -0.45847903580E+02 -0.25515178416E+03 -0.14393901050E+03  0.29651796231E+03  0.00000000000E+00 0. -1.
        -14    1    3    3    0    0  0.92800004425E+01 -0.58958979938E+02  0.21106870712E+01  0.59722146005E+02  0.00000000000E+00 0.  1.
         15    1    5    5    0    0  0.54680572984E+02  0.15793222470E+03  0.48991904258E+03  0.51764503154E+03  0.17770000000E+01 0. -1.
        -16    1    5    5    0    0  0.64125774830E+02  0.11472024564E+03  0.64613367565E+03  0.65936452480E+03  0.00000000000E+00 0.  1.
          4    1    6    6  502    0 -0.18857384472E+02  0.52214192986E+02 -0.25127306525E+02  0.60936888922E+02  0.00000000000E+00 0. -1.
         -3    1    6    6    0  502 -0.63381060206E+02 -0.10755899219E+02  0.75183182909E+00  0.64291627852E+02  0.00000000000E+00 0.  1.
<mgrwt>
<rscale>  0 0.36864569E+03</rscale>
<asrwt>0</asrwt>
<pdfrwt beam="1">  1        1 0.52971482E-01 0.36864569E+03</pdfrwt>
<pdfrwt beam="2">  1       -2 0.20217901E+00 0.36864569E+03</pdfrwt>
<totfact> 0.89051836E+00</totfact>
</mgrwt>
</event>
<event>
12    3  0.1182097E-007  0.4211187E+03  0.7818608E-02  0.1036703E+00
         -2   -1    0    0    0  501 -0.00000000000E+00  0.00000000000E+00  0.18213374973E+03  0.18213374973E+03  0.00000000000E+00 0.  1.
          1   -1    0    0  501    0  0.00000000000E+00 -0.00000000000E+00 -0.13509485771E+04  0.13509485771E+04  0.00000000000E+00 0. -1.
        -24    2    1    2    0    0 -0.14558412792E+03 -0.15118888359E+03 -0.26698017382E+02  0.22596776788E+03  0.79346273808E+02 0.  0.
    5000000    2    1    2    0    0  0.14558412792E+03  0.15118888359E+03 -0.11421168100E+04  0.13071145590E+04  0.60005403567E+03 0.  0.
        -24    2    4    4    0    0 -0.21221751318E+03 -0.15883292603E+02 -0.34211325219E+03  0.41120202853E+03  0.82201454133E+02 0.  0.
         24    2    4    4    0    0  0.35780164110E+03  0.16707217619E+03 -0.80000355781E+03  0.89591253042E+03  0.81966110190E+02 0.  0.
         13    1    3    3    0    0 -0.12707697111E+03 -0.15627587892E+03 -0.36041400923E+02  0.20462084326E+03  0.00000000000E+00 0. -1.
        -14    1    3    3    0    0 -0.18507156813E+02  0.50869953283E+01  0.93433835414E+01  0.21346924621E+02  0.00000000000E+00 0.  1.
         15    1    5    5    0    0 -0.12242814669E+03 -0.46167052572E+02 -0.22791776373E+03  0.26281117289E+03  0.17770000000E+01 0. -1.
        -16    1    5    5    0    0 -0.89789366495E+02  0.30283759969E+02 -0.11419548846E+03  0.14839085564E+03  0.00000000000E+00 0.  1.
          2    1    6    6  502    0  0.28193963940E+03  0.11786895627E+03 -0.68128489118E+03  0.74668075780E+03  0.00000000000E+00 0. -1.
         -1    1    6    6    0  502  0.75862001702E+02  0.49203219923E+02 -0.11871866664E+03  0.14923177262E+03  0.00000000000E+00 0.  1.
<mgrwt>
<rscale>  0 0.42111870E+03</rscale>
<asrwt>0</asrwt>
<pdfrwt beam="1">  1        1 0.20783825E+00 0.42111870E+03</pdfrwt>
<pdfrwt beam="2">  1       -2 0.28020576E-01 0.42111870E+03</pdfrwt>
<totfact> 0.90072279E+01</totfact>
</mgrwt>
</event>
<event>
12    3  0.1182097E-007  0.1273646E+04  0.7818608E-02  0.9050729E-01
          1   -1    0    0  501    0  0.00000000000E+00  0.00000000000E+00  0.84054244831E+03  0.84054244831E+03  0.00000000000E+00 0. -1.
         -2   -1    0    0    0  501 -0.00000000000E+00 -0.00000000000E+00 -0.32443355599E+04  0.32443355599E+04  0.00000000000E+00 0.  1.
        -24    2    1    2    0    0  0.26891417052E+03  0.12369902583E+04  0.38867408571E+02  0.12690454326E+04  0.80659186365E+02 0.  0.
    5000000    2    1    2    0    0 -0.26891417052E+03 -0.12369902583E+04 -0.24426605201E+04  0.28158325756E+04  0.59988577817E+03 0.  0.
        -24    2    4    4    0    0 -0.33685079664E+02 -0.43708114331E+03 -0.14515779775E+04  0.15181751439E+04  0.74850065834E+02 0.  0.
         24    2    4    4    0    0 -0.23522909085E+03 -0.79990911498E+03 -0.99108254264E+03  0.12976574317E+04  0.80516372690E+02 0.  0.
         13    1    3    3    0    0  0.14655605486E+03  0.85081274279E+03  0.28674783292E+02  0.86381898781E+03  0.00000000000E+00 0. -1.
        -14    1    3    3    0    0  0.12235811565E+03  0.38617751550E+03  0.10192625279E+02  0.40522644479E+03  0.00000000000E+00 0.  1.
         15    1    5    5    0    0 -0.50012523762E+02 -0.17293796280E+03 -0.59781862639E+03  0.62433889779E+03  0.17770000000E+01 0. -1.
        -16    1    5    5    0    0  0.16327444098E+02 -0.26414318051E+03 -0.85375935110E+03  0.89383624609E+03  0.00000000000E+00 0.  1.
          2    1    6    6  502    0 -0.12614360440E+03 -0.38368885503E+03 -0.53910921137E+03  0.67362310544E+03  0.00000000000E+00 0. -1.
         -1    1    6    6    0  502 -0.10908548645E+03 -0.41622025995E+03 -0.45197333127E+03  0.62403432624E+03  0.00000000000E+00 0.  1.
<mgrwt>
<rscale>  0 0.12736461E+04</rscale>
<asrwt>0</asrwt>
<pdfrwt beam="1">  1        1 0.12931422E+00 0.12736461E+04</pdfrwt>
<pdfrwt beam="2">  1       -2 0.49912855E+00 0.12736461E+04</pdfrwt>
<totfact> 0.29027402E-02</totfact>
</mgrwt>
</event>
<event>
12    3  0.1182097E-007  0.8700059E+03  0.7818608E-02  0.9463872E-01
          1   -1    0    0  501    0  0.00000000000E+00  0.00000000000E+00  0.43978858345E+03  0.43978858345E+03  0.00000000000E+00 0. -1.
         -2   -1    0    0    0  501 -0.00000000000E+00 -0.00000000000E+00 -0.19746009170E+04  0.19746009170E+04  0.00000000000E+00 0.  1.
        -24    2    1    2    0    0 -0.58434995729E+03  0.52330048374E+03 -0.10529892797E+04  0.13155303992E+04  0.80780808908E+02 0.  0.
    5000000    2    1    2    0    0  0.58434995729E+03 -0.52330048374E+03 -0.48182305381E+03  0.10988591013E+04  0.60002466646E+03 0.  0.
        -24    2    4    4    0    0 -0.40513561818E+02  0.66943180615E+02 -0.12376449963E+02  0.11621488089E+03  0.85029312028E+02 0.  0.
         24    2    4    4    0    0  0.62486351911E+03 -0.59024366436E+03 -0.46944660385E+03  0.98264422037E+03  0.79796924329E+02 0.  0.
         11    1    3    3    0    0 -0.12002055715E+03  0.70934718291E+02 -0.21104432844E+03  0.25293551938E+03  0.00000000000E+00 0. -1.
        -12    1    3    3    0    0 -0.46432940014E+03  0.45236576545E+03 -0.84194495129E+03  0.10625948798E+04  0.00000000000E+00 0.  1.
         15    1    5    5    0    0 -0.34704896435E+02  0.14301222413E+02 -0.41326943862E+02  0.55857218128E+02  0.17770000000E+01 0. -1.
        -16    1    5    5    0    0 -0.58086653839E+01  0.52641958202E+02  0.28950493898E+02  0.60357662760E+02  0.00000000000E+00 0.  1.
          4    1    6    6  502    0  0.47901768353E+03 -0.48706498935E+03 -0.39480488196E+03  0.78902543673E+03  0.00000000000E+00 0. -1.
         -3    1    6    6    0  502  0.14584583557E+03 -0.10317867500E+03 -0.74641721886E+02  0.19361878363E+03  0.00000000000E+00 0.  1.
<mgrwt>
<rscale>  0 0.87000587E+03</rscale>
<asrwt>0</asrwt>
<pdfrwt beam="1">  1        1 0.67659781E-01 0.87000587E+03</pdfrwt>
<pdfrwt beam="2">  1       -2 0.30378476E+00 0.87000587E+03</pdfrwt>
<totfact> 0.14323500E+00</totfact>
</mgrwt>
</event>
<event>
12    3  0.1182097E-007  0.1943978E+04  0.7818608E-02  0.8633270E-01
         -2   -1    0    0    0  501 -0.00000000000E+00  0.00000000000E+00  0.19274282366E+04  0.19274282366E+04  0.00000000000E+00 0.  1.
          1   -1    0    0  501    0  0.00000000000E+00 -0.00000000000E+00 -0.21256582988E+04  0.21256582988E+04  0.00000000000E+00 0. -1.
        -24    2    1    2    0    0 -0.55412927543E+03  0.18579352052E+04 -0.49333454468E+03  0.20022093621E+04  0.80503888030E+02 0.  0.
    5000000    2    1    2    0    0  0.55412927543E+03 -0.18579352052E+04  0.29510448248E+03  0.20508771734E+04  0.60002336975E+03 0.  0.
        -24    2    4    4    0    0  0.42974757006E+03 -0.11713956825E+04 -0.84102385886E+02  0.12532007971E+04  0.81167773661E+02 0.  0.
         24    2    4    4    0    0  0.12438170536E+03 -0.68653952268E+03  0.37920686837E+03  0.79767637634E+03  0.75381877924E+02 0.  0.
         13    1    3    3    0    0 -0.24222283389E+02  0.10540857737E+03 -0.45566289759E+02  0.11736257478E+03  0.00000000000E+00 0. -1.
        -14    1    3    3    0    0 -0.52990699204E+03  0.17525266278E+04 -0.44776825493E+03  0.18848467873E+04  0.00000000000E+00 0.  1.
         15    1    5    5    0    0  0.66928161883E+02 -0.25850837204E+03 -0.38493907192E+02  0.26979787969E+03  0.17770000000E+01 0. -1.
        -16    1    5    5    0    0  0.36281940818E+03 -0.91288731049E+03 -0.45608478694E+02  0.98340291739E+03  0.00000000000E+00 0.  1.
          2    1    6    6  502    0  0.30487625058E+02 -0.30859326165E+03  0.13655919242E+03  0.33883286359E+03  0.00000000000E+00 0. -1.
         -1    1    6    6    0  502  0.93894080307E+02 -0.37794626103E+03  0.24264767595E+03  0.45884351275E+03  0.00000000000E+00 0.  1.
<mgrwt>
<rscale>  0 0.19439784E+04</rscale>
<asrwt>0</asrwt>
<pdfrwt beam="1">  1        1 0.32702435E+00 0.19439784E+04</pdfrwt>
<pdfrwt beam="2">  1       -2 0.29652742E+00 0.19439784E+04</pdfrwt>
<totfact> 0.64111264E-02</totfact>
</mgrwt>
</event>
<event>
12    3  0.1182097E-007  0.5986007E+03  0.7818608E-02  0.9908314E-01
         -2   -1    0    0    0  501 -0.00000000000E+00  0.00000000000E+00  0.13740110201E+04  0.13740110201E+04  0.00000000000E+00 0.  1.
          1   -1    0    0  501    0  0.00000000000E+00 -0.00000000000E+00 -0.43326493153E+03  0.43326493153E+03  0.00000000000E+00 0. -1.
        -24    2    1    2    0    0 -0.15552757959E+03 -0.53249288835E+03 -0.10386409288E+01  0.56044305586E+03  0.79736039039E+02 0.  0.
    5000000    2    1    2    0    0  0.15552757959E+03  0.53249288835E+03  0.94178472950E+03  0.12468328958E+04  0.59991356802E+03 0.  0.
        -24    2    4    4    0    0 -0.37193921551E+02  0.40662056893E+03  0.91028505507E+03  0.10007560952E+04  0.78550656882E+02 0.  0.
         24    2    4    4    0    0  0.19272150114E+03  0.12587231942E+03  0.31499674424E+02  0.24607680058E+03  0.81093430645E+02 0.  0.
         11    1    3    3    0    0 -0.51081753901E+02 -0.28005226711E+03  0.26294821204E+02  0.28588465422E+03  0.00000000000E+00 0. -1.
        -12    1    3    3    0    0 -0.10444582569E+03 -0.25244062124E+03 -0.27333462133E+02  0.27455840164E+03  0.00000000000E+00 0.  1.
         15    1    5    5    0    0 -0.63974597737E+01  0.54203456197E+02  0.68112887165E+02  0.87301003902E+02  0.17770000000E+01 0. -1.
        -16    1    5    5    0    0 -0.30796461777E+02  0.35241711274E+03  0.84217216791E+03  0.91345509129E+03  0.00000000000E+00 0.  1.
          4    1    6    6  502    0  0.12785267560E+03  0.94000193944E+02 -0.16147088776E+02  0.15950884488E+03  0.00000000000E+00 0. -1.
         -3    1    6    6    0  502  0.64868825546E+02  0.31872125478E+02  0.47646763200E+02  0.86567955698E+02  0.00000000000E+00 0.  1.
<mgrwt>
<rscale>  0 0.59860065E+03</rscale>
<asrwt>0</asrwt>
<pdfrwt beam="1">  1        1 0.66656144E-01 0.59860065E+03</pdfrwt>
<pdfrwt beam="2">  1       -2 0.21138631E+00 0.59860065E+03</pdfrwt>
<totfact> 0.55373488E+00</totfact>
</mgrwt>
</event>
<event>
12    3  0.1182097E-007  0.8572353E+03  0.7818608E-02  0.9480677E-01
         -2   -1    0    0    0  501 -0.00000000000E+00  0.00000000000E+00  0.69002688896E+03  0.69002688896E+03  0.00000000000E+00 0.  1.
          1   -1    0    0  501    0  0.00000000000E+00 -0.00000000000E+00 -0.25836486486E+04  0.25836486486E+04  0.00000000000E+00 0. -1.
        -24    2    1    2    0    0 -0.81733032049E+03  0.22019244935E+03 -0.20546724092E+04  0.22236291643E+04  0.79588839984E+02 0.  0.
    5000000    2    1    2    0    0  0.81733032049E+03 -0.22019244935E+03  0.16105064959E+03  0.10500463733E+04  0.60012207653E+03 0.  0.
        -24    2    4    4    0    0  0.16067544710E+03 -0.81659989752E+01  0.29226541700E+03  0.34306962584E+03  0.79965063359E+02 0.  0.
         24    2    4    4    0    0  0.65665487339E+03 -0.21202645037E+03 -0.13121476741E+03  0.70697674743E+03  0.80299239192E+02 0.  0.
         11    1    3    3    0    0 -0.67114640205E+03  0.19565021115E+03 -0.17604856129E+04  0.18942085660E+04  0.00000000000E+00 0. -1.
        -12    1    3    3    0    0 -0.14618391844E+03  0.24542238196E+02 -0.29418679630E+03  0.32942059830E+03  0.00000000000E+00 0.  1.
         15    1    5    5    0    0  0.15898201661E+03  0.60098575074E+01  0.23321994429E+03  0.28232268796E+03  0.17770000000E+01 0. -1.
        -16    1    5    5    0    0  0.16934304869E+01 -0.14175856483E+02  0.59045472714E+02  0.60746937880E+02  0.00000000000E+00 0.  1.
          4    1    6    6  502    0  0.40900014823E+03 -0.95123124130E+02 -0.97136607165E+02  0.43100469887E+03  0.00000000000E+00 0. -1.
         -3    1    6    6    0  502  0.24765472516E+03 -0.11690332624E+03 -0.34078160249E+02  0.27597204856E+03  0.00000000000E+00 0.  1.
<mgrwt>
<rscale>  0 0.85723526E+03</rscale>
<asrwt>0</asrwt>
<pdfrwt beam="1">  1        1 0.39748440E+00 0.85723526E+03</pdfrwt>
<pdfrwt beam="2">  1       -2 0.10615798E+00 0.85723526E+03</pdfrwt>
<totfact> 0.77317136E-01</totfact>
</mgrwt>
</event>
<event>
12    3  0.1182097E-007  0.5705831E+03  0.7818608E-02  0.9968389E-01
          1   -1    0    0  501    0  0.00000000000E+00  0.00000000000E+00  0.22716122635E+04  0.22716122635E+04  0.00000000000E+00 0. -1.
         -2   -1    0    0    0  501 -0.00000000000E+00 -0.00000000000E+00 -0.28163049606E+03  0.28163049606E+03  0.00000000000E+00 0.  1.
        -24    2    1    2    0    0 -0.40582477812E+03 -0.14558145477E+03  0.17063373470E+04  0.17618154436E+04  0.80739117452E+02 0.  0.
    5000000    2    1    2    0    0  0.40582477812E+03  0.14558145477E+03  0.28364442048E+03  0.79142731598E+03  0.60001277379E+03 0.  0.
        -24    2    4    4    0    0  0.13902545522E+03  0.33812675055E+03  0.25805002273E+03  0.45525407926E+03  0.83717894266E+02 0.  0.
         24    2    4    4    0    0  0.26679932290E+03 -0.19254529578E+03  0.25594397758E+02  0.33617323672E+03  0.64045314183E+02 0.  0.
         13    1    3    3    0    0 -0.16859924091E+03 -0.10196392713E+03  0.72965309772E+03  0.75578832320E+03  0.00000000000E+00 0. -1.
        -14    1    3    3    0    0 -0.23722553721E+03 -0.43617527634E+02  0.97668424928E+03  0.10060271204E+04  0.00000000000E+00 0.  1.
         15    1    5    5    0    0  0.11306126492E+03  0.17500320981E+03  0.12346552510E+03  0.24218973283E+03  0.17770000000E+01 0. -1.
        -16    1    5    5    0    0  0.25964190299E+02  0.16312354073E+03  0.13458449762E+03  0.21306434643E+03  0.00000000000E+00 0.  1.
          4    1    6    6  502    0  0.13040610222E+03 -0.84434758924E+02 -0.18988935896E+02  0.15651057376E+03  0.00000000000E+00 0. -1.
         -3    1    6    6    0  502  0.13639322068E+03 -0.10811053685E+03  0.44583333654E+02  0.17966266297E+03  0.00000000000E+00 0.  1.
<mgrwt>
<rscale>  0 0.57058308E+03</rscale>
<asrwt>0</asrwt>
<pdfrwt beam="1">  1        1 0.34947880E+00 0.57058308E+03</pdfrwt>
<pdfrwt beam="2">  1       -2 0.43327770E-01 0.57058308E+03</pdfrwt>
<totfact> 0.93315346E+00</totfact>
</mgrwt>
</event>
<event>
12    3  0.1182097E-007  0.1333369E+04  0.7818608E-02  0.9003514E-01
          1   -1    0    0  501    0  0.00000000000E+00  0.00000000000E+00  0.17953184313E+04  0.17953184313E+04  0.00000000000E+00 0. -1.
         -2   -1    0    0    0  501 -0.00000000000E+00 -0.00000000000E+00 -0.10156731166E+04  0.10156731166E+04  0.00000000000E+00 0.  1.
        -24    2    1    2    0    0  0.12560879016E+04  0.18263250944E+03  0.56212749287E+03  0.13903345936E+04  0.77016321077E+02 0.  0.
    5000000    2    1    2    0    0 -0.12560879016E+04 -0.18263250944E+03  0.21751782179E+03  0.14206569544E+04  0.59986725959E+03 0.  0.
        -24    2    4    4    0    0 -0.87135418537E+03  0.15169608299E+03  0.12997646804E+03  0.89748649342E+03  0.79487770601E+02 0.  0.
         24    2    4    4    0    0 -0.38473371625E+03 -0.33432859244E+03  0.87541353759E+02  0.52317046096E+03  0.79045572036E+02 0.  0.
         11    1    3    3    0    0  0.79424834163E+03  0.13918033913E+03  0.38808314386E+03  0.89487994812E+03  0.00000000000E+00 0. -1.
        -12    1    3    3    0    0  0.46183955999E+03  0.43452170318E+02  0.17404434900E+03  0.49545464545E+03  0.00000000000E+00 0.  1.
         15    1    5    5    0    0 -0.72434868278E+03  0.10480661778E+03  0.12903360859E+03  0.74318118332E+03  0.17770000000E+01 0. -1.
        -16    1    5    5    0    0 -0.14700550259E+03  0.46889465217E+02  0.94285944588E+00  0.15430531010E+03  0.00000000000E+00 0.  1.
          2    1    6    6  502    0 -0.16663409840E+03 -0.16127116959E+03  0.19837172973E+01  0.23190353173E+03  0.00000000000E+00 0. -1.
         -1    1    6    6    0  502 -0.21809961785E+03 -0.17305742284E+03  0.85557636461E+02  0.29126692923E+03  0.00000000000E+00 0.  1.
<mgrwt>
<rscale>  0 0.13333694E+04</rscale>
<asrwt>0</asrwt>
<pdfrwt beam="1">  1        1 0.27620284E+00 0.13333694E+04</pdfrwt>
<pdfrwt beam="2">  1       -2 0.15625740E+00 0.13333694E+04</pdfrwt>
<totfact> 0.93017869E-01</totfact>
</mgrwt>
</event>
<event>
12    3  0.1182097E-007  0.5597242E+03  0.7818608E-02  0.9992679E-01
          1   -1    0    0  501    0  0.00000000000E+00  0.00000000000E+00  0.14699439233E+04  0.14699439233E+04  0.00000000000E+00 0. -1.
         -2   -1    0    0    0  501 -0.00000000000E+00 -0.00000000000E+00 -0.36105652191E+03  0.36105652191E+03  0.00000000000E+00 0.  1.
        -24    2    1    2    0    0  0.16435619390E+03  0.51048373154E+03  0.12068195206E+03  0.55660958433E+03  0.87427096352E+02 0.  0.
    5000000    2    1    2    0    0 -0.16435619390E+03 -0.51048373154E+03  0.98820544929E+03  0.12743908608E+04  0.59992954381E+03 0.  0.
        -24    2    4    4    0    0 -0.12418597317E+03 -0.74733147580E+02  0.75373969981E+03  0.77171102574E+03  0.80044818016E+02 0.  0.
         24    2    4    4    0    0 -0.40170220733E+02 -0.43575058396E+03  0.23446574947E+03  0.50267983509E+03  0.78870849375E+02 0.  0.
         11    1    3    3    0    0  0.12092709469E+03  0.40250340926E+03  0.12980620301E+03  0.43986589665E+03  0.00000000000E+00 0. -1.
        -12    1    3    3    0    0  0.43429099214E+02  0.10798032227E+03 -0.91242509521E+01  0.11674368767E+03  0.00000000000E+00 0.  1.
         15    1    5    5    0    0 -0.75075711774E+02 -0.40533996216E+02  0.61104351552E+03  0.61697382679E+03  0.17770000000E+01 0. -1.
        -16    1    5    5    0    0 -0.49110261395E+02 -0.34199151363E+02  0.14269618429E+03  0.15473719895E+03  0.00000000000E+00 0.  1.
          4    1    6    6  502    0 -0.20305250521E+02 -0.20936850704E+03  0.68311922829E+02  0.22116508255E+03  0.00000000000E+00 0. -1.
         -3    1    6    6    0  502 -0.19864970212E+02 -0.22638207691E+03  0.16615382665E+03  0.28151475254E+03  0.00000000000E+00 0.  1.
<mgrwt>
<rscale>  0 0.55972422E+03</rscale>
<asrwt>0</asrwt>
<pdfrwt beam="1">  1        1 0.22614522E+00 0.55972422E+03</pdfrwt>
<pdfrwt beam="2">  1       -2 0.55547158E-01 0.55972422E+03</pdfrwt>
<totfact> 0.19411953E+01</totfact>
</mgrwt>
</event>
<event>
12    3  0.1182097E-007  0.9573053E+03  0.7818608E-02  0.9356652E-01
         -2   -1    0    0    0  501 -0.00000000000E+00  0.00000000000E+00  0.51006285291E+03  0.51006285291E+03  0.00000000000E+00 0.  1.
          1   -1    0    0  501    0  0.00000000000E+00 -0.00000000000E+00 -0.20047120072E+04  0.20047120072E+04  0.00000000000E+00 0. -1.
        -24    2    1    2    0    0 -0.91292875972E+02 -0.90896884867E+03 -0.54485020347E+03  0.10667168483E+04  0.80401077370E+02 0.  0.
    5000000    2    1    2    0    0  0.91292875972E+02  0.90896884867E+03 -0.94979895085E+03  0.14480580118E+04  0.60016264581E+03 0.  0.
        -24    2    4    4    0    0 -0.15814514224E+03  0.27823198529E+03 -0.59350356708E+03  0.67878136141E+03  0.77940546655E+02 0.  0.
         24    2    4    4    0    0  0.24943801821E+03  0.63073686338E+03 -0.35629538377E+03  0.76927665038E+03  0.69223179421E+02 0.  0.
         11    1    3    3    0    0 -0.54050848917E+02 -0.49496133482E+03 -0.34305812225E+03  0.60464625400E+03  0.00000000000E+00 0. -1.
        -12    1    3    3    0    0 -0.37242027055E+02 -0.41400751385E+03 -0.20179208121E+03  0.46207059433E+03  0.00000000000E+00 0.  1.
         15    1    5    5    0    0 -0.10496974622E+03  0.17529523030E+03 -0.45095727245E+03  0.49508856248E+03  0.17770000000E+01 0. -1.
        -16    1    5    5    0    0 -0.53175396018E+02  0.10293675499E+03 -0.14254629462E+03  0.18369279893E+03  0.00000000000E+00 0.  1.
          4    1    6    6  502    0  0.17223696528E+03  0.50202900831E+03 -0.29434258320E+03  0.60690712113E+03  0.00000000000E+00 0. -1.
         -3    1    6    6    0  502  0.77201052936E+02  0.12870785507E+03 -0.61952800574E+02  0.16236952925E+03  0.00000000000E+00 0.  1.
<mgrwt>
<rscale>  0 0.95730531E+03</rscale>
<asrwt>0</asrwt>
<pdfrwt beam="1">  1        1 0.30841723E+00 0.95730531E+03</pdfrwt>
<pdfrwt beam="2">  1       -2 0.78471208E-01 0.95730531E+03</pdfrwt>
<totfact> 0.37974699E+00</totfact>
</mgrwt>
</event>
<event>
12    3  0.1182097E-007  0.1460573E+04  0.7818608E-02  0.8911103E-01
          1   -1    0    0  501    0  0.00000000000E+00  0.00000000000E+00  0.14957085561E+04  0.14957085561E+04  0.00000000000E+00 0. -1.
         -2   -1    0    0    0  501 -0.00000000000E+00 -0.00000000000E+00 -0.21011847327E+04  0.21011847327E+04  0.00000000000E+00 0.  1.
        -24    2    1    2    0    0 -0.77067678134E+03  0.11828247950E+04 -0.12927648510E+04  0.19159822127E+04  0.82034642166E+02 0.  0.
    5000000    2    1    2    0    0  0.77067678134E+03 -0.11828247950E+04  0.68728867436E+03  0.16809110761E+04  0.60006593555E+03 0.  0.
        -24    2    4    4    0    0  0.33475547691E+03 -0.12596591533E+03  0.29341867670E+03  0.46899413826E+03  0.77021690031E+02 0.  0.
         24    2    4    4    0    0  0.43592130443E+03 -0.10568588796E+04  0.39386999765E+03  0.12119169378E+04  0.81431038895E+02 0.  0.
         11    1    3    3    0    0 -0.25347303017E+03  0.33642976868E+03 -0.41843825347E+03  0.59373743207E+03  0.00000000000E+00 0. -1.
        -12    1    3    3    0    0 -0.51720375117E+03  0.84639502627E+03 -0.87432659754E+03  0.13222447806E+04  0.00000000000E+00 0.  1.
         15    1    5    5    0    0  0.37925300757E+02 -0.39929519969E+02  0.28990356497E+02  0.62259886775E+02  0.17770000000E+01 0. -1.
        -16    1    5    5    0    0  0.29683017615E+03 -0.86036395364E+02  0.26442832021E+03  0.40673425148E+03  0.00000000000E+00 0.  1.
          2    1    6    6  502    0  0.16325770294E+03 -0.34876419392E+03  0.96844306801E+02  0.39707475403E+03  0.00000000000E+00 0. -1.
         -1    1    6    6    0  502  0.27266360149E+03 -0.70809468570E+03  0.29702569085E+03  0.81484218381E+03  0.00000000000E+00 0.  1.
<mgrwt>
<rscale>  0 0.14605728E+04</rscale>
<asrwt>0</asrwt>
<pdfrwt beam="1">  1        1 0.23010901E+00 0.14605728E+04</pdfrwt>
<pdfrwt beam="2">  1       -2 0.32325919E+00 0.14605728E+04</pdfrwt>
<totfact> 0.12514452E-01</totfact>
</mgrwt>
</event>
<event>
12    3  0.1182097E-007  0.2434056E+04  0.7818608E-02  0.8426862E-01
          3   -1    0    0  501    0  0.00000000000E+00  0.00000000000E+00  0.25220169171E+04  0.25220169171E+04  0.00000000000E+00 0. -1.
         -4   -1    0    0    0  501 -0.00000000000E+00 -0.00000000000E+00 -0.24266556090E+04  0.24266556090E+04  0.00000000000E+00 0.  1.
        -24    2    1    2    0    0 -0.50054714044E+03  0.23592047065E+04  0.39592819658E+03  0.24453315653E+04  0.80579403884E+02 0.  0.
    5000000    2    1    2    0    0  0.50054714044E+03 -0.23592047065E+04 -0.30056688839E+03  0.25033409608E+04  0.59998435359E+03 0.  0.
        -24    2    4    4    0    0  0.16078506719E+03 -0.18742064751E+03  0.77576480137E+02  0.27137297747E+03  0.81528189498E+02 0.  0.
         24    2    4    4    0    0  0.33976207325E+03 -0.21717840590E+04 -0.37814336853E+03  0.22319679833E+04  0.81267497077E+02 0.  0.
         13    1    3    3    0    0 -0.18520019991E+03  0.77695977531E+03  0.98451967533E+02  0.80477226369E+03  0.00000000000E+00 0. -1.
        -14    1    3    3    0    0 -0.31534694053E+03  0.15822449312E+04  0.29747622905E+03  0.16405593016E+04  0.00000000000E+00 0.  1.
         15    1    5    5    0    0  0.33720298654E+02 -0.45883833973E+01 -0.38638011405E+01  0.34295750345E+02  0.17770000000E+01 0. -1.
        -16    1    5    5    0    0  0.12706476854E+03 -0.18283226411E+03  0.81440281277E+02  0.23707722712E+03  0.00000000000E+00 0.  1.
          2    1    6    6  502    0  0.26018001674E+03 -0.14522791157E+04 -0.27385870854E+03  0.15006021668E+04  0.00000000000E+00 0. -1.
         -1    1    6    6    0  502  0.79582056514E+02 -0.71950494336E+03 -0.10428466000E+03  0.73136581651E+03  0.00000000000E+00 0.  1.
<mgrwt>
<rscale>  0 0.24340563E+04</rscale>
<asrwt>0</asrwt>
<pdfrwt beam="1">  1        3 0.38800260E+00 0.24340563E+04</pdfrwt>
<pdfrwt beam="2">  1       -4 0.37333163E+00 0.24340563E+04</pdfrwt>
<totfact> 0.25089144E-04</totfact>
</mgrwt>
</event>
<event>
12    3  0.2334822E-007  0.1606695E+04  0.7818608E-02  0.8816446E-01
          1   -1    0    0  501    0  0.00000000000E+00  0.00000000000E+00  0.25204958542E+04  0.25204958542E+04  0.00000000000E+00 0. -1.
         -2   -1    0    0    0  501 -0.00000000000E+00 -0.00000000000E+00 -0.10628029446E+04  0.10628029446E+04  0.00000000000E+00 0.  1.
        -24    2    1    2    0    0 -0.12642416495E+04 -0.93520880755E+03  0.87991490550E+03  0.18037552808E+04  0.79752177677E+02 0.  0.
    5000000    2    1    2    0    0  0.12642416495E+04  0.93520880755E+03  0.57777800410E+03  0.17795435180E+04  0.60002103993E+03 0.  0.
        -24    2    4    4    0    0  0.15229438560E+03  0.33543602207E+03 -0.23253055536E+02  0.37808846414E+03  0.81849113248E+02 0.  0.
         24    2    4    4    0    0  0.11119472639E+04  0.59977278548E+03  0.60103105964E+03  0.14014550539E+04  0.81754641537E+02 0.  0.
         13    1    3    3    0    0 -0.67737594988E+03 -0.49364170084E+03  0.42384202634E+03  0.93923499167E+03  0.00000000000E+00 0. -1.
        -14    1    3    3    0    0 -0.58686569963E+03 -0.44156710671E+03  0.45607287916E+03  0.86452028908E+03  0.00000000000E+00 0.  1.
         15    1    5    5    0    0  0.12940976503E+03  0.18877438464E+03 -0.10896125425E+02  0.22913868914E+03  0.17770000000E+01 0. -1.
        -16    1    5    5    0    0  0.22884620564E+02  0.14666163743E+03 -0.12356930111E+02  0.14894977500E+03  0.00000000000E+00 0.  1.
          4    1    6    6  502    0  0.33107707719E+03  0.18621559777E+03  0.14033780700E+03  0.40494812009E+03  0.00000000000E+00 0. -1.
         -3    1    6    6    0  502  0.78087018673E+03  0.41355718771E+03  0.46069325263E+03  0.99650693377E+03  0.00000000000E+00 0.  1.
<mgrwt>
<rscale>  0 0.16066946E+04</rscale>
<asrwt>0</asrwt>
<pdfrwt beam="1">  1        1 0.38776859E+00 0.16066946E+04</pdfrwt>
<pdfrwt beam="2">  1       -2 0.16350815E+00 0.16066946E+04</pdfrwt>
<totfact> 0.25511681E-01</totfact>
</mgrwt>
</event>
<event>
12    3  0.1182097E-007  0.9887706E+03  0.7818608E-02  0.9320947E-01
         -2   -1    0    0    0  501 -0.00000000000E+00  0.00000000000E+00  0.12195467193E+04  0.12195467193E+04  0.00000000000E+00 0.  1.
          1   -1    0    0  501    0  0.00000000000E+00 -0.00000000000E+00 -0.99782607161E+03  0.99782607161E+03  0.00000000000E+00 0. -1.
        -24    2    1    2    0    0  0.48398665088E+03  0.83504809888E+03 -0.22836247819E+03  0.99508566535E+03  0.80608028648E+02 0.  0.
    5000000    2    1    2    0    0 -0.48398665088E+03 -0.83504809888E+03  0.45008312589E+03  0.12222871256E+04  0.59988548196E+03 0.  0.
        -24    2    4    4    0    0 -0.47962588022E+03 -0.65079771956E+03  0.56636078469E+03  0.99027551863E+03  0.79387704374E+02 0.  0.
         24    2    4    4    0    0 -0.43607706548E+01 -0.18425037932E+03 -0.11627765880E+03  0.23201160694E+03  0.79634623236E+02 0.  0.
         13    1    3    3    0    0  0.41467970908E+03  0.65805255142E+03 -0.16911827215E+03  0.79598581114E+03  0.00000000000E+00 0. -1.
        -14    1    3    3    0    0  0.69306941797E+02  0.17699554745E+03 -0.59244206041E+02  0.19909985421E+03  0.00000000000E+00 0.  1.
         15    1    5    5    0    0 -0.39752821246E+03 -0.58246692132E+03  0.50112875188E+03  0.86511824500E+03  0.17770000000E+01 0. -1.
        -16    1    5    5    0    0 -0.82097667758E+02 -0.68330798236E+02  0.65232032817E+02  0.12515727364E+03  0.00000000000E+00 0.  1.
          2    1    6    6  502    0  0.32128609116E+02 -0.11448104290E+03 -0.89585826492E+02  0.14887503825E+03  0.00000000000E+00 0. -1.
         -1    1    6    6    0  502 -0.36489379771E+02 -0.69769336420E+02 -0.26691832310E+02  0.83136568685E+02  0.00000000000E+00 0.  1.
<mgrwt>
<rscale>  0 0.98877061E+03</rscale>
<asrwt>0</asrwt>
<pdfrwt beam="1">  1        1 0.15351170E+00 0.98877061E+03</pdfrwt>
<pdfrwt beam="2">  1       -2 0.18762257E+00 0.98877061E+03</pdfrwt>
<totfact> 0.21364597E+00</totfact>
</mgrwt>
</event>
<event>
12    3  0.1182097E-007  0.1032967E+04  0.7818608E-02  0.9273109E-01
         -2   -1    0    0    0  501 -0.00000000000E+00  0.00000000000E+00  0.91755393194E+03  0.91755393194E+03  0.00000000000E+00 0.  1.
          1   -1    0    0  501    0  0.00000000000E+00 -0.00000000000E+00 -0.12329788565E+04  0.12329788565E+04  0.00000000000E+00 0. -1.
        -24    2    1    2    0    0 -0.87056154268E+03  0.40390696794E+03 -0.33229437239E+03  0.10186764711E+04  0.79145211328E+02 0.  0.
    5000000    2    1    2    0    0  0.87056154268E+03 -0.40390696794E+03  0.16869447796E+02  0.11318563174E+04  0.59982989805E+03 0.  0.
        -24    2    4    4    0    0  0.10905200801E+03  0.11587639494E+03 -0.85205047598E+02  0.20081503277E+03  0.88017599908E+02 0.  0.
         24    2    4    4    0    0  0.76150953467E+03 -0.51978336287E+03  0.10207449539E+03  0.93104128462E+03  0.79669036331E+02 0.  0.
         13    1    3    3    0    0 -0.15927653673E+03  0.48794170429E+02 -0.78437369333E+02  0.18412579159E+03  0.00000000000E+00 0. -1.
        -14    1    3    3    0    0 -0.71128500595E+03  0.35511279751E+03 -0.25385700305E+03  0.83455067949E+03  0.00000000000E+00 0.  1.
         15    1    5    5    0    0  0.44415484450E+02  0.10784981004E+03 -0.52222770291E+02  0.12780724647E+03  0.17770000000E+01 0. -1.
        -16    1    5    5    0    0  0.64636523564E+02  0.80265848965E+01 -0.32982277307E+02  0.73007786296E+02  0.00000000000E+00 0.  1.
          2    1    6    6  502    0  0.30677103944E+03 -0.19025162741E+03  0.75750872029E+02  0.36883918851E+03  0.00000000000E+00 0. -1.
         -1    1    6    6    0  502  0.45473849523E+03 -0.32953173546E+03  0.26323623366E+02  0.56220209611E+03  0.00000000000E+00 0.  1.
<mgrwt>
<rscale>  0 0.10329666E+04</rscale>
<asrwt>0</asrwt>
<pdfrwt beam="1">  1        1 0.18968905E+00 0.10329666E+04</pdfrwt>
<pdfrwt beam="2">  1       -2 0.14116214E+00 0.10329666E+04</pdfrwt>
<totfact> 0.30954837E+00</totfact>
</mgrwt>
</event>
<event>
12    3  0.1182097E-007  0.6064386E+03  0.7818608E-02  0.9892137E-01
          1   -1    0    0  501    0  0.00000000000E+00  0.00000000000E+00  0.82947770912E+03  0.82947770912E+03  0.00000000000E+00 0. -1.
         -2   -1    0    0    0  501 -0.00000000000E+00 -0.00000000000E+00 -0.66385468750E+03  0.66385468750E+03  0.00000000000E+00 0.  1.
        -24    2    1    2    0    0 -0.45260976074E+03  0.39947741700E+03 -0.62306545611E+02  0.61230043208E+03  0.81190586202E+02 0.  0.
    5000000    2    1    2    0    0  0.45260976074E+03 -0.39947741700E+03  0.22792956723E+03  0.88103196454E+03  0.59985634340E+03 0.  0.
        -24    2    4    4    0    0  0.39440548922E+03 -0.35516543339E+03 -0.90964987816E+02  0.54454247031E+03  0.80954913092E+02 0.  0.
         24    2    4    4    0    0  0.58204271514E+02 -0.44311983616E+02  0.31889455504E+03  0.33648949424E+03  0.78613951578E+02 0.  0.
         13    1    3    3    0    0 -0.24380226788E+03  0.25137200515E+03 -0.62624380948E+01  0.35023798898E+03  0.00000000000E+00 0. -1.
        -14    1    3    3    0    0 -0.20880749286E+03  0.14810541185E+03 -0.56044107516E+02  0.26206244310E+03  0.00000000000E+00 0.  1.
         15    1    5    5    0    0  0.32462564241E+03 -0.31389731540E+03 -0.51875765209E+02  0.45454107083E+03  0.17770000000E+01 0. -1.
        -16    1    5    5    0    0  0.69779846814E+02 -0.41268117989E+02 -0.39089222607E+02  0.90001399477E+02  0.00000000000E+00 0.  1.
          4    1    6    6  502    0  0.48956913806E+02 -0.42045634103E+02  0.32041381168E+03  0.32684801586E+03  0.00000000000E+00 0. -1.
         -3    1    6    6    0  502  0.92473577078E+01 -0.22663495126E+01 -0.15192566328E+01  0.96414783828E+01  0.00000000000E+00 0.  1.
<mgrwt>
<rscale>  0 0.60643859E+03</rscale>
<asrwt>0</asrwt>
<pdfrwt beam="1">  1        1 0.12761195E+00 0.60643859E+03</pdfrwt>
<pdfrwt beam="2">  1       -2 0.10213149E+00 0.60643859E+03</pdfrwt>
<totfact> 0.14909275E+01</totfact>
</mgrwt>
</event>
<event>
12    3  0.1182097E-007  0.1457395E+04  0.7818608E-02  0.8913289E-01
          1   -1    0    0  501    0  0.00000000000E+00  0.00000000000E+00  0.34584383361E+04  0.34584383361E+04  0.00000000000E+00 0. -1.
         -2   -1    0    0    0  501 -0.00000000000E+00 -0.00000000000E+00 -0.76932318677E+03  0.76932318677E+03  0.00000000000E+00 0.  1.
        -24    2    1    2    0    0  0.80220874213E+03 -0.11520492976E+04  0.37530648293E+03  0.14556503673E+04  0.85478569272E+02 0.  0.
    5000000    2    1    2    0    0 -0.80220874213E+03  0.11520492976E+04  0.23138086664E+04  0.27721111555E+04  0.60011104298E+03 0.  0.
        -24    2    4    4    0    0 -0.24944027257E+03  0.25251242006E+02  0.49944021292E+03  0.56450630145E+03  0.79804531775E+02 0.  0.
         24    2    4    4    0    0 -0.55276846956E+03  0.11267980556E+04  0.18143684535E+04  0.22076048541E+04  0.79746271301E+02 0.  0.
         13    1    3    3    0    0  0.34934605074E+03 -0.53588719692E+03  0.13185732626E+03  0.65314937455E+03  0.00000000000E+00 0. -1.
        -14    1    3    3    0    0  0.45286269139E+03 -0.61616210066E+03  0.24344915666E+03  0.80250099279E+03  0.00000000000E+00 0.  1.
         15    1    5    5    0    0 -0.10490115043E+03 -0.84517329464E+01  0.13632314643E+03  0.17222903685E+03  0.17770000000E+01 0. -1.
        -16    1    5    5    0    0 -0.14453912215E+03  0.33702974952E+02  0.36311706649E+03  0.39227726461E+03  0.00000000000E+00 0.  1.
          2    1    6    6  502    0 -0.37895796960E+03  0.83733121693E+03  0.12897720964E+04  0.15837439093E+04  0.00000000000E+00 0. -1.
         -1    1    6    6    0  502 -0.17381049996E+03  0.28946683865E+03  0.52459635702E+03  0.62386094474E+03  0.00000000000E+00 0.  1.
<mgrwt>
<rscale>  0 0.14573955E+04</rscale>
<asrwt>0</asrwt>
<pdfrwt beam="1">  1        1 0.53206743E+00 0.14573955E+04</pdfrwt>
<pdfrwt beam="2">  1       -2 0.11835741E+00 0.14573955E+04</pdfrwt>
<totfact> 0.12503879E-01</totfact>
</mgrwt>
</event>
<event>
12    3  0.1182097E-007  0.7140844E+03  0.7818608E-02  0.9693445E-01
         -4   -1    0    0    0  501 -0.00000000000E+00  0.00000000000E+00  0.61247628767E+03  0.61247628767E+03  0.00000000000E+00 0.  1.
          1   -1    0    0  501    0  0.00000000000E+00 -0.00000000000E+00 -0.30472053625E+04  0.30472053625E+04  0.00000000000E+00 0. -1.
        -24    2    1    2    0    0 -0.61336205751E+03  0.67126355328E+02  0.37137542497E+03  0.72455081270E+03  0.79594049589E+02 0.  0.
    5000000    2    1    2    0    0  0.61336205751E+03 -0.67126355328E+02 -0.28061044998E+04  0.29351308374E+04  0.60004300524E+03 0.  0.
        -24    2    4    4    0    0  0.56787096553E+03 -0.24763094853E+03 -0.24232686935E+04  0.25024748758E+04  0.79692050559E+02 0.  0.
         24    2    4    4    0    0  0.45491091989E+02  0.18050459320E+03 -0.38283580627E+03  0.43265596165E+03  0.77308337042E+02 0.  0.
         11    1    3    3    0    0 -0.71579027485E+02 -0.50176370661E+01  0.18950956272E+02  0.74215042956E+02  0.00000000000E+00 0. -1.
        -12    1    3    3    0    0 -0.54178303003E+03  0.72143992394E+02  0.35242446870E+03  0.65033576974E+03  0.00000000000E+00 0.  1.
         15    1    5    5    0    0  0.26296919413E+03 -0.88790626439E+02 -0.95680391978E+03  0.99624970315E+03  0.17770000000E+01 0. -1.
        -16    1    5    5    0    0  0.30490177140E+03 -0.15884032209E+03 -0.14664647737E+04  0.15062251726E+04  0.00000000000E+00 0.  1.
          2    1    6    6  502    0  0.33277164810E+02  0.72174808125E+02 -0.89379417052E+02  0.11960456855E+03  0.00000000000E+00 0. -1.
         -1    1    6    6    0  502  0.12213927179E+02  0.10832978508E+03 -0.29345638922E+03  0.31305139310E+03  0.00000000000E+00 0.  1.
<mgrwt>
<rscale>  0 0.71408440E+03</rscale>
<asrwt>0</asrwt>
<pdfrwt beam="1">  1        1 0.46880082E+00 0.71408440E+03</pdfrwt>
<pdfrwt beam="2">  1       -4 0.94227122E-01 0.71408440E+03</pdfrwt>
<totfact> 0.26988478E-01</totfact>
</mgrwt>
</event>
<event>
12    3  0.1182097E-007  0.1387713E+04  0.7818608E-02  0.8962761E-01
         -2   -1    0    0    0  501 -0.00000000000E+00  0.00000000000E+00  0.76898164774E+03  0.76898164774E+03  0.00000000000E+00 0.  1.
          1   -1    0    0  501    0  0.00000000000E+00 -0.00000000000E+00 -0.25977796383E+04  0.25977796383E+04  0.00000000000E+00 0. -1.
        -24    2    1    2    0    0 -0.10829660426E+04  0.77150699756E+03 -0.60638179706E+03  0.14634966126E+04  0.78006118708E+02 0.  0.
    5000000    2    1    2    0    0  0.10829660426E+04 -0.77150699756E+03 -0.12224161935E+04  0.19032646734E+04  0.60006380503E+03 0.  0.
        -24    2    4    4    0    0  0.11359019653E+04 -0.76212939476E+03 -0.11095526909E+04  0.17630793911E+04  0.78913094336E+02 0.  0.
         24    2    4    4    0    0 -0.52935922681E+02 -0.93776028053E+01 -0.11286350265E+03  0.14018528228E+03  0.63431788515E+02 0.  0.
         13    1    3    3    0    0 -0.70433316765E+03  0.49872087846E+03 -0.43408105201E+03  0.96604041602E+03  0.00000000000E+00 0. -1.
        -14    1    3    3    0    0 -0.37863287499E+03  0.27278611910E+03 -0.17230074505E+03  0.49745619660E+03  0.00000000000E+00 0.  1.
         15    1    5    5    0    0  0.53124388219E+03 -0.31297012877E+03 -0.51926062281E+03  0.80610490384E+03  0.17770000000E+01 0. -1.
        -16    1    5    5    0    0  0.60465808313E+03 -0.44915926599E+03 -0.59029206804E+03  0.95697448729E+03  0.00000000000E+00 0.  1.
          4    1    6    6  502    0 -0.37296984790E+02  0.20239177892E+02 -0.33566626322E+02  0.54105524661E+02  0.00000000000E+00 0. -1.
         -3    1    6    6    0  502 -0.15638937891E+02 -0.29616780697E+02 -0.79296876326E+02  0.86079757622E+02  0.00000000000E+00 0.  1.
<mgrwt>
<rscale>  0 0.13877126E+04</rscale>
<asrwt>0</asrwt>
<pdfrwt beam="1">  1        1 0.39965840E+00 0.13877126E+04</pdfrwt>
<pdfrwt beam="2">  1       -2 0.11830487E+00 0.13877126E+04</pdfrwt>
<totfact> 0.53853201E-01</totfact>
</mgrwt>
</event>
<event>
12    3  0.1182097E-007  0.8386544E+03  0.7818608E-02  0.9505692E-01
         -2   -1    0    0    0  501 -0.00000000000E+00  0.00000000000E+00  0.52169552611E+03  0.52169552611E+03  0.00000000000E+00 0.  1.
          1   -1    0    0  501    0  0.00000000000E+00 -0.00000000000E+00 -0.16583460594E+04  0.16583460594E+04  0.00000000000E+00 0. -1.
        -24    2    1    2    0    0  0.51488951886E+03  0.62953085851E+03 -0.30865122567E+03  0.87345110320E+03  0.78936253501E+02 0.  0.
    5000000    2    1    2    0    0 -0.51488951886E+03 -0.62953085851E+03 -0.82799930758E+03  0.13065904823E+04  0.60014624596E+03 0.  0.
        -24    2    4    4    0    0 -0.26035835826E+02 -0.21311102484E+03 -0.56332663508E+03  0.60842730775E+03  0.82174919366E+02 0.  0.
         24    2    4    4    0    0 -0.48885368304E+03 -0.41641983367E+03 -0.26467267250E+03  0.69816317451E+03  0.70688000268E+02 0.  0.
         13    1    3    3    0    0  0.36537485152E+03  0.49412324380E+03 -0.21508531788E+03  0.65109005227E+03  0.00000000000E+00 0. -1.
        -14    1    3    3    0    0  0.14951466734E+03  0.13540761471E+03 -0.93565907794E+02  0.22236105093E+03  0.00000000000E+00 0.  1.
         15    1    5    5    0    0  0.78299360784E+01 -0.11987004564E+02 -0.11484086045E+03  0.11574358356E+03  0.17770000000E+01 0. -1.
        -16    1    5    5    0    0 -0.33865771904E+02 -0.20112402027E+03 -0.44848577462E+03  0.49268372419E+03  0.00000000000E+00 0.  1.
          4    1    6    6  502    0 -0.63078043379E+02 -0.42970245988E+02 -0.92498650887E+01  0.76881997899E+02  0.00000000000E+00 0. -1.
         -3    1    6    6    0  502 -0.42577563966E+03 -0.37344958769E+03 -0.25542280741E+03  0.62128117661E+03  0.00000000000E+00 0.  1.
<mgrwt>
<rscale>  0 0.83865441E+03</rscale>
<asrwt>0</asrwt>
<pdfrwt beam="1">  1        1 0.25513016E+00 0.83865441E+03</pdfrwt>
<pdfrwt beam="2">  1       -2 0.80260852E-01 0.83865441E+03</pdfrwt>
<totfact> 0.62708106E+00</totfact>
</mgrwt>
</event>
<event>
12    3  0.1182097E-007  0.7525009E+03  0.7818608E-02  0.9631435E-01
          1   -1    0    0  501    0  0.00000000000E+00  0.00000000000E+00  0.17156042168E+04  0.17156042168E+04  0.00000000000E+00 0. -1.
         -2   -1    0    0    0  501 -0.00000000000E+00 -0.00000000000E+00 -0.45359641126E+03  0.45359641126E+03  0.00000000000E+00 0.  1.
        -24    2    1    2    0    0 -0.67479285254E+03 -0.94265610196E+02  0.10211372018E+04  0.12301260839E+04  0.79104981553E+02 0.  0.
    5000000    2    1    2    0    0  0.67479285254E+03  0.94265610196E+02  0.24087060367E+03  0.93907454417E+03  0.59967570627E+03 0.  0.
        -24    2    4    4    0    0  0.20759141547E+03  0.24437370976E+03  0.29371698401E+03  0.43876973613E+03  0.58621743765E+02 0.  0.
         24    2    4    4    0    0  0.46720143706E+03 -0.15010809956E+03 -0.52846380343E+02  0.50030480805E+03  0.81869021547E+02 0.  0.
         13    1    3    3    0    0 -0.31955338718E+03 -0.82644479217E+02  0.51333859520E+03  0.61029582214E+03  0.00000000000E+00 0. -1.
        -14    1    3    3    0    0 -0.35523946536E+03 -0.11621130978E+02  0.50779860663E+03  0.61983026171E+03  0.00000000000E+00 0.  1.
         15    1    5    5    0    0  0.60034524990E+02  0.92285060465E+02  0.69222751247E+02  0.13006007687E+03  0.17770000000E+01 0. -1.
        -16    1    5    5    0    0  0.14755689048E+03  0.15208864929E+03  0.22449423277E+03  0.30870965926E+03  0.00000000000E+00 0.  1.
          4    1    6    6  502    0  0.23231444141E+03 -0.11754065705E+03 -0.29587643838E+02  0.26203288804E+03  0.00000000000E+00 0. -1.
         -3    1    6    6    0  502  0.23488699566E+03 -0.32567442517E+02 -0.23258736505E+02  0.23827192001E+03  0.00000000000E+00 0.  1.
<mgrwt>
<rscale>  0 0.75250094E+03</rscale>
<asrwt>0</asrwt>
<pdfrwt beam="1">  1        1 0.26393911E+00 0.75250094E+03</pdfrwt>
<pdfrwt beam="2">  1       -2 0.69784064E-01 0.75250094E+03</pdfrwt>
<totfact> 0.79167583E+00</totfact>
</mgrwt>
</event>
<event>
12    3  0.1182097E-007  0.8153473E+03  0.7818608E-02  0.9538064E-01
          1   -1    0    0  501    0  0.00000000000E+00  0.00000000000E+00  0.19079946983E+04  0.19079946983E+04  0.00000000000E+00 0. -1.
         -2   -1    0    0    0  501 -0.00000000000E+00 -0.00000000000E+00 -0.79329259676E+03  0.79329259676E+03  0.00000000000E+00 0.  1.
        -24    2    1    2    0    0  0.54499620681E+03  0.44890541336E+03  0.15292476844E+04  0.16862552051E+04  0.79505980990E+02 0.  0.
    5000000    2    1    2    0    0 -0.54499620681E+03 -0.44890541336E+03 -0.41454558291E+03  0.10150320899E+04  0.59992096778E+03 0.  0.
        -24    2    4    4    0    0 -0.28216545528E+03  0.10080505072E+03 -0.11604469374E+03  0.33195206069E+03  0.83347448972E+02 0.  0.
         24    2    4    4    0    0 -0.26283075153E+03 -0.54971046408E+03 -0.29850088917E+03  0.68308002918E+03  0.78955349148E+02 0.  0.
         11    1    3    3    0    0  0.42418181197E+03  0.31544437597E+03  0.10851318101E+04  0.12070403511E+04  0.00000000000E+00 0. -1.
        -12    1    3    3    0    0  0.12081439484E+03  0.13346103739E+03  0.44411587432E+03  0.47921485403E+03  0.00000000000E+00 0.  1.
         15    1    5    5    0    0 -0.15880979186E+03  0.99878267937E+02 -0.67621597250E+02  0.19942932718E+03  0.17770000000E+01 0. -1.
        -16    1    5    5    0    0 -0.12335566342E+03  0.92678278532E+00 -0.48423096494E+02  0.13252273351E+03  0.00000000000E+00 0.  1.
          4    1    6    6  502    0 -0.10633343411E+03 -0.27623597389E+03 -0.18010345390E+03  0.34648285180E+03  0.00000000000E+00 0. -1.
         -3    1    6    6    0  502 -0.15649731743E+03 -0.27347449019E+03 -0.11839743526E+03  0.33659717738E+03  0.00000000000E+00 0.  1.
<mgrwt>
<rscale>  0 0.81534732E+03</rscale>
<asrwt>0</asrwt>
<pdfrwt beam="1">  1        1 0.29353764E+00 0.81534732E+03</pdfrwt>
<pdfrwt beam="2">  1       -2 0.12204502E+00 0.81534732E+03</pdfrwt>
<totfact> 0.15853177E+00</totfact>
</mgrwt>
</event>
<event>
12    3  0.1182097E-007  0.8294998E+03  0.7818608E-02  0.9518272E-01
          1   -1    0    0  501    0  0.00000000000E+00  0.00000000000E+00  0.13672558953E+04  0.13672558953E+04  0.00000000000E+00 0. -1.
         -2   -1    0    0    0  501 -0.00000000000E+00 -0.00000000000E+00 -0.54088696026E+03  0.54088696026E+03  0.00000000000E+00 0.  1.
        -24    2    1    2    0    0  0.73472015837E+03  0.13598168504E+03  0.46657921333E+03  0.88452148091E+03  0.79858362698E+02 0.  0.
    5000000    2    1    2    0    0 -0.73472015837E+03 -0.13598168504E+03  0.35978972176E+03  0.10236213747E+04  0.60003945292E+03 0.  0.
        -24    2    4    4    0    0 -0.45794579011E+03 -0.32608466677E+03  0.36868756555E+03  0.67822677432E+03  0.89529212179E+02 0.  0.
         24    2    4    4    0    0 -0.27677436826E+03  0.19010298173E+03 -0.88978437849E+01  0.34539460037E+03  0.80467780856E+02 0.  0.
         11    1    3    3    0    0  0.39839067150E+03  0.10202457929E+03  0.28935389650E+03  0.50284174383E+03  0.00000000000E+00 0. -1.
        -12    1    3    3    0    0  0.33632948688E+03  0.33957105747E+02  0.17722531682E+03  0.38167973708E+03  0.00000000000E+00 0.  1.
         15    1    5    5    0    0 -0.25154782008E+03 -0.14148503364E+03  0.22693148457E+03  0.36714489912E+03  0.17770000000E+01 0. -1.
        -16    1    5    5    0    0 -0.20639797003E+03 -0.18459963313E+03  0.14175608097E+03  0.31108187520E+03  0.00000000000E+00 0.  1.
          2    1    6    6  502    0 -0.41501456530E+02  0.66607144546E+02 -0.13544471785E+02  0.79638780218E+02  0.00000000000E+00 0. -1.
         -1    1    6    6    0  502 -0.23527291173E+03  0.12349583718E+03  0.46466279999E+01  0.26575582016E+03  0.00000000000E+00 0.  1.
<mgrwt>
<rscale>  0 0.82949979E+03</rscale>
<asrwt>0</asrwt>
<pdfrwt beam="1">  1        1 0.21034706E+00 0.82949979E+03</pdfrwt>
<pdfrwt beam="2">  1       -2 0.83213379E-01 0.82949979E+03</pdfrwt>
<totfact> 0.91666032E+00</totfact>
</mgrwt>
</event>
<event>
12    3  0.1182097E-007  0.5096238E+03  0.7818608E-02  0.1011297E+00
         -2   -1    0    0    0  501 -0.00000000000E+00  0.00000000000E+00  0.21406617243E+04  0.21406617243E+04  0.00000000000E+00 0.  1.
          1   -1    0    0  501    0  0.00000000000E+00 -0.00000000000E+00 -0.12832698427E+03  0.12832698427E+03  0.00000000000E+00 0. -1.
        -24    2    1    2    0    0  0.31910830666E+03  0.11524940588E+03  0.83925749444E+03  0.90863508151E+03  0.78434893098E+02 0.  0.
    5000000    2    1    2    0    0 -0.31910830666E+03 -0.11524940588E+03  0.11730772455E+04  0.13603536270E+04  0.59944910508E+03 0.  0.
        -24    2    4    4    0    0  0.13205955100E+03  0.99039932368E+02  0.24832228614E+03  0.30666460681E+03  0.71628137384E+02 0.  0.
         24    2    4    4    0    0 -0.45116785766E+03 -0.21428933824E+03  0.92475495940E+03  0.10536890202E+04  0.74943045624E+02 0.  0.
         13    1    3    3    0    0  0.14274721472E+03  0.92622565530E+02  0.42798105229E+03  0.46056865729E+03  0.00000000000E+00 0. -1.
        -14    1    3    3    0    0  0.17636109195E+03  0.22626840346E+02  0.41127644214E+03  0.44806642423E+03  0.00000000000E+00 0.  1.
         15    1    5    5    0    0  0.12931848810E+03  0.99839721652E+02  0.19997567583E+03  0.25823375077E+03  0.17770000000E+01 0. -1.
        -16    1    5    5    0    0  0.27410628995E+01 -0.79978928406E+00  0.48346610312E+02  0.48430856046E+02  0.00000000000E+00 0.  1.
          2    1    6    6  502    0 -0.20871417599E+03 -0.58172523026E+02  0.39150302296E+03  0.44745979337E+03  0.00000000000E+00 0. -1.
         -1    1    6    6    0  502 -0.24245368166E+03 -0.15611681522E+03  0.53325193644E+03  0.60622922683E+03  0.00000000000E+00 0.  1.
<mgrwt>
<rscale>  0 0.50962385E+03</rscale>
<asrwt>0</asrwt>
<pdfrwt beam="1">  1        1 0.19742615E-01 0.50962385E+03</pdfrwt>
<pdfrwt beam="2">  1       -2 0.32933255E+00 0.50962385E+03</pdfrwt>
<totfact> 0.52973813E+00</totfact>
</mgrwt>
</event>
<event>
12    3  0.1182097E-007  0.1442534E+04  0.7818608E-02  0.8923593E-01
          1   -1    0    0  501    0  0.00000000000E+00  0.00000000000E+00  0.13005183025E+04  0.13005183025E+04  0.00000000000E+00 0. -1.
         -2   -1    0    0    0  501 -0.00000000000E+00 -0.00000000000E+00 -0.17214440190E+04  0.17214440190E+04  0.00000000000E+00 0.  1.
        -24    2    1    2    0    0  0.11136970650E+04  0.90187144701E+03 -0.13145754287E+03  0.14416263000E+04  0.85510488938E+02 0.  0.
    5000000    2    1    2    0    0 -0.11136970650E+04 -0.90187144701E+03 -0.28946817370E+03  0.15803360215E+04  0.59998071457E+03 0.  0.
        -24    2    4    4    0    0 -0.62550704078E+03 -0.62912978360E+03 -0.44474477389E+03  0.99441262141E+03  0.63207634317E+02 0.  0.
         24    2    4    4    0    0 -0.48819002419E+03 -0.27274166341E+03  0.15527660019E+03  0.58592340010E+03  0.80485362315E+02 0.  0.
         11    1    3    3    0    0  0.85832287180E+03  0.73985090158E+03 -0.10215086675E+03  0.11377751572E+04  0.00000000000E+00 0. -1.
        -12    1    3    3    0    0  0.25537419316E+03  0.16202054543E+03 -0.29306676120E+02  0.30385114273E+03  0.00000000000E+00 0.  1.
         15    1    5    5    0    0 -0.44386995979E+03 -0.47786915242E+03 -0.34521551062E+03  0.73794063077E+03  0.17770000000E+01 0. -1.
        -16    1    5    5    0    0 -0.18163708098E+03 -0.15126063118E+03 -0.99529263269E+02  0.25647199064E+03  0.00000000000E+00 0.  1.
          2    1    6    6  502    0 -0.35816935590E+03 -0.17780478187E+03  0.78272980245E+02  0.40746347984E+03  0.00000000000E+00 0. -1.
         -1    1    6    6    0  502 -0.13002066829E+03 -0.94936881533E+02  0.77003619945E+02  0.17845992027E+03  0.00000000000E+00 0.  1.
<mgrwt>
<rscale>  0 0.14425336E+04</rscale>
<asrwt>0</asrwt>
<pdfrwt beam="1">  1        1 0.20007974E+00 0.14425336E+04</pdfrwt>
<pdfrwt beam="2">  1       -2 0.26483754E+00 0.14425336E+04</pdfrwt>
<totfact> 0.39230426E-01</totfact>
</mgrwt>
</event>
<event>
12    3  0.1182097E-007  0.4238604E+03  0.7818608E-02  0.1035817E+00
          1   -1    0    0  501    0  0.00000000000E+00  0.00000000000E+00  0.21233986023E+04  0.21233986023E+04  0.00000000000E+00 0. -1.
         -2   -1    0    0    0  501 -0.00000000000E+00 -0.00000000000E+00 -0.49586350250E+03  0.49586350250E+03  0.00000000000E+00 0.  1.
        -24    2    1    2    0    0  0.39488709988E+03  0.48359955277E+02  0.18276378880E+04  0.18721157770E+04  0.79263648228E+02 0.  0.
    5000000    2    1    2    0    0 -0.39488709988E+03 -0.48359955277E+02 -0.20010278819E+03  0.74714632780E+03  0.59992666418E+03 0.  0.
        -24    2    4    4    0    0 -0.13825344696E+03 -0.89748539714E+02  0.19531630716E+03  0.26763761024E+03  0.79451964061E+02 0.  0.
         24    2    4    4    0    0 -0.25663365291E+03  0.41388584436E+02 -0.39541909535E+03  0.47950871756E+03  0.77450000172E+02 0.  0.
         11    1    3    3    0    0  0.18910766905E+03 -0.17438312134E+01  0.10059322761E+04  0.10235548327E+04  0.00000000000E+00 0. -1.
        -12    1    3    3    0    0  0.20577943083E+03  0.50103786491E+02  0.82170561190E+03  0.84856094431E+03  0.00000000000E+00 0.  1.
         15    1    5    5    0    0 -0.14411059950E+03 -0.66057644107E+02  0.16742652388E+03  0.23057813396E+03  0.17770000000E+01 0. -1.
        -16    1    5    5    0    0  0.58571525368E+01 -0.23690895607E+02  0.27889783284E+02  0.37059476280E+02  0.00000000000E+00 0.  1.
          4    1    6    6  502    0 -0.15153603031E+03  0.17494469441E+01 -0.28045367243E+03  0.31877969106E+03  0.00000000000E+00 0. -1.
         -1    1    6    6    0  502 -0.10509762260E+03  0.39639137492E+02 -0.11496542291E+03  0.16072902651E+03  0.00000000000E+00 0.  1.
<mgrwt>
<rscale>  0 0.42386041E+03</rscale>
<asrwt>0</asrwt>
<pdfrwt beam="1">  1        1 0.32667670E+00 0.42386041E+03</pdfrwt>
<pdfrwt beam="2">  1       -2 0.76286694E-01 0.42386041E+03</pdfrwt>
<totfact> 0.37385408E+00</totfact>
</mgrwt>
</event>
<event>
12    3  0.1182097E-007  0.9463180E+03  0.7818608E-02  0.9369465E-01
          3   -1    0    0  501    0  0.00000000000E+00  0.00000000000E+00  0.10935954367E+04  0.10935954367E+04  0.00000000000E+00 0. -1.
         -4   -1    0    0    0  501 -0.00000000000E+00 -0.00000000000E+00 -0.22832057584E+04  0.22832057584E+04  0.00000000000E+00 0.  1.
        -24    2    1    2    0    0  0.43984392774E+03 -0.77112323536E+03 -0.18948179922E+04  0.20941313354E+04  0.83409239893E+02 0.  0.
    5000000    2    1    2    0    0 -0.43984392774E+03  0.77112323536E+03  0.70520767050E+03  0.12826698597E+04  0.59985863807E+03 0.  0.
        -24    2    4    4    0    0 -0.70790838175E+02  0.57139137620E+03  0.61481418950E+03  0.84607184800E+03  0.79634394614E+02 0.  0.
         24    2    4    4    0    0 -0.36905308956E+03  0.19973185916E+03  0.90393480998E+02  0.43659801173E+03  0.79711002783E+02 0.  0.
         11    1    3    3    0    0  0.40016397588E+03 -0.64516732797E+03 -0.15909870828E+04  0.17628420197E+04  0.00000000000E+00 0. -1.
        -12    1    3    3    0    0  0.39679951856E+02 -0.12595590739E+03 -0.30383090938E+03  0.33128931568E+03  0.00000000000E+00 0.  1.
         15    1    5    5    0    0 -0.59391302499E+02  0.17743089948E+03  0.19766762466E+03  0.27218504454E+03  0.17770000000E+01 0. -1.
        -16    1    5    5    0    0 -0.11399535676E+02  0.39396047673E+03  0.41714656484E+03  0.57388680347E+03  0.00000000000E+00 0.  1.
          2    1    6    6  502    0 -0.14640254766E+03  0.90816166003E+02  0.76048454659E+02  0.18832060276E+03  0.00000000000E+00 0. -1.
         -1    1    6    6    0  502 -0.22265054190E+03  0.10891569316E+03  0.14345026339E+02  0.24827740897E+03  0.00000000000E+00 0.  1.
<mgrwt>
<rscale>  0 0.94631804E+03</rscale>
<asrwt>0</asrwt>
<pdfrwt beam="1">  1        3 0.16824545E+00 0.94631804E+03</pdfrwt>
<pdfrwt beam="2">  1       -4 0.35126242E+00 0.94631804E+03</pdfrwt>
<totfact> 0.78304385E-03</totfact>
</mgrwt>
</event>
<event>
12    3  0.1182097E-007  0.6171249E+03  0.7818608E-02  0.9870501E-01
         -2   -1    0    0    0  501 -0.00000000000E+00  0.00000000000E+00  0.33556936241E+03  0.33556936241E+03  0.00000000000E+00 0.  1.
          1   -1    0    0  501    0  0.00000000000E+00 -0.00000000000E+00 -0.15684932997E+04  0.15684932997E+04  0.00000000000E+00 0. -1.
        -24    2    1    2    0    0  0.20479409961E+03  0.47374890022E+03 -0.90980681047E+03  0.10491412201E+04  0.81056915573E+02 0.  0.
    5000000    2    1    2    0    0 -0.20479409961E+03 -0.47374890022E+03 -0.32311712681E+03  0.85492144203E+03  0.60008945226E+03 0.  0.
        -24    2    4    4    0    0 -0.26690246132E+03 -0.33671594570E+02 -0.28723965545E+03  0.40154233032E+03  0.79742856984E+02 0.  0.
         24    2    4    4    0    0  0.62108361708E+02 -0.44007730565E+03 -0.35877471360E+02  0.45337911171E+03  0.82097152474E+02 0.  0.
         11    1    3    3    0    0  0.17273560184E+03  0.35032645096E+03 -0.74030064089E+03  0.83702523814E+03  0.00000000000E+00 0. -1.
        -12    1    3    3    0    0  0.32058497776E+02  0.12342244926E+03 -0.16950616959E+03  0.21211598193E+03  0.00000000000E+00 0.  1.
         15    1    5    5    0    0 -0.10836125089E+03 -0.85879484101E+01 -0.17375615752E+03  0.20496407870E+03  0.17770000000E+01 0. -1.
        -16    1    5    5    0    0 -0.15854121043E+03 -0.25083646160E+02 -0.11348349793E+03  0.19657825162E+03  0.00000000000E+00 0.  1.
          2    1    6    6  502    0  0.15142121325E+02 -0.27110527388E+03  0.11312601911E+02  0.27176336826E+03  0.00000000000E+00 0. -1.
         -1    1    6    6    0  502  0.46966240383E+02 -0.16897203177E+03 -0.47190073271E+02  0.18161574345E+03  0.00000000000E+00 0.  1.
<mgrwt>
<rscale>  0 0.61712485E+03</rscale>
<asrwt>0</asrwt>
<pdfrwt beam="1">  1        1 0.24130666E+00 0.61712485E+03</pdfrwt>
<pdfrwt beam="2">  1       -2 0.51626056E-01 0.61712485E+03</pdfrwt>
<totfact> 0.19170192E+01</totfact>
</mgrwt>
</event>
<event>
12    3  0.1182097E-007  0.8077967E+03  0.7818608E-02  0.9548800E-01
         -4   -1    0    0    0  501 -0.00000000000E+00  0.00000000000E+00  0.93475084818E+03  0.93475084818E+03  0.00000000000E+00 0.  1.
          3   -1    0    0  501    0  0.00000000000E+00 -0.00000000000E+00 -0.90272267350E+03  0.90272267350E+03  0.00000000000E+00 0. -1.
        -24    2    1    2    0    0  0.67147582936E+03  0.25096863420E+03 -0.38079580269E+03  0.81556884208E+03  0.79259372007E+02 0.  0.
    5000000    2    1    2    0    0 -0.67147582936E+03 -0.25096863420E+03  0.41282397737E+03  0.10219046796E+04  0.60000041094E+03 0.  0.
        -24    2    4    4    0    0 -0.45396764734E+03 -0.41166924664E+03  0.40733969623E+03  0.74028792275E+03  0.80885023305E+02 0.  0.
         24    2    4    4    0    0 -0.21750818203E+03  0.16070061244E+03  0.54842811470E+01  0.28161675685E+03  0.78379999424E+02 0.  0.
         11    1    3    3    0    0  0.56135678571E+02  0.34858996531E+02 -0.57761179554E+02  0.87765129244E+02  0.00000000000E+00 0. -1.
        -12    1    3    3    0    0  0.61534015079E+03  0.21610963767E+03 -0.32303462314E+03  0.72780371284E+03  0.00000000000E+00 0.  1.
         15    1    5    5    0    0 -0.30782477432E+03 -0.23371025470E+03  0.27885753134E+03  0.47659338576E+03  0.17770000000E+01 0. -1.
        -16    1    5    5    0    0 -0.14614287301E+03 -0.17795899194E+03  0.12848216489E+03  0.26369453699E+03  0.00000000000E+00 0.  1.
          4    1    6    6  502    0 -0.14448245656E+02 -0.80406368241E+01 -0.53354282777E+01  0.17374419069E+02  0.00000000000E+00 0. -1.
         -3    1    6    6    0  502 -0.20305993637E+03  0.16874124926E+03  0.10819709425E+02  0.26424233778E+03  0.00000000000E+00 0.  1.
<mgrwt>
<rscale>  0 0.80779666E+03</rscale>
<asrwt>0</asrwt>
<pdfrwt beam="1">  1        3 0.13888041E+00 0.80779666E+03</pdfrwt>
<pdfrwt beam="2">  1       -4 0.14380782E+00 0.80779666E+03</pdfrwt>
<totfact> 0.29392848E-01</totfact>
</mgrwt>
</event>
<event>
12    3  0.1182097E-007  0.1329394E+04  0.7818608E-02  0.9006575E-01
         -4   -1    0    0    0  501 -0.00000000000E+00  0.00000000000E+00  0.83339436187E+03  0.83339436187E+03  0.00000000000E+00 0.  1.
          3   -1    0    0  501    0  0.00000000000E+00 -0.00000000000E+00 -0.22689198077E+04  0.22689198077E+04  0.00000000000E+00 0. -1.
        -24    2    1    2    0    0 -0.95171166154E+03 -0.87390434358E+03 -0.45281549110E+03  0.13716458856E+04  0.83106425434E+02 0.  0.
    5000000    2    1    2    0    0  0.95171166154E+03  0.87390434358E+03 -0.98270995475E+03  0.17306682840E+04  0.60002497093E+03 0.  0.
        -24    2    4    4    0    0 -0.51253663285E+01  0.17414733475E+03 -0.31112748772E+03  0.36586767637E+03  0.81885770512E+02 0.  0.
         24    2    4    4    0    0  0.95683702787E+03  0.69975700883E+03 -0.67158246702E+03  0.13648006077E+04  0.80378600063E+02 0.  0.
         13    1    3    3    0    0 -0.45390245320E+03 -0.46773030809E+03 -0.20911027484E+03  0.68448972612E+03  0.00000000000E+00 0. -1.
        -14    1    3    3    0    0 -0.49780920835E+03 -0.40617403550E+03 -0.24370521626E+03  0.68715615944E+03  0.00000000000E+00 0.  1.
         15    1    5    5    0    0 -0.17497276427E+02  0.13079505180E+03 -0.28422063495E+03  0.31336564477E+03  0.17770000000E+01 0. -1.
        -16    1    5    5    0    0  0.12371910098E+02  0.43352282946E+02 -0.26906852773E+02  0.52502031602E+02  0.00000000000E+00 0.  1.
          4    1    6    6  502    0  0.17512534454E+03  0.95665103595E+02 -0.96170939416E+02  0.22151647328E+03  0.00000000000E+00 0. -1.
         -3    1    6    6    0  502  0.78171168333E+03  0.60409190524E+03 -0.57541152761E+03  0.11432841344E+04  0.00000000000E+00 0.  1.
<mgrwt>
<rscale>  0 0.13293941E+04</rscale>
<asrwt>0</asrwt>
<pdfrwt beam="1">  1        3 0.34906458E+00 0.13293941E+04</pdfrwt>
<pdfrwt beam="2">  1       -4 0.12821452E+00 0.13293941E+04</pdfrwt>
<totfact> 0.20195630E-02</totfact>
</mgrwt>
</event>
<event>
12    3  0.1182097E-007  0.1118481E+04  0.7818608E-02  0.9187364E-01
         -2   -1    0    0    0  501 -0.00000000000E+00  0.00000000000E+00  0.90068883827E+03  0.90068883827E+03  0.00000000000E+00 0.  1.
          1   -1    0    0  501    0  0.00000000000E+00 -0.00000000000E+00 -0.17134706755E+04  0.17134706755E+04  0.00000000000E+00 0. -1.
        -24    2    1    2    0    0  0.70725359034E+03  0.77695477495E+03 -0.92148616214E+03  0.13997221961E+04  0.78861371415E+02 0.  0.
    5000000    2    1    2    0    0 -0.70725359034E+03 -0.77695477495E+03  0.10870432493E+03  0.12144373176E+04  0.59931210971E+03 0.  0.
        -24    2    4    4    0    0 -0.70908889970E+03 -0.42587888161E+03  0.17224182171E+03  0.84868310866E+03  0.80099215350E+02 0.  0.
         24    2    4    4    0    0  0.18353093606E+01 -0.35107589334E+03 -0.63537496775E+02  0.36575420897E+03  0.80507618530E+02 0.  0.
         11    1    3    3    0    0  0.43361331371E+03  0.52884156344E+03 -0.61539021341E+03  0.91999946729E+03  0.00000000000E+00 0. -1.
        -12    1    3    3    0    0  0.27364027663E+03  0.24811321151E+03 -0.30609594873E+03  0.47972272882E+03  0.00000000000E+00 0.  1.
         15    1    5    5    0    0 -0.38960865104E+03 -0.22024900959E+03  0.13202667579E+03  0.46662482579E+03  0.17770000000E+01 0. -1.
        -16    1    5    5    0    0 -0.31948024866E+03 -0.20562987202E+03  0.40215145914E+02  0.38205828288E+03  0.00000000000E+00 0.  1.
          2    1    6    6  502    0 -0.26160249667E+02 -0.24879975262E+03 -0.19484202550E+02  0.25092889374E+03  0.00000000000E+00 0. -1.
         -1    1    6    6    0  502  0.27995559028E+02 -0.10227614072E+03 -0.44053294225E+02  0.11482531523E+03  0.00000000000E+00 0.  1.
<mgrwt>
<rscale>  0 0.11184807E+04</rscale>
<asrwt>0</asrwt>
<pdfrwt beam="1">  1        1 0.26361087E+00 0.11184807E+04</pdfrwt>
<pdfrwt beam="2">  1       -2 0.13856751E+00 0.11184807E+04</pdfrwt>
<totfact> 0.14889895E+00</totfact>
</mgrwt>
</event>
<event>
12    3  0.1182097E-007  0.8230120E+03  0.7818608E-02  0.9527293E-01
         -2   -1    0    0    0  501 -0.00000000000E+00  0.00000000000E+00  0.88820200934E+03  0.88820200934E+03  0.00000000000E+00 0.  1.
          1   -1    0    0  501    0  0.00000000000E+00 -0.00000000000E+00 -0.11186021175E+04  0.11186021175E+04  0.00000000000E+00 0. -1.
        -24    2    1    2    0    0 -0.59259862125E+03  0.40712920767E+03 -0.65750555615E+03  0.97757166833E+03  0.80034322058E+02 0.  0.
    5000000    2    1    2    0    0  0.59259862125E+03 -0.40712920767E+03  0.42710544802E+03  0.10292324585E+04  0.59997755976E+03 0.  0.
        -24    2    4    4    0    0  0.70204277090E+03 -0.30935743317E+03  0.33483735736E+03  0.84074149613E+03  0.78511997781E+02 0.  0.
         24    2    4    4    0    0 -0.10944414966E+03 -0.97771774499E+02  0.92268090657E+02  0.18849096235E+03  0.74014191552E+02 0.  0.
         11    1    3    3    0    0 -0.45868994417E+03  0.27303946101E+03 -0.47771106967E+03  0.71634829394E+03  0.00000000000E+00 0. -1.
        -12    1    3    3    0    0 -0.13390867708E+03  0.13408974666E+03 -0.17979448648E+03  0.26122337439E+03  0.00000000000E+00 0.  1.
         15    1    5    5    0    0  0.11205639281E+03 -0.66529257874E+02  0.30419873335E+02  0.13383311901E+03  0.17770000000E+01 0. -1.
        -16    1    5    5    0    0  0.58998637810E+03 -0.24282817529E+03  0.30441748403E+03  0.70690837712E+03  0.00000000000E+00 0.  1.
          2    1    6    6  502    0 -0.28663361972E+02 -0.57211317165E+02  0.72503649663E+01  0.64399463690E+02  0.00000000000E+00 0. -1.
         -3    1    6    6    0  502 -0.80780787684E+02 -0.40560457333E+02  0.85017725690E+02  0.12409149866E+03  0.00000000000E+00 0.  1.
<mgrwt>
<rscale>  0 0.82301204E+03</rscale>
<asrwt>0</asrwt>
<pdfrwt beam="1">  1        1 0.17209263E+00 0.82301204E+03</pdfrwt>
<pdfrwt beam="2">  1       -2 0.13664646E+00 0.82301204E+03</pdfrwt>
<totfact> 0.41877242E+00</totfact>
</mgrwt>
</event>
<event>
12    3  0.1182097E-007  0.2495883E+04  0.7818608E-02  0.8404454E-01
         -2   -1    0    0    0  501 -0.00000000000E+00  0.00000000000E+00  0.21442285467E+04  0.21442285467E+04  0.00000000000E+00 0.  1.
          1   -1    0    0  501    0  0.00000000000E+00 -0.00000000000E+00 -0.32162393025E+04  0.32162393025E+04  0.00000000000E+00 0. -1.
        -24    2    1    2    0    0 -0.24860948726E+04  0.21031032035E+02  0.21462278747E+03  0.24975150700E+04  0.10202237013E+03 0.  0.
    5000000    2    1    2    0    0  0.24860948726E+04 -0.21031032035E+02 -0.12866335433E+04  0.28629527792E+04  0.59996893353E+03 0.  0.
        -24    2    4    4    0    0  0.14756603164E+03  0.43095559113E+02 -0.24730347928E+03  0.30190032250E+03  0.79698387403E+02 0.  0.
         24    2    4    4    0    0  0.23385288410E+04 -0.64126591148E+02 -0.10393300640E+04  0.25610524567E+04  0.77157917141E+02 0.  0.
         13    1    3    3    0    0 -0.11855361497E+04 -0.28953809544E+02  0.13526541435E+03  0.11935790790E+04  0.00000000000E+00 0. -1.
        -14    1    3    3    0    0 -0.13005587229E+04  0.49984841579E+02  0.79357373119E+02  0.13039359911E+04  0.00000000000E+00 0.  1.
         15    1    5    5    0    0  0.12538837929E+03  0.57496309036E+02 -0.23552477751E+03  0.27295265114E+03  0.17770000000E+01 0. -1.
        -16    1    5    5    0    0  0.22177652352E+02 -0.14400749923E+02 -0.11778701773E+02  0.28947671368E+02  0.00000000000E+00 0.  1.
          2    1    6    6  502    0  0.12988338481E+04 -0.10325232629E+02 -0.54533700137E+03  0.14087116172E+04  0.00000000000E+00 0. -1.
         -1    1    6    6    0  502  0.10396949929E+04 -0.53801358519E+02 -0.49399306265E+03  0.11523408395E+04  0.00000000000E+00 0.  1.
<mgrwt>
<rscale>  0 0.24958831E+04</rscale>
<asrwt>0</asrwt>
<pdfrwt beam="1">  1        1 0.49480604E+00 0.24958831E+04</pdfrwt>
<pdfrwt beam="2">  1       -2 0.32988132E+00 0.24958831E+04</pdfrwt>
<totfact> 0.63178928E-03</totfact>
</mgrwt>
</event>
<event>
12    3  0.1182097E-007  0.9923803E+03  0.7818608E-02  0.9316942E-01
          1   -1    0    0  501    0  0.00000000000E+00  0.00000000000E+00  0.77204024947E+03  0.77204024947E+03  0.00000000000E+00 0. -1.
         -2   -1    0    0    0  501 -0.00000000000E+00 -0.00000000000E+00 -0.15391804854E+04  0.15391804854E+04  0.00000000000E+00 0.  1.
        -24    2    1    2    0    0 -0.80968718078E+03  0.50816514673E+03 -0.23115341916E+02  0.95941366556E+03  0.78199204434E+02 0.  0.
    5000000    2    1    2    0    0  0.80968718078E+03 -0.50816514673E+03 -0.74402489399E+03  0.13518070693E+04  0.59998680205E+03 0.  0.
        -24    2    4    4    0    0  0.34470156348E+03 -0.26888940631E+02 -0.54255952214E+03  0.64832503302E+03  0.80077027822E+02 0.  0.
         24    2    4    4    0    0  0.46498561730E+03 -0.48127620610E+03 -0.20146537185E+03  0.70348203627E+03  0.80375795137E+02 0.  0.
         13    1    3    3    0    0 -0.59547815630E+03  0.35174336008E+03 -0.46346851716E+02  0.69315630031E+03  0.00000000000E+00 0. -1.
        -14    1    3    3    0    0 -0.21420902447E+03  0.15642178666E+03  0.23231509799E+02  0.26625736526E+03  0.00000000000E+00 0.  1.
         15    1    5    5    0    0  0.19647485220E+03 -0.54987922443E+02 -0.31294881848E+03  0.37358554559E+03  0.17770000000E+01 0. -1.
        -16    1    5    5    0    0  0.14822671128E+03  0.28098981812E+02 -0.22961070366E+03  0.27473948743E+03  0.00000000000E+00 0.  1.
          2    1    6    6  502    0  0.32808508256E+03 -0.38401551158E+03 -0.13444212765E+03  0.52266855675E+03  0.00000000000E+00 0. -1.
         -1    1    6    6    0  502  0.13690053475E+03 -0.97260694520E+02 -0.67023244203E+02  0.18081347952E+03  0.00000000000E+00 0.  1.
<mgrwt>
<rscale>  0 0.99238027E+03</rscale>
<asrwt>0</asrwt>
<pdfrwt beam="1">  1        1 0.11877542E+00 0.99238027E+03</pdfrwt>
<pdfrwt beam="2">  1       -2 0.23679700E+00 0.99238027E+03</pdfrwt>
<totfact> 0.15918860E+00</totfact>
</mgrwt>
</event>
<event>
12    3  0.1182097E-007  0.8907044E+03  0.7818608E-02  0.9437277E-01
         -2   -1    0    0    0  501 -0.00000000000E+00  0.00000000000E+00  0.99880318723E+03  0.99880318723E+03  0.00000000000E+00 0.  1.
          1   -1    0    0  501    0  0.00000000000E+00 -0.00000000000E+00 -0.82137343045E+03  0.82137343045E+03  0.00000000000E+00 0. -1.
        -24    2    1    2    0    0 -0.74875443881E+03 -0.29031974815E+03  0.12100065134E+03  0.81606294055E+03  0.79992496492E+02 0.  0.
    5000000    2    1    2    0    0  0.74875443881E+03  0.29031974815E+03  0.56429105436E+02  0.10041136771E+04  0.60011771083E+03 0.  0.
        -24    2    4    4    0    0  0.29532952986E+03 -0.15414322627E+03 -0.76250230686E+02  0.35039333050E+03  0.77341599191E+02 0.  0.
         24    2    4    4    0    0  0.45342490895E+03  0.44446297442E+03  0.13267933612E+03  0.65372034664E+03  0.81271161430E+02 0.  0.
         11    1    3    3    0    0 -0.14569422244E+03 -0.31197968413E+02  0.42959838893E+02  0.15506665484E+03  0.00000000000E+00 0. -1.
        -12    1    3    3    0    0 -0.60306021637E+03 -0.25912177974E+03  0.78040812448E+02  0.66099628571E+03  0.00000000000E+00 0.  1.
         15    1    5    5    0    0  0.14403914978E+03 -0.50043653149E+02 -0.66859810693E+02  0.16650836587E+03  0.17770000000E+01 0. -1.
        -16    1    5    5    0    0  0.15129038009E+03 -0.10409957312E+03 -0.93904199937E+01  0.18388496463E+03  0.00000000000E+00 0.  1.
          2    1    6    6  502    0  0.17801092778E+03  0.22995520382E+03  0.51842831102E+02  0.29538951456E+03  0.00000000000E+00 0. -1.
         -1    1    6    6    0  502  0.27541398118E+03  0.21450777060E+03  0.80836505020E+02  0.35833083208E+03  0.00000000000E+00 0.  1.
<mgrwt>
<rscale>  0 0.89070440E+03</rscale>
<asrwt>0</asrwt>
<pdfrwt beam="1">  1        1 0.12636514E+00 0.89070440E+03</pdfrwt>
<pdfrwt beam="2">  1       -2 0.15366203E+00 0.89070440E+03</pdfrwt>
<totfact> 0.52529345E+00</totfact>
</mgrwt>
</event>
<event>
12    3  0.1182097E-007  0.6739397E+03  0.7818608E-02  0.9762867E-01
          1   -1    0    0  501    0  0.00000000000E+00  0.00000000000E+00  0.16251555588E+04  0.16251555588E+04  0.00000000000E+00 0. -1.
         -2   -1    0    0    0  501 -0.00000000000E+00 -0.00000000000E+00 -0.33440145195E+03  0.33440145195E+03  0.00000000000E+00 0.  1.
        -24    2    1    2    0    0  0.31540937538E+03  0.48621052606E+03  0.80223846532E+03  0.99291157971E+03  0.80019373611E+02 0.  0.
    5000000    2    1    2    0    0 -0.31540937538E+03 -0.48621052606E+03  0.48851564155E+03  0.96664543105E+03  0.59989341354E+03 0.  0.
        -24    2    4    4    0    0 -0.18929309835E+03  0.48316888435E+02 -0.23040704703E+02  0.21224631023E+03  0.79694562798E+02 0.  0.
         24    2    4    4    0    0 -0.12611627703E+03 -0.53452741450E+03  0.51155634625E+03  0.75439912083E+03  0.76179169931E+02 0.  0.
         11    1    3    3    0    0  0.17628310820E+03  0.34013970826E+03  0.53841885299E+03  0.66080679221E+03  0.00000000000E+00 0. -1.
        -12    1    3    3    0    0  0.13912626718E+03  0.14607081780E+03  0.26381961232E+03  0.33210478750E+03  0.00000000000E+00 0.  1.
         15    1    5    5    0    0 -0.65512075294E+02 -0.20763622193E+02 -0.14342012308E+02  0.70226854279E+02  0.17770000000E+01 0. -1.
        -16    1    5    5    0    0 -0.12378102306E+03  0.69080510629E+02 -0.86986923942E+01  0.14201945595E+03  0.00000000000E+00 0.  1.
          4    1    6    6  502    0  0.67667987209E+00 -0.97434555303E+02  0.67424653038E+02  0.11849065069E+03  0.00000000000E+00 0. -1.
         -3    1    6    6    0  502 -0.12679295690E+03 -0.43709285919E+03  0.44413169321E+03  0.63590847014E+03  0.00000000000E+00 0.  1.
<mgrwt>
<rscale>  0 0.67393971E+03</rscale>
<asrwt>0</asrwt>
<pdfrwt beam="1">  1        1 0.25002393E+00 0.67393971E+03</pdfrwt>
<pdfrwt beam="2">  1       -2 0.51446378E-01 0.67393971E+03</pdfrwt>
<totfact> 0.17532426E+01</totfact>
</mgrwt>
</event>
<event>
12    3  0.1182097E-007  0.8628088E+03  0.7818608E-02  0.9473305E-01
          1   -1    0    0  501    0  0.00000000000E+00  0.00000000000E+00  0.22135338198E+04  0.22135338198E+04  0.00000000000E+00 0. -1.
         -2   -1    0    0    0  501 -0.00000000000E+00 -0.00000000000E+00 -0.92127798253E+03  0.92127798253E+03  0.00000000000E+00 0.  1.
        -24    2    1    2    0    0 -0.29918610725E+03  0.72370622647E+03 -0.60743723110E+03  0.99425088395E+03  0.79320876937E+02 0.  0.
    5000000    2    1    2    0    0  0.29918610725E+03 -0.72370622647E+03  0.18996930684E+04  0.21405609184E+04  0.59992021329E+03 0.  0.
        -24    2    4    4    0    0  0.17373806760E+02  0.66831067386E+02  0.45805289514E+03  0.47030534035E+03  0.81279872596E+02 0.  0.
         24    2    4    4    0    0  0.28181230049E+03 -0.79053729385E+03  0.14416401733E+04  0.16702555781E+04  0.84023337262E+02 0.  0.
         11    1    3    3    0    0 -0.83666802900E+02  0.24108044167E+03 -0.24178742603E+03  0.35154099711E+03  0.00000000000E+00 0. -1.
        -12    1    3    3    0    0 -0.21551930435E+03  0.48262578480E+03 -0.36564980507E+03  0.64270988684E+03  0.00000000000E+00 0.  1.
         15    1    5    5    0    0  0.46884582114E+02  0.49992869069E+02  0.36161842719E+03  0.36806045102E+03  0.17770000000E+01 0. -1.
        -16    1    5    5    0    0 -0.29510775354E+02  0.16838198318E+02  0.96434467951E+02  0.10224488933E+03  0.00000000000E+00 0.  1.
          2    1    6    6  502    0  0.12591423686E+03 -0.33752879459E+03  0.70146265742E+03  0.78856194555E+03  0.00000000000E+00 0. -1.
         -1    1    6    6    0  502  0.15589806363E+03 -0.45300849926E+03  0.74017751586E+03  0.88169363252E+03  0.00000000000E+00 0.  1.
<mgrwt>
<rscale>  0 0.86280879E+03</rscale>
<asrwt>0</asrwt>
<pdfrwt beam="1">  1        1 0.34054366E+00 0.86280879E+03</pdfrwt>
<pdfrwt beam="2">  1       -2 0.14173507E+00 0.86280879E+03</pdfrwt>
<totfact> 0.67003190E-01</totfact>
</mgrwt>
</event>
<event>
12    3  0.1182097E-007  0.5402820E+03  0.7818608E-02  0.1003769E+00
          1   -1    0    0  501    0  0.00000000000E+00  0.00000000000E+00  0.17665303518E+04  0.17665303518E+04  0.00000000000E+00 0. -1.
         -2   -1    0    0    0  501 -0.00000000000E+00 -0.00000000000E+00 -0.18835408296E+03  0.18835408296E+03  0.00000000000E+00 0.  1.
        -24    2    1    2    0    0 -0.35898220578E+03 -0.20714164658E+03  0.63912562425E+03  0.76591806713E+03  0.79831298243E+02 0.  0.
    5000000    2    1    2    0    0  0.35898220578E+03  0.20714164658E+03  0.93905064459E+03  0.11889663676E+04  0.60004085231E+03 0.  0.
        -24    2    4    4    0    0  0.11189452344E+03  0.35075375116E+03  0.73351203821E+03  0.82455053680E+03  0.79341661241E+02 0.  0.
         24    2    4    4    0    0  0.24708768234E+03 -0.14361210458E+03  0.20553860637E+03  0.36441583083E+03  0.94212630249E+02 0.  0.
         13    1    3    3    0    0 -0.23776209345E+03 -0.10543027993E+03  0.34656719949E+03  0.43330725907E+03  0.00000000000E+00 0. -1.
        -14    1    3    3    0    0 -0.12122011233E+03 -0.10171136664E+03  0.29255842476E+03  0.33261080806E+03  0.00000000000E+00 0.  1.
         15    1    5    5    0    0  0.36338934632E+02  0.15300785698E+03  0.23299183238E+03  0.28110545024E+03  0.17770000000E+01 0. -1.
        -16    1    5    5    0    0  0.75555588803E+02  0.19774589418E+03  0.50052020583E+03  0.54344508656E+03  0.00000000000E+00 0.  1.
          4    1    6    6  502    0  0.10073332544E+03 -0.22285432148E+02  0.34760381351E+02  0.10886747655E+03  0.00000000000E+00 0. -1.
         -3    1    6    6    0  502  0.14635435691E+03 -0.12132667243E+03  0.17077822502E+03  0.25554835427E+03  0.00000000000E+00 0.  1.
<mgrwt>
<rscale>  0 0.54028205E+03</rscale>
<asrwt>0</asrwt>
<pdfrwt beam="1">  1        1 0.27177389E+00 0.54028205E+03</pdfrwt>
<pdfrwt beam="2">  1       -2 0.28977552E-01 0.54028205E+03</pdfrwt>
<totfact> 0.43654860E+01</totfact>
</mgrwt>
</event>
<event>
12    3  0.1182097E-007  0.1588513E+04  0.7818608E-02  0.8827636E-01
         -2   -1    0    0    0  501 -0.00000000000E+00  0.00000000000E+00  0.12746435814E+04  0.12746435814E+04  0.00000000000E+00 0.  1.
          1   -1    0    0  501    0  0.00000000000E+00 -0.00000000000E+00 -0.24632736005E+04  0.24632736005E+04  0.00000000000E+00 0. -1.
        -24    2    1    2    0    0  0.81773245140E+03  0.12968352553E+04 -0.14003794675E+04  0.20780072579E+04  0.81138580591E+02 0.  0.
    5000000    2    1    2    0    0 -0.81773245140E+03 -0.12968352553E+04  0.21174944842E+03  0.16599099241E+04  0.59999590473E+03 0.  0.
        -24    2    4    4    0    0 -0.37446250561E+03 -0.14604567778E+03  0.27086519748E+02  0.41056283759E+03  0.79225349181E+02 0.  0.
         24    2    4    4    0    0 -0.44326994579E+03 -0.11507895775E+04  0.18466292867E+03  0.12493470865E+04  0.77219484028E+02 0.  0.
         13    1    3    3    0    0  0.34326621336E+03  0.58407790846E+03 -0.66514800091E+03  0.94942117077E+03  0.00000000000E+00 0. -1.
        -14    1    3    3    0    0  0.47446623804E+03  0.71275734685E+03 -0.73523146657E+03  0.11285860871E+04  0.00000000000E+00 0.  1.
         15    1    5    5    0    0 -0.18567523126E+03 -0.30128953176E+02  0.10311838409E+02  0.18839463120E+03  0.17770000000E+01 0. -1.
        -16    1    5    5    0    0 -0.18878727435E+03 -0.11591672460E+03  0.16774681339E+02  0.22216820640E+03  0.00000000000E+00 0.  1.
          4    1    6    6  502    0 -0.41088387736E+03 -0.10882811807E+04  0.15744965171E+03  0.11738704706E+04  0.00000000000E+00 0. -1.
         -3    1    6    6    0  502 -0.32386068429E+02 -0.62508396820E+02  0.27213276961E+02  0.75476615877E+02  0.00000000000E+00 0.  1.
<mgrwt>
<rscale>  0 0.15885129E+04</rscale>
<asrwt>0</asrwt>
<pdfrwt beam="1">  1        1 0.37896517E+00 0.15885129E+04</pdfrwt>
<pdfrwt beam="2">  1       -2 0.19609901E+00 0.15885129E+04</pdfrwt>
<totfact> 0.16584482E-01</totfact>
</mgrwt>
</event>
<event>
12    3  0.1182097E-007  0.7102811E+03  0.7818608E-02  0.9699810E-01
         -2   -1    0    0    0  501 -0.00000000000E+00  0.00000000000E+00  0.46025864739E+03  0.46025864739E+03  0.00000000000E+00 0.  1.
          1   -1    0    0  501    0  0.00000000000E+00 -0.00000000000E+00 -0.12956824440E+04  0.12956824440E+04  0.00000000000E+00 0. -1.
        -24    2    1    2    0    0  0.38519635920E+03  0.43868545006E+03 -0.23428045975E+02  0.58967183870E+03  0.79641978780E+02 0.  0.
    5000000    2    1    2    0    0 -0.38519635920E+03 -0.43868545006E+03 -0.81199575061E+03  0.11662692527E+04  0.60002142584E+03 0.  0.
        -24    2    4    4    0    0 -0.53015123911E+03 -0.38606203749E+03 -0.60115749812E+03  0.89324818984E+03  0.79985986207E+02 0.  0.
         24    2    4    4    0    0  0.14495487991E+03 -0.52623412567E+02 -0.21083825249E+03  0.27302106282E+03  0.79414049601E+02 0.  0.
         11    1    3    3    0    0  0.55081601725E+02  0.11158246989E+03 -0.21099088369E+01  0.12445514112E+03  0.00000000000E+00 0. -1.
        -12    1    3    3    0    0  0.33011475748E+03  0.32710298017E+03 -0.21318137138E+02  0.46521669758E+03  0.00000000000E+00 0.  1.
         15    1    5    5    0    0 -0.35768643271E+03 -0.21274202934E+03 -0.37844308869E+03  0.56251318589E+03  0.17770000000E+01 0. -1.
        -16    1    5    5    0    0 -0.17246480640E+03 -0.17332000816E+03 -0.22271440943E+03  0.33073500396E+03  0.00000000000E+00 0.  1.
          2    1    6    6  502    0  0.31169369380E+02  0.18770867033E+02 -0.26874468390E+02  0.45233970509E+02  0.00000000000E+00 0. -1.
         -1    1    6    6    0  502  0.11378551053E+03 -0.71394279601E+02 -0.18396378410E+03  0.22778709231E+03  0.00000000000E+00 0.  1.
<mgrwt>
<rscale>  0 0.71028112E+03</rscale>
<asrwt>0</asrwt>
<pdfrwt beam="1">  1        1 0.19933576E+00 0.71028112E+03</pdfrwt>
<pdfrwt beam="2">  1       -2 0.70809022E-01 0.71028112E+03</pdfrwt>
<totfact> 0.14968307E+01</totfact>
</mgrwt>
</event>
<event>
12    3  0.1182097E-007  0.6049241E+03  0.7818608E-02  0.9895242E-01
          1   -1    0    0  501    0  0.00000000000E+00  0.00000000000E+00  0.75882774547E+03  0.75882774547E+03  0.00000000000E+00 0. -1.
         -2   -1    0    0    0  501 -0.00000000000E+00 -0.00000000000E+00 -0.75257661746E+03  0.75257661746E+03  0.00000000000E+00 0.  1.
        -24    2    1    2    0    0  0.13487260096E+03  0.52509009347E+03 -0.32493764326E+03  0.63739934515E+03  0.82360357222E+02 0.  0.
    5000000    2    1    2    0    0 -0.13487260096E+03 -0.52509009347E+03  0.33118877127E+03  0.87400501777E+03  0.60024040528E+03 0.  0.
        -24    2    4    4    0    0 -0.19448612307E+03 -0.53487246310E+03  0.51809521243E+02  0.57751292867E+03  0.83207886906E+02 0.  0.
         24    2    4    4    0    0  0.59613522115E+02  0.97823696273E+01  0.27937925002E+03  0.29649208910E+03  0.78773896576E+02 0.  0.
         11    1    3    3    0    0  0.50330017377E+02  0.15506707824E+03 -0.56638038329E+02  0.17258846076E+03  0.00000000000E+00 0. -1.
        -12    1    3    3    0    0  0.84542583579E+02  0.37002301523E+03 -0.26829960493E+03  0.46481088439E+03  0.00000000000E+00 0.  1.
         15    1    5    5    0    0 -0.11351791116E+03 -0.36468304804E+03 -0.39988104506E+00  0.38194680168E+03  0.17770000000E+01 0. -1.
        -16    1    5    5    0    0 -0.80968211914E+02 -0.17018941506E+03  0.52209402288E+02  0.19556612699E+03  0.00000000000E+00 0.  1.
          2    1    6    6  502    0  0.74334061796E+02 -0.68317215160E+01  0.18403137649E+03  0.19859449311E+03  0.00000000000E+00 0. -1.
         -1    1    6    6    0  502 -0.14720539681E+02  0.16614091143E+02  0.95347873533E+02  0.97897595988E+02  0.00000000000E+00 0.  1.
<mgrwt>
<rscale>  0 0.60492411E+03</rscale>
<asrwt>0</asrwt>
<pdfrwt beam="1">  1        1 0.11674273E+00 0.60492411E+03</pdfrwt>
<pdfrwt beam="2">  1       -2 0.11578102E+00 0.60492411E+03</pdfrwt>
<totfact> 0.12689730E+01</totfact>
</mgrwt>
</event>
<event>
12    3  0.1182097E-007  0.1381479E+03  0.7818608E-02  0.1215843E+00
          1   -1    0    0  501    0  0.00000000000E+00  0.00000000000E+00  0.19793357167E+04  0.19793357167E+04  0.00000000000E+00 0. -1.
         -2   -1    0    0    0  501 -0.00000000000E+00 -0.00000000000E+00 -0.81693942476E+02  0.81693942476E+02  0.00000000000E+00 0.  1.
        -24    2    1    2    0    0 -0.10463628791E+03  0.11548999673E+01  0.75093811213E+03  0.76262230231E+03  0.82064859698E+02 0.  0.
    5000000    2    1    2    0    0  0.10463628791E+03 -0.11548999673E+01  0.11467036621E+04  0.12984073568E+04  0.59998524077E+03 0.  0.
        -24    2    4    4    0    0  0.41224474244E+02  0.23187403367E+02 -0.44518323776E+02  0.10248033145E+03  0.79266791478E+02 0.  0.
         24    2    4    4    0    0  0.63411813664E+02 -0.24342303334E+02  0.11912219858E+04  0.11959270254E+04  0.81351242413E+02 0.  0.
         11    1    3    3    0    0 -0.36844070310E+02 -0.26466869083E+01  0.53470526421E+03  0.53597967317E+03  0.00000000000E+00 0. -1.
        -12    1    3    3    0    0 -0.67792217598E+02  0.38015868756E+01  0.21623284791E+03  0.22664262915E+03  0.00000000000E+00 0.  1.
         15    1    5    5    0    0  0.24614130480E+02  0.36987973268E+02 -0.60878402635E+02  0.75387686144E+02  0.17770000000E+01 0. -1.
        -16    1    5    5    0    0  0.16610343763E+02 -0.13800569901E+02  0.16360078859E+02  0.27092645308E+02  0.00000000000E+00 0.  1.
          4    1    6    6  502    0  0.54533085020E+02  0.21563273020E+02  0.72420037565E+03  0.72657072346E+03  0.00000000000E+00 0. -1.
         -3    1    6    6    0  502  0.88787286448E+01 -0.45905576355E+02  0.46702161020E+03  0.46935630192E+03  0.00000000000E+00 0.  1.
<mgrwt>
<rscale>  0 0.13814791E+03</rscale>
<asrwt>0</asrwt>
<pdfrwt beam="1">  1        1 0.30451315E+00 0.13814791E+03</pdfrwt>
<pdfrwt beam="2">  1       -2 0.12568300E-01 0.13814791E+03</pdfrwt>
<totfact> 0.14707402E+02</totfact>
</mgrwt>
</event>
<event>
12    3  0.1182097E-007  0.3753970E+03  0.7818608E-02  0.1052648E+00
          1   -1    0    0  501    0  0.00000000000E+00  0.00000000000E+00  0.12264236133E+03  0.12264236133E+03  0.00000000000E+00 0. -1.
         -2   -1    0    0    0  501 -0.00000000000E+00 -0.00000000000E+00 -0.12833513392E+04  0.12833513392E+04  0.00000000000E+00 0.  1.
        -24    2    1    2    0    0  0.69151361446E+02 -0.13095053844E+03 -0.17547074416E+03  0.24318061650E+03  0.80105404797E+02 0.  0.
    5000000    2    1    2    0    0 -0.69151361446E+02  0.13095053844E+03 -0.98523823372E+03  0.11628130840E+04  0.59959147503E+03 0.  0.
        -24    2    4    4    0    0 -0.24383743493E+03  0.27372614836E+03 -0.54691515351E+03  0.66329497250E+03  0.80382438644E+02 0.  0.
         24    2    4    4    0    0  0.17468607349E+03 -0.14277560992E+03 -0.43832308022E+03  0.49951811154E+03  0.80567499962E+02 0.  0.
         11    1    3    3    0    0  0.23937482622E+02 -0.75009170710E+02 -0.14513468192E+03  0.16511648816E+03  0.00000000000E+00 0. -1.
        -12    1    3    3    0    0  0.45213878824E+02 -0.55941367726E+02 -0.30336062238E+02  0.78064128340E+02  0.00000000000E+00 0.  1.
         15    1    5    5    0    0 -0.19287971411E+03  0.21618663415E+03 -0.48345003441E+03  0.56361896561E+03  0.17770000000E+01 0. -1.
        -16    1    5    5    0    0 -0.50957720827E+02  0.57539514214E+02 -0.63465119095E+02  0.99676006891E+02  0.00000000000E+00 0.  1.
          4    1    6    6  502    0  0.11743507150E+03 -0.57312824537E+02 -0.29924044281E+03  0.32652809755E+03  0.00000000000E+00 0. -1.
         -3    1    6    6    0  502  0.57251001991E+02 -0.85462785387E+02 -0.13908263741E+03  0.17299001400E+03  0.00000000000E+00 0.  1.
<mgrwt>
<rscale>  0 0.37539704E+03</rscale>
<asrwt>0</asrwt>
<pdfrwt beam="1">  1        1 0.18868054E-01 0.37539704E+03</pdfrwt>
<pdfrwt beam="2">  1       -2 0.19743868E+00 0.37539704E+03</pdfrwt>
<totfact> 0.35878625E+01</totfact>
</mgrwt>
</event>
<event>
12    3  0.1182097E-007  0.5300951E+03  0.7818608E-02  0.1006209E+00
          1   -1    0    0  501    0  0.00000000000E+00  0.00000000000E+00  0.25002205404E+03  0.25002205404E+03  0.00000000000E+00 0. -1.
         -2   -1    0    0    0  501 -0.00000000000E+00 -0.00000000000E+00 -0.14787616161E+04  0.14787616161E+04  0.00000000000E+00 0.  1.
        -24    2    1    2    0    0 -0.40815667105E+03  0.20964210856E+02 -0.75427755506E+03  0.86157863873E+03  0.79697894540E+02 0.  0.
    5000000    2    1    2    0    0  0.40815667105E+03 -0.20964210856E+02 -0.47446200705E+03  0.86720503145E+03  0.59991583092E+03 0.  0.
        -24    2    4    4    0    0  0.23997384191E+03  0.22339324452E+03 -0.48152145671E+02  0.34082957764E+03  0.79713144250E+02 0.  0.
         24    2    4    4    0    0  0.16818282914E+03 -0.24435745537E+03 -0.42630986137E+03  0.52637545382E+03  0.85644558848E+02 0.  0.
         13    1    3    3    0    0 -0.22237909243E+03 -0.27671072215E+02 -0.39095952773E+03  0.45063011584E+03  0.00000000000E+00 0. -1.
        -14    1    3    3    0    0 -0.18577757862E+03  0.48635283071E+02 -0.36331802733E+03  0.41094852288E+03  0.00000000000E+00 0.  1.
         15    1    5    5    0    0  0.11016845719E+03  0.15064459359E+03 -0.84834721314E+01  0.18683150047E+03  0.17770000000E+01 0. -1.
        -16    1    5    5    0    0  0.12980538471E+03  0.72748650921E+02 -0.39668673539E+02  0.15399807717E+03  0.00000000000E+00 0.  1.
          4    1    6    6  502    0  0.12651793259E+03 -0.23348159894E+03 -0.36120637315E+03  0.44831962740E+03  0.00000000000E+00 0. -1.
         -3    1    6    6    0  502  0.41664896548E+02 -0.10875856427E+02 -0.65103488229E+02  0.78055826413E+02  0.00000000000E+00 0.  1.
<mgrwt>
<rscale>  0 0.53009510E+03</rscale>
<asrwt>0</asrwt>
<pdfrwt beam="1">  1        1 0.38464932E-01 0.53009510E+03</pdfrwt>
<pdfrwt beam="2">  1       -2 0.22750179E+00 0.53009510E+03</pdfrwt>
<totfact> 0.90685583E+00</totfact>
</mgrwt>
</event>
<event>
12    3  0.1182097E-007  0.4642706E+03  0.7818608E-02  0.1023550E+00
          1   -1    0    0  501    0  0.00000000000E+00  0.00000000000E+00  0.86121776157E+03  0.86121776157E+03  0.00000000000E+00 0. -1.
         -4   -1    0    0    0  501 -0.00000000000E+00 -0.00000000000E+00 -0.69523494167E+03  0.69523494167E+03  0.00000000000E+00 0.  1.
        -24    2    1    2    0    0  0.13792769252E+03 -0.38097892158E+03  0.58806588817E+03  0.71845858034E+03  0.78690887487E+02 0.  0.
    5000000    2    1    2    0    0 -0.13792769252E+03  0.38097892158E+03 -0.42208306828E+03  0.83799412290E+03  0.59992586746E+03 0.  0.
        -24    2    4    4    0    0 -0.21431859791E+03  0.14395540287E+03  0.70964059309E+02  0.27976415126E+03  0.81095395639E+02 0.  0.
         24    2    4    4    0    0  0.76390905389E+02  0.23702351870E+03 -0.49304712759E+03  0.55822997164E+03  0.80681549141E+02 0.  0.
         11    1    3    3    0    0  0.14831025319E+02 -0.15249567214E+03  0.21864894006E+03  0.26698735611E+03  0.00000000000E+00 0. -1.
        -12    1    3    3    0    0  0.12309666720E+03 -0.22848324944E+03  0.36941694811E+03  0.45147122423E+03  0.00000000000E+00 0.  1.
         15    1    5    5    0    0 -0.11240944315E+03  0.46172434495E+02  0.66321943184E+02  0.13845408803E+03  0.17770000000E+01 0. -1.
        -16    1    5    5    0    0 -0.10190915476E+03  0.97782968378E+02  0.46421161251E+01  0.14131006323E+03  0.00000000000E+00 0.  1.
          2    1    6    6  502    0  0.52565073494E+02  0.91181240724E+02 -0.27842185735E+03  0.29765052706E+03  0.00000000000E+00 0. -1.
         -1    1    6    6    0  502  0.23825831894E+02  0.14584227798E+03 -0.21462527024E+03  0.26057944458E+03  0.00000000000E+00 0.  1.
<mgrwt>
<rscale>  0 0.46427059E+03</rscale>
<asrwt>0</asrwt>
<pdfrwt beam="1">  1        1 0.13249504E+00 0.46427059E+03</pdfrwt>
<pdfrwt beam="2">  1       -4 0.10695922E+00 0.46427059E+03</pdfrwt>
<totfact> 0.68160753E+00</totfact>
</mgrwt>
</event>
<event>
12    3  0.1182097E-007  0.5165383E+03  0.7818608E-02  0.1009550E+00
         -2   -1    0    0    0  501 -0.00000000000E+00  0.00000000000E+00  0.23469024238E+03  0.23469024238E+03  0.00000000000E+00 0.  1.
          1   -1    0    0  501    0  0.00000000000E+00 -0.00000000000E+00 -0.17165619832E+04  0.17165619832E+04  0.00000000000E+00 0. -1.
        -24    2    1    2    0    0 -0.23459078230E+03 -0.39801284718E+03 -0.33003384771E+03  0.57283176701E+03  0.75939653633E+02 0.  0.
    5000000    2    1    2    0    0  0.23459078230E+03  0.39801284718E+03 -0.11518378931E+04  0.13784204586E+04  0.59988779532E+03 0.  0.
        -24    2    4    4    0    0  0.24911795856E+02  0.33959689142E+03 -0.20986097283E+03  0.40801145246E+03  0.80529939657E+02 0.  0.
         24    2    4    4    0    0  0.20967898645E+03  0.58415955759E+02 -0.94197692029E+03  0.97040900614E+03  0.83638624997E+02 0.  0.
         13    1    3    3    0    0 -0.12796517923E+03 -0.21903076306E+03 -0.22700553745E+03  0.34041309654E+03  0.00000000000E+00 0. -1.
        -14    1    3    3    0    0 -0.10662560308E+03 -0.17898208411E+03 -0.10302831026E+03  0.23241867047E+03  0.00000000000E+00 0.  1.
         15    1    5    5    0    0  0.18088838856E+02  0.11495927971E+03 -0.11641849983E+03  0.16461854973E+03  0.17770000000E+01 0. -1.
        -16    1    5    5    0    0  0.68229569998E+01  0.22463761171E+03 -0.93442472999E+02  0.24339290273E+03  0.00000000000E+00 0.  1.
          4    1    6    6  502    0  0.14793896884E+03  0.75207234083E+02 -0.74658569052E+03  0.76480864263E+03  0.00000000000E+00 0. -1.
         -3    1    6    6    0  502  0.61740017607E+02 -0.16791278324E+02 -0.19539122977E+03  0.20560036351E+03  0.00000000000E+00 0.  1.
<mgrwt>
<rscale>  0 0.51653831E+03</rscale>
<asrwt>0</asrwt>
<pdfrwt beam="1">  1        1 0.26408645E+00 0.51653831E+03</pdfrwt>
<pdfrwt beam="2">  1       -2 0.36106192E-01 0.51653831E+03</pdfrwt>
<totfact> 0.31366042E+01</totfact>
</mgrwt>
</event>
<event>
12    3  0.1182097E-007  0.9004562E+03  0.7818608E-02  0.9425011E-01
         -2   -1    0    0    0  501 -0.00000000000E+00  0.00000000000E+00  0.41487314348E+03  0.41487314348E+03  0.00000000000E+00 0.  1.
          1   -1    0    0  501    0  0.00000000000E+00 -0.00000000000E+00 -0.22408410387E+04  0.22408410387E+04  0.00000000000E+00 0. -1.
        -24    2    1    2    0    0  0.15230066258E+02 -0.79972620531E+03 -0.12936088449E+04  0.15230534436E+04  0.80461110380E+02 0.  0.
    5000000    2    1    2    0    0 -0.15230066258E+02  0.79972620531E+03 -0.53235905030E+03  0.11326607385E+04  0.59976681444E+03 0.  0.
        -24    2    4    4    0    0  0.27022602081E+03  0.25716650371E+03 -0.20093188131E+03  0.43121844843E+03  0.80118764254E+02 0.  0.
         24    2    4    4    0    0 -0.28545608707E+03  0.54255970160E+03 -0.33142716898E+03  0.70144229006E+03  0.79505411692E+02 0.  0.
         13    1    3    3    0    0  0.45213566506E+02 -0.61530396728E+03 -0.10030370370E+04  0.11775935361E+04  0.00000000000E+00 0. -1.
        -14    1    3    3    0    0 -0.29983500247E+02 -0.18442223804E+03 -0.29057180785E+03  0.34545990750E+03  0.00000000000E+00 0.  1.
         15    1    5    5    0    0  0.13233783702E+03  0.18032414935E+03 -0.11923109483E+03  0.25347448323E+03  0.17770000000E+01 0. -1.
        -16    1    5    5    0    0  0.13788818380E+03  0.76842354359E+02 -0.81700786481E+02  0.17774396520E+03  0.00000000000E+00 0.  1.
          2    1    6    6  502    0 -0.43984891510E+02  0.13346969864E+03 -0.10362815095E+03  0.17460705829E+03  0.00000000000E+00 0. -1.
         -1    1    6    6    0  502 -0.24147119556E+03  0.40909000297E+03 -0.22779901803E+03  0.52683523177E+03  0.00000000000E+00 0.  1.
<mgrwt>
<rscale>  0 0.90045616E+03</rscale>
<asrwt>0</asrwt>
<pdfrwt beam="1">  1        1 0.34474477E+00 0.90045616E+03</pdfrwt>
<pdfrwt beam="2">  1       -2 0.63826639E-01 0.90045616E+03</pdfrwt>
<totfact> 0.41751384E+00</totfact>
</mgrwt>
</event>
<event>
12    3  0.1182097E-007  0.5347746E+03  0.7818608E-02  0.1005081E+00
          1   -1    0    0  501    0  0.00000000000E+00  0.00000000000E+00  0.96767786358E+03  0.96767786358E+03  0.00000000000E+00 0. -1.
         -2   -1    0    0    0  501 -0.00000000000E+00 -0.00000000000E+00 -0.41254465514E+03  0.41254465514E+03  0.00000000000E+00 0.  1.
        -24    2    1    2    0    0  0.38928501285E+03  0.17356458783E+03  0.46953527465E+03  0.63929310075E+03  0.81023497493E+02 0.  0.
    5000000    2    1    2    0    0 -0.38928501285E+03 -0.17356458783E+03  0.85597933785E+02  0.74092941797E+03  0.59998492378E+03 0.  0.
        -24    2    4    4    0    0  0.50883018819E+01 -0.22353048524E+03 -0.14244055663E+03  0.27607161263E+03  0.77035410548E+02 0.  0.
         24    2    4    4    0    0 -0.39437331474E+03  0.49965897412E+02  0.22803849041E+03  0.46485780534E+03  0.77873768342E+02 0.  0.
         13    1    3    3    0    0  0.13555684100E+03  0.21511475071E+02  0.16723433475E+03  0.21634630439E+03  0.00000000000E+00 0. -1.
        -14    1    3    3    0    0  0.25372817185E+03  0.15205311276E+03  0.30230093990E+03  0.42294679636E+03  0.00000000000E+00 0.  1.
         15    1    5    5    0    0 -0.26155056217E+02 -0.18465523409E+03 -0.10897299141E+03  0.21600905775E+03  0.17770000000E+01 0. -1.
        -16    1    5    5    0    0  0.31243358099E+02 -0.38875251154E+02 -0.33467565212E+02  0.60062554881E+02  0.00000000000E+00 0.  1.
          4    1    6    6  502    0 -0.10071911520E+03 -0.70908540614E+01  0.90570777813E+02  0.13563807051E+03  0.00000000000E+00 0. -1.
         -3    1    6    6    0  502 -0.29365419954E+03  0.57056751473E+02  0.13746771260E+03  0.32921973483E+03  0.00000000000E+00 0.  1.
<mgrwt>
<rscale>  0 0.53477460E+03</rscale>
<asrwt>0</asrwt>
<pdfrwt beam="1">  1        1 0.14887352E+00 0.53477460E+03</pdfrwt>
<pdfrwt beam="2">  1       -2 0.63468409E-01 0.53477460E+03</pdfrwt>
<totfact> 0.33840953E+01</totfact>
</mgrwt>
</event>
<event>
12    3  0.1182097E-007  0.7811127E+03  0.7818608E-02  0.9587765E-01
          1   -1    0    0  501    0  0.00000000000E+00  0.00000000000E+00  0.10075894570E+04  0.10075894570E+04  0.00000000000E+00 0. -1.
         -2   -1    0    0    0  501 -0.00000000000E+00 -0.00000000000E+00 -0.14545713769E+04  0.14545713769E+04  0.00000000000E+00 0.  1.
        -24    2    1    2    0    0  0.62344780600E+03  0.44161269673E+03 -0.10631875441E+04  0.13116734478E+04  0.80065841305E+02 0.  0.
    5000000    2    1    2    0    0 -0.62344780600E+03 -0.44161269673E+03  0.61620562421E+03  0.11504873862E+04  0.60016907096E+03 0.  0.
        -24    2    4    4    0    0 -0.25825676783E+03 -0.79264766586E+02 -0.69355390864E+02  0.28970373886E+03  0.78349375966E+02 0.  0.
         24    2    4    4    0    0 -0.36519103817E+03 -0.36234793014E+03  0.68556101507E+03  0.86078364733E+03  0.79335145278E+02 0.  0.
         11    1    3    3    0    0  0.12223051252E+03  0.87302876491E+02 -0.26702427884E+03  0.30637241378E+03  0.00000000000E+00 0. -1.
        -12    1    3    3    0    0  0.50121729348E+03  0.35430982024E+03 -0.79616326528E+03  0.10053010340E+04  0.00000000000E+00 0.  1.
         15    1    5    5    0    0 -0.17001987978E+02 -0.30259296984E+02 -0.13364176401E+02  0.37235085458E+02  0.17770000000E+01 0. -1.
        -16    1    5    5    0    0 -0.24125477985E+03 -0.49005469602E+02 -0.55991214463E+02  0.25246865340E+03  0.00000000000E+00 0.  1.
          2    1    6    6  502    0 -0.17632903763E+03 -0.21291225754E+03  0.31815731957E+03  0.42148266739E+03  0.00000000000E+00 0. -1.
         -1    1    6    6    0  502 -0.18886200055E+03 -0.14943567260E+03  0.36740369551E+03  0.43930097993E+03  0.00000000000E+00 0.  1.
<mgrwt>
<rscale>  0 0.78111272E+03</rscale>
<asrwt>0</asrwt>
<pdfrwt beam="1">  1        1 0.15501376E+00 0.78111272E+03</pdfrwt>
<pdfrwt beam="2">  1       -2 0.22378021E+00 0.78111272E+03</pdfrwt>
<totfact> 0.12617463E+00</totfact>
</mgrwt>
</event>
<event>
12    3  0.1182097E-007  0.7524483E+03  0.7818608E-02  0.9631517E-01
          1   -1    0    0  501    0  0.00000000000E+00  0.00000000000E+00  0.12155739142E+04  0.12155739142E+04  0.00000000000E+00 0. -1.
         -2   -1    0    0    0  501 -0.00000000000E+00 -0.00000000000E+00 -0.50863599735E+03  0.50863599735E+03  0.00000000000E+00 0.  1.
        -24    2    1    2    0    0 -0.14641317611E+02  0.64226712806E+03  0.50802014993E+03  0.82292114426E+03  0.79958145125E+02 0.  0.
    5000000    2    1    2    0    0  0.14641317611E+02 -0.64226712806E+03  0.19891776693E+03  0.90128876730E+03  0.60002644283E+03 0.  0.
        -24    2    4    4    0    0 -0.71847170413E+02 -0.72198085650E+03  0.13145382289E+03  0.74329810646E+03  0.93774167326E+02 0.  0.
         24    2    4    4    0    0  0.86488488025E+02  0.79713728445E+02  0.67463944045E+02  0.15799066084E+03  0.81087163621E+02 0.  0.
         11    1    3    3    0    0 -0.19910324666E+02  0.35429382441E+03  0.32830711772E+03  0.48343158625E+03  0.00000000000E+00 0. -1.
        -12    1    3    3    0    0  0.52690070547E+01  0.28797330365E+03  0.17971303221E+03  0.33948955801E+03  0.00000000000E+00 0.  1.
         15    1    5    5    0    0  0.20229014084E+02 -0.20948625402E+03  0.26557468531E+02  0.21213712664E+03  0.17770000000E+01 0. -1.
        -16    1    5    5    0    0 -0.92076184497E+02 -0.51249460248E+03  0.10489635436E+03  0.53116097982E+03  0.00000000000E+00 0.  1.
          2    1    6    6  502    0  0.28929745339E+02 -0.40588641160E+01  0.45393490678E+02  0.53981233213E+02  0.00000000000E+00 0. -1.
         -1    1    6    6    0  502  0.57558742686E+02  0.83772592561E+02  0.22070453367E+02  0.10400942763E+03  0.00000000000E+00 0.  1.
<mgrwt>
<rscale>  0 0.75244834E+03</rscale>
<asrwt>0</asrwt>
<pdfrwt beam="1">  1        1 0.18701137E+00 0.75244834E+03</pdfrwt>
<pdfrwt beam="2">  1       -2 0.78251692E-01 0.75244834E+03</pdfrwt>
<totfact> 0.13616746E+01</totfact>
</mgrwt>
</event>
<event>
12    3  0.1182097E-007  0.1533989E+04  0.7818608E-02  0.8862160E-01
         -2   -1    0    0    0  501 -0.00000000000E+00  0.00000000000E+00  0.11868892468E+04  0.11868892468E+04  0.00000000000E+00 0.  1.
          1   -1    0    0  501    0  0.00000000000E+00 -0.00000000000E+00 -0.28063514861E+04  0.28063514861E+04  0.00000000000E+00 0. -1.
        -24    2    1    2    0    0  0.12509671072E+04 -0.82627264785E+03  0.25098738320E+03  0.15221933488E+04  0.80204318950E+02 0.  0.
    5000000    2    1    2    0    0 -0.12509671072E+04  0.82627264785E+03 -0.18704496225E+04  0.24710473840E+04  0.59987348007E+03 0.  0.
        -24    2    4    4    0    0 -0.92201567746E+02  0.24488660833E+03 -0.57674205025E+03  0.63792672365E+03  0.76475696704E+02 0.  0.
         24    2    4    4    0    0 -0.11587655394E+04  0.58138603952E+03 -0.12937075723E+04  0.18331206604E+04  0.76842506318E+02 0.  0.
         11    1    3    3    0    0  0.81057178096E+03 -0.53808373736E+03  0.12401972881E+03  0.98078622219E+03  0.00000000000E+00 0. -1.
        -12    1    3    3    0    0  0.44039532620E+03 -0.28818891049E+03  0.12696765439E+03  0.54140712660E+03  0.00000000000E+00 0.  1.
         15    1    5    5    0    0 -0.13768190677E+02  0.13133510820E+03 -0.32559505255E+03  0.35135988629E+03  0.17770000000E+01 0. -1.
        -16    1    5    5    0    0 -0.78433377068E+02  0.11355150013E+03 -0.25114699769E+03  0.28656683735E+03  0.00000000000E+00 0.  1.
          4    1    6    6  502    0 -0.90937701357E+03  0.42042047445E+03 -0.10031798875E+04  0.14177763628E+04  0.00000000000E+00 0. -1.
         -3    1    6    6    0  502 -0.24938852585E+03  0.16096556506E+03 -0.29052768474E+03  0.41534429761E+03  0.00000000000E+00 0.  1.
<mgrwt>
<rscale>  0 0.15339888E+04</rscale>
<asrwt>0</asrwt>
<pdfrwt beam="1">  1        1 0.43174638E+00 0.15339888E+04</pdfrwt>
<pdfrwt beam="2">  1       -2 0.18259835E+00 0.15339888E+04</pdfrwt>
<totfact> 0.11835911E-01</totfact>
</mgrwt>
</event>
<event>
12    3  0.1182097E-007  0.2793280E+03  0.7818608E-02  0.1096057E+00
         -2   -1    0    0    0  501 -0.00000000000E+00  0.00000000000E+00  0.25506144015E+03  0.25506144015E+03  0.00000000000E+00 0.  1.
          1   -1    0    0  501    0  0.00000000000E+00 -0.00000000000E+00 -0.80610988428E+03  0.80610988428E+03  0.00000000000E+00 0. -1.
        -24    2    1    2    0    0  0.56279377901E+02 -0.23923030356E+03 -0.16315475397E+03  0.30574406794E+03  0.80383174985E+02 0.  0.
    5000000    2    1    2    0    0 -0.56279377901E+02  0.23923030356E+03 -0.38789369017E+03  0.75542725649E+03  0.59984191122E+03 0.  0.
        -24    2    4    4    0    0  0.87378911160E+01  0.21096656445E+03  0.10685538101E+03  0.24943657734E+03  0.78849804086E+02 0.  0.
         24    2    4    4    0    0 -0.65017269017E+02  0.28263739110E+02 -0.49474907118E+03  0.50599067916E+03  0.78891316010E+02 0.  0.
         11    1    3    3    0    0  0.59703319787E+02 -0.11165932411E+03 -0.10915015125E+03  0.16717071086E+03  0.00000000000E+00 0. -1.
        -12    1    3    3    0    0 -0.34239418857E+01 -0.12757097945E+03 -0.54004602721E+02  0.13857335708E+03  0.00000000000E+00 0.  1.
         15    1    5    5    0    0  0.15591321319E+02  0.17293629548E+03  0.50018000838E+02  0.18070697201E+03  0.17770000000E+01 0. -1.
        -16    1    5    5    0    0 -0.68534302032E+01  0.38030268969E+02  0.56837380174E+02  0.68729605328E+02  0.00000000000E+00 0.  1.
          4    1    6    6  502    0  0.11335189895E+02  0.35378690223E+01 -0.20466624188E+03  0.20501042318E+03  0.00000000000E+00 0. -1.
         -3    1    6    6    0  502 -0.76352458913E+02  0.24725870088E+02 -0.29008282930E+03  0.30098025598E+03  0.00000000000E+00 0.  1.
<mgrwt>
<rscale>  0 0.27932799E+03</rscale>
<asrwt>0</asrwt>
<pdfrwt beam="1">  1        1 0.12401691E+00 0.27932799E+03</pdfrwt>
<pdfrwt beam="2">  1       -2 0.39240221E-01 0.27932799E+03</pdfrwt>
<totfact> 0.12495288E+02</totfact>
</mgrwt>
</event>
<event>
12    3  0.1182097E-007  0.8859181E+03  0.7818608E-02  0.9443358E-01
          1   -1    0    0  501    0  0.00000000000E+00  0.00000000000E+00  0.10921486160E+04  0.10921486160E+04  0.00000000000E+00 0. -1.
         -2   -1    0    0    0  501 -0.00000000000E+00 -0.00000000000E+00 -0.11685888260E+04  0.11685888260E+04  0.00000000000E+00 0.  1.
        -24    2    1    2    0    0  0.66753041805E+03 -0.53538815497E+03  0.57012638227E+03  0.10318983888E+04  0.86792036452E+02 0.  0.
    5000000    2    1    2    0    0 -0.66753041805E+03  0.53538815497E+03 -0.64656659221E+03  0.12288390532E+04  0.59979973745E+03 0.  0.
        -24    2    4    4    0    0  0.44457852429E+01  0.11334902900E+03  0.70111590976E+02  0.15666229245E+03  0.82217220238E+02 0.  0.
         24    2    4    4    0    0 -0.67197620329E+03  0.42203912597E+03 -0.71667818319E+03  0.10721767608E+04  0.79160257945E+02 0.  0.
         11    1    3    3    0    0  0.29458311881E+03 -0.20407009704E+03  0.28024690432E+03  0.45493092418E+03  0.00000000000E+00 0. -1.
        -12    1    3    3    0    0  0.37294729924E+03 -0.33131805793E+03  0.28987947795E+03  0.57696746464E+03  0.00000000000E+00 0.  1.
         15    1    5    5    0    0 -0.84120390695E+01  0.95898282258E+02  0.86544145396E+02  0.12946153781E+03  0.17770000000E+01 0. -1.
        -16    1    5    5    0    0  0.12857824312E+02  0.17450746743E+02 -0.16432554420E+02  0.27200754635E+02  0.00000000000E+00 0.  1.
          4    1    6    6  502    0 -0.85641223571E+02  0.27544911688E+02 -0.96717357016E+02  0.13208856303E+03  0.00000000000E+00 0. -1.
         -3    1    6    6    0  502 -0.58633497972E+03  0.39449421428E+03 -0.61996082617E+03  0.94008819774E+03  0.00000000000E+00 0.  1.
<mgrwt>
<rscale>  0 0.88591810E+03</rscale>
<asrwt>0</asrwt>
<pdfrwt beam="1">  1        1 0.16802287E+00 0.88591810E+03</pdfrwt>
<pdfrwt beam="2">  1       -2 0.17978289E+00 0.88591810E+03</pdfrwt>
<totfact> 0.20718893E+00</totfact>
</mgrwt>
</event>
<event>
12    3  0.1182097E-007  0.9506869E+03  0.7818608E-02  0.9364348E-01
          1   -1    0    0  501    0  0.00000000000E+00  0.00000000000E+00  0.17875679947E+04  0.17875679947E+04  0.00000000000E+00 0. -1.
         -2   -1    0    0    0  501 -0.00000000000E+00 -0.00000000000E+00 -0.59006435761E+03  0.59006435761E+03  0.00000000000E+00 0.  1.
        -24    2    1    2    0    0 -0.60963848383E+03 -0.60405021638E+03  0.98546457709E+03  0.13093114196E+04  0.81364708960E+02 0.  0.
    5000000    2    1    2    0    0  0.60963848383E+03  0.60405021638E+03  0.21203906002E+03  0.10683209328E+04  0.59984440276E+03 0.  0.
        -24    2    4    4    0    0  0.71448503306E+03  0.54602157633E+03  0.16191225193E+03  0.91719896005E+03  0.80062042838E+02 0.  0.
         24    2    4    4    0    0 -0.10484654923E+03  0.58028640048E+02  0.50126808087E+02  0.15112197271E+03  0.77233618302E+02 0.  0.
         13    1    3    3    0    0 -0.36138919464E+03 -0.38973146085E+03  0.65809352691E+03  0.84591953029E+03  0.00000000000E+00 0. -1.
        -14    1    3    3    0    0 -0.24824928919E+03 -0.21431875553E+03  0.32737105019E+03  0.46339188929E+03  0.00000000000E+00 0.  1.
         15    1    5    5    0    0  0.85088127183E+02  0.59805025503E+02 -0.65531367955E+01  0.10422442993E+03  0.17770000000E+01 0. -1.
        -16    1    5    5    0    0  0.62939690588E+03  0.48621655083E+03  0.16846538872E+03  0.81297453012E+03  0.00000000000E+00 0.  1.
          2    1    6    6  502    0 -0.10864818334E+02  0.46645996896E+02  0.16364004475E+02  0.50612981994E+02  0.00000000000E+00 0. -1.
         -1    1    6    6    0  502 -0.93981730895E+02  0.11382643152E+02  0.33762803613E+02  0.10050899072E+03  0.00000000000E+00 0.  1.
<mgrwt>
<rscale>  0 0.95068692E+03</rscale>
<asrwt>0</asrwt>
<pdfrwt beam="1">  1        1 0.27501046E+00 0.95068692E+03</pdfrwt>
<pdfrwt beam="2">  1       -2 0.90779133E-01 0.95068692E+03</pdfrwt>
<totfact> 0.38156170E+00</totfact>
</mgrwt>
</event>
<event>
12    3  0.1182097E-007  0.1073036E+04  0.7818608E-02  0.9231878E-01
         -2   -1    0    0    0  501 -0.00000000000E+00  0.00000000000E+00  0.10830968661E+04  0.10830968661E+04  0.00000000000E+00 0.  1.
          1   -1    0    0  501    0  0.00000000000E+00 -0.00000000000E+00 -0.33755353696E+04  0.33755353696E+04  0.00000000000E+00 0. -1.
        -24    2    1    2    0    0 -0.90012435437E+03 -0.55010540031E+03  0.67341151302E+03  0.12541239621E+04  0.80647639088E+02 0.  0.
    5000000    2    1    2    0    0  0.90012435437E+03  0.55010540031E+03 -0.29658500165E+04  0.32045082736E+04  0.59980592721E+03 0.  0.
        -24    2    4    4    0    0  0.57055620579E+03  0.45218199048E+03 -0.25567059388E+04  0.26602401716E+04  0.10064579700E+03 0.  0.
         24    2    4    4    0    0  0.32956814858E+03  0.97923409835E+02 -0.40914407768E+03  0.54426810200E+03  0.10307633967E+03 0.  0.
         13    1    3    3    0    0 -0.21589017047E+03 -0.14956319260E+03  0.20568194255E+03  0.33359073096E+03  0.00000000000E+00 0. -1.
        -14    1    3    3    0    0 -0.68423418389E+03 -0.40054220771E+03  0.46772957047E+03  0.92053323116E+03  0.00000000000E+00 0.  1.
         15    1    5    5    0    0  0.49115355380E+03  0.42476238878E+03 -0.22038836885E+04  0.22975555206E+04  0.17770000000E+01 0. -1.
        -16    1    5    5    0    0  0.79402651985E+02  0.27419601703E+02 -0.35282225037E+03  0.36268465098E+03  0.00000000000E+00 0.  1.
          2    1    6    6  502    0  0.30953786414E+03  0.61389804169E+02 -0.34286780470E+03  0.46598361441E+03  0.00000000000E+00 0. -1.
         -1    1    6    6    0  502  0.20030284438E+02  0.36533605666E+02 -0.66276272975E+02  0.78284487589E+02  0.00000000000E+00 0.  1.
<mgrwt>
<rscale>  0 0.10730362E+04</rscale>
<asrwt>0</asrwt>
<pdfrwt beam="1">  1        1 0.51931312E+00 0.10730362E+04</pdfrwt>
<pdfrwt beam="2">  1       -2 0.16663029E+00 0.10730362E+04</pdfrwt>
<totfact> 0.62654003E-02</totfact>
</mgrwt>
</event>
<event>
12    3  0.1182097E-007  0.6188967E+03  0.7818608E-02  0.9866959E-01
         -2   -1    0    0    0  501 -0.00000000000E+00  0.00000000000E+00  0.52370629138E+03  0.52370629138E+03  0.00000000000E+00 0.  1.
          1   -1    0    0  501    0  0.00000000000E+00 -0.00000000000E+00 -0.18161450426E+04  0.18161450426E+04  0.00000000000E+00 0. -1.
        -24    2    1    2    0    0  0.45783809570E+03  0.13883953635E+03 -0.14724646579E+04  0.15516428000E+04  0.10271840785E+03 0.  0.
    5000000    2    1    2    0    0 -0.45783809570E+03 -0.13883953635E+03  0.18002590669E+03  0.78820853397E+03  0.59997602221E+03 0.  0.
        -24    2    4    4    0    0 -0.22868073753E+03 -0.35912826118E+03  0.13926032714E+03  0.45520947114E+03  0.80958237453E+02 0.  0.
         24    2    4    4    0    0 -0.22915735817E+03  0.22028872483E+03  0.40765579551E+02  0.33299906283E+03  0.90478319394E+02 0.  0.
         13    1    3    3    0    0  0.38499198994E+03  0.95494724910E+02 -0.10909016880E+04  0.11607775703E+04  0.00000000000E+00 0. -1.
        -14    1    3    3    0    0  0.72846105759E+02  0.43344811440E+02 -0.38156296984E+03  0.39086522966E+03  0.00000000000E+00 0.  1.
         15    1    5    5    0    0 -0.22078423925E+03 -0.33851613167E+03  0.14944369520E+03  0.43090071648E+03  0.17770000000E+01 0. -1.
        -16    1    5    5    0    0 -0.78964982820E+01 -0.20612129511E+02 -0.10183368067E+02  0.24308754663E+02  0.00000000000E+00 0.  1.
          2    1    6    6  502    0 -0.16344217287E+03  0.96008060523E+02  0.15771395578E+02  0.19020943319E+03  0.00000000000E+00 0. -1.
         -1    1    6    6    0  502 -0.65715185298E+02  0.12428066431E+03  0.24994183974E+02  0.14278962964E+03  0.00000000000E+00 0.  1.
<mgrwt>
<rscale>  0 0.61889668E+03</rscale>
<asrwt>0</asrwt>
<pdfrwt beam="1">  1        1 0.27940694E+00 0.61889668E+03</pdfrwt>
<pdfrwt beam="2">  1       -2 0.80570197E-01 0.61889668E+03</pdfrwt>
<totfact> 0.50434251E+00</totfact>
</mgrwt>
</event>
<event>
12    3  0.1182097E-007  0.6769493E+03  0.7818608E-02  0.9757485E-01
         -2   -1    0    0    0  501 -0.00000000000E+00  0.00000000000E+00  0.63452857237E+03  0.63452857237E+03  0.00000000000E+00 0.  1.
          1   -1    0    0  501    0  0.00000000000E+00 -0.00000000000E+00 -0.74249618357E+03  0.74249618357E+03  0.00000000000E+00 0. -1.
        -24    2    1    2    0    0  0.38780097828E+03  0.37924028122E+03 -0.14579435179E+03  0.56733189825E+03  0.79979373006E+02 0.  0.
    5000000    2    1    2    0    0 -0.38780097828E+03 -0.37924028122E+03  0.37826740594E+02  0.80969285769E+03  0.59996572555E+03 0.  0.
        -24    2    4    4    0    0 -0.37548026383E+03  0.36529316054E+02  0.37270931699E+02  0.38603769948E+03  0.72912026490E+02 0.  0.
         24    2    4    4    0    0 -0.12320714444E+02 -0.41576959727E+03  0.55580889570E+00  0.42365515821E+03  0.80419065729E+02 0.  0.
         11    1    3    3    0    0  0.23416978315E+03  0.17682269282E+03 -0.92719861363E+02  0.30773157902E+03  0.00000000000E+00 0. -1.
        -12    1    3    3    0    0  0.15363119513E+03  0.20241758840E+03 -0.53074490429E+02  0.25960031923E+03  0.00000000000E+00 0.  1.
         15    1    5    5    0    0 -0.22597893799E+03  0.55631958545E+02  0.10559940442E+02  0.23297224147E+03  0.17770000000E+01 0. -1.
        -16    1    5    5    0    0 -0.14950132585E+03 -0.19102642490E+02  0.26710991257E+02  0.15306545800E+03  0.00000000000E+00 0.  1.
          2    1    6    6  502    0  0.32124601678E+02 -0.14577618261E+03 -0.11877500549E+02  0.14974565259E+03  0.00000000000E+00 0. -1.
         -1    1    6    6    0  502 -0.44445316122E+02 -0.26999341466E+03  0.12433309444E+02  0.27390950562E+03  0.00000000000E+00 0.  1.
<mgrwt>
<rscale>  0 0.67694929E+03</rscale>
<asrwt>0</asrwt>
<pdfrwt beam="1">  1        1 0.11423018E+00 0.67694929E+03</pdfrwt>
<pdfrwt beam="2">  1       -2 0.97619780E-01 0.67694929E+03</pdfrwt>
<totfact> 0.19589466E+01</totfact>
</mgrwt>
</event>
<event>
12    3  0.1182097E-007  0.1007696E+04  0.7818608E-02  0.9300144E-01
          1   -1    0    0  501    0  0.00000000000E+00  0.00000000000E+00  0.52245349174E+03  0.52245349174E+03  0.00000000000E+00 0. -1.
         -2   -1    0    0    0  501 -0.00000000000E+00 -0.00000000000E+00 -0.20165559025E+04  0.20165559025E+04  0.00000000000E+00 0.  1.
        -24    2    1    2    0    0 -0.73485756457E+03  0.57704401089E+03 -0.59937229048E+03  0.11129713886E+04  0.80391160108E+02 0.  0.
    5000000    2    1    2    0    0  0.73485756457E+03 -0.57704401089E+03 -0.89473012031E+03  0.14260380056E+04  0.60003914423E+03 0.  0.
        -24    2    4    4    0    0  0.18912259789E+03 -0.48591724874E+03 -0.28784018470E+03  0.60087973060E+03  0.79508169849E+02 0.  0.
         24    2    4    4    0    0  0.54573496668E+03 -0.91126762150E+02 -0.60688993562E+03  0.82515827503E+03  0.80249886323E+02 0.  0.
         13    1    3    3    0    0 -0.31375948932E+03  0.23226078178E+03 -0.29585584084E+03  0.48981707448E+03  0.00000000000E+00 0. -1.
        -14    1    3    3    0    0 -0.42109807525E+03  0.34478322910E+03 -0.30351644964E+03  0.62315431416E+03  0.00000000000E+00 0.  1.
         15    1    5    5    0    0  0.10788470391E+03 -0.18674146643E+03 -0.94075697682E+02  0.23529742720E+03  0.17770000000E+01 0. -1.
        -16    1    5    5    0    0  0.81237893982E+02 -0.29917578230E+03 -0.19376448701E+03  0.36558230341E+03  0.00000000000E+00 0.  1.
          2    1    6    6  502    0  0.42116475761E+03 -0.89223477995E+02 -0.50945643870E+03  0.66699808471E+03  0.00000000000E+00 0. -1.
         -1    1    6    6    0  502  0.12457020907E+03 -0.19032841554E+01 -0.97433496915E+02  0.15816019032E+03  0.00000000000E+00 0.  1.
<mgrwt>
<rscale>  0 0.10076960E+04</rscale>
<asrwt>0</asrwt>
<pdfrwt beam="1">  1        1 0.80377461E-01 0.10076960E+04</pdfrwt>
<pdfrwt beam="2">  1       -2 0.31023937E+00 0.10076960E+04</pdfrwt>
<totfact> 0.10147318E+00</totfact>
</mgrwt>
</event>
<event>
12    3  0.1182097E-007  0.3772631E+03  0.7818608E-02  0.1051950E+00
          1   -1    0    0  501    0  0.00000000000E+00  0.00000000000E+00  0.26393507479E+04  0.26393507479E+04  0.00000000000E+00 0. -1.
         -2   -1    0    0    0  501 -0.00000000000E+00 -0.00000000000E+00 -0.10806297080E+03  0.10806297080E+03  0.00000000000E+00 0.  1.
        -24    2    1    2    0    0 -0.20864414462E+03  0.17966298178E+03  0.14687024980E+04  0.14964016409E+04  0.79496398734E+02 0.  0.
    5000000    2    1    2    0    0  0.20864414462E+03 -0.17966298178E+03  0.10625852792E+04  0.12510120778E+04  0.60011047080E+03 0.  0.
        -24    2    4    4    0    0  0.26606249394E+03  0.10167513842E+02  0.98601828476E+03  0.10244563512E+04  0.79913256644E+02 0.  0.
         24    2    4    4    0    0 -0.57418349321E+02 -0.18983049562E+03  0.76566994419E+02  0.22655572661E+03  0.78310335980E+02 0.  0.
         11    1    3    3    0    0 -0.12571264943E+03  0.57937220503E+02  0.76999151423E+03  0.78233453441E+03  0.00000000000E+00 0. -1.
        -12    1    3    3    0    0 -0.82931495187E+02  0.12172576127E+03  0.69871098373E+03  0.71406710653E+03  0.00000000000E+00 0.  1.
         15    1    5    5    0    0  0.19737255912E+03  0.91834477146E+01  0.58170782167E+03  0.61435121090E+03  0.17770000000E+01 0. -1.
        -16    1    5    5    0    0  0.68689934824E+02  0.98406612740E+00  0.40431046309E+03  0.41010514029E+03  0.00000000000E+00 0.  1.
          2    1    6    6  502    0 -0.17818179875E+02 -0.15085211559E+02 -0.12479400153E+02  0.26472373713E+02  0.00000000000E+00 0. -1.
         -1    1    6    6    0  502 -0.39600169446E+02 -0.17474528406E+03  0.89046394573E+02  0.20008335290E+03  0.00000000000E+00 0.  1.
<mgrwt>
<rscale>  0 0.37726306E+03</rscale>
<asrwt>0</asrwt>
<pdfrwt beam="1">  1        1 0.40605391E+00 0.37726306E+03</pdfrwt>
<pdfrwt beam="2">  1       -2 0.16625074E-01 0.37726306E+03</pdfrwt>
<totfact> 0.31468199E+01</totfact>
</mgrwt>
</event>
<event>
12    3  0.1182097E-007  0.1035489E+04  0.7818608E-02  0.9270455E-01
          1   -1    0    0  501    0  0.00000000000E+00  0.00000000000E+00  0.10126180716E+04  0.10126180716E+04  0.00000000000E+00 0. -1.
         -2   -1    0    0    0  501 -0.00000000000E+00 -0.00000000000E+00 -0.14614033680E+04  0.14614033680E+04  0.00000000000E+00 0.  1.
        -24    2    1    2    0    0  0.78172916617E+03 -0.55825944868E+03  0.41533288633E+03  0.10493954477E+04  0.77300051305E+02 0.  0.
    5000000    2    1    2    0    0 -0.78172916617E+03  0.55825944868E+03 -0.86411818279E+03  0.14246259919E+04  0.60008739499E+03 0.  0.
        -24    2    4    4    0    0 -0.27951161418E+03 -0.74199362152E+02 -0.36240945512E+03  0.47047788364E+03  0.79853228068E+02 0.  0.
         24    2    4    4    0    0 -0.50221755198E+03  0.63245881083E+03 -0.50170872768E+03  0.95414810823E+03  0.80376290708E+02 0.  0.
         13    1    3    3    0    0  0.23800384942E+03 -0.20813722308E+03  0.15694410649E+03  0.35298496927E+03  0.00000000000E+00 0. -1.
        -14    1    3    3    0    0  0.54372531675E+03 -0.35012222559E+03  0.25838877985E+03  0.69641047844E+03  0.00000000000E+00 0.  1.
         15    1    5    5    0    0 -0.34579876529E+01 -0.17750398555E+02 -0.24591492852E+02  0.30576683554E+02  0.17770000000E+01 0. -1.
        -16    1    5    5    0    0 -0.27605362653E+03 -0.56448963597E+02 -0.33781796226E+03  0.43990120009E+03  0.00000000000E+00 0.  1.
          2    1    6    6  502    0 -0.30645674393E+03  0.36214655179E+03 -0.25098637278E+03  0.53671223220E+03  0.00000000000E+00 0. -1.
         -1    1    6    6    0  502 -0.19576080806E+03  0.27031225904E+03 -0.25072235489E+03  0.41743587604E+03  0.00000000000E+00 0.  1.
<mgrwt>
<rscale>  0 0.10354891E+04</rscale>
<asrwt>0</asrwt>
<pdfrwt beam="1">  1        1 0.15578740E+00 0.10354891E+04</pdfrwt>
<pdfrwt beam="2">  1       -2 0.22483129E+00 0.10354891E+04</pdfrwt>
<totfact> 0.11878789E+00</totfact>
</mgrwt>
</event>
<event>
12    3  0.1182097E-007  0.1014327E+04  0.7818608E-02  0.9292970E-01
          1   -1    0    0  501    0  0.00000000000E+00  0.00000000000E+00  0.18331054148E+04  0.18331054148E+04  0.00000000000E+00 0. -1.
         -2   -1    0    0    0  501 -0.00000000000E+00 -0.00000000000E+00 -0.69284054379E+03  0.69284054379E+03  0.00000000000E+00 0.  1.
        -24    2    1    2    0    0 -0.93088264579E+00 -0.93615598705E+03  0.10520220228E+04  0.14105024096E+04  0.79861206123E+02 0.  0.
    5000000    2    1    2    0    0  0.93088264579E+00  0.93615598705E+03  0.88242848202E+02  0.11154435491E+04  0.60003217599E+03 0.  0.
        -24    2    4    4    0    0  0.28013346800E+03  0.42658520218E+03 -0.12782856372E+02  0.52025558811E+03  0.10026355731E+03 0.  0.
         24    2    4    4    0    0 -0.27920258535E+03  0.50957078487E+03  0.10102570457E+03  0.59518796095E+03  0.80162631017E+02 0.  0.
         11    1    3    3    0    0 -0.14807249528E+02 -0.48085045263E+03  0.59620555276E+03  0.76609234011E+03  0.00000000000E+00 0. -1.
        -12    1    3    3    0    0  0.13876366882E+02 -0.45530553442E+03  0.45581647008E+03  0.64441006947E+03  0.00000000000E+00 0.  1.
         15    1    5    5    0    0  0.13045302679E+03  0.19457732308E+03  0.44030225440E+02  0.23836976598E+03  0.17770000000E+01 0. -1.
        -16    1    5    5    0    0  0.14968044121E+03  0.23200787910E+03 -0.56813081813E+02  0.28188582212E+03  0.00000000000E+00 0.  1.
          4    1    6    6  502    0 -0.13714238854E+03  0.27863808427E+03  0.92034359961E+02  0.32390977163E+03  0.00000000000E+00 0. -1.
         -3    1    6    6    0  502 -0.14206019681E+03  0.23093270060E+03  0.89913446134E+01  0.27127818932E+03  0.00000000000E+00 0.  1.
<mgrwt>
<rscale>  0 0.10143266E+04</rscale>
<asrwt>0</asrwt>
<pdfrwt beam="1">  1        1 0.28201622E+00 0.10143266E+04</pdfrwt>
<pdfrwt beam="2">  1       -2 0.10659085E+00 0.10143266E+04</pdfrwt>
<totfact> 0.24109054E+00</totfact>
</mgrwt>
</event>
<event>
12    3  0.1182097E-007  0.6518377E+03  0.7818608E-02  0.9803337E-01
         -2   -1    0    0    0  501 -0.00000000000E+00  0.00000000000E+00  0.15020869420E+04  0.15020869420E+04  0.00000000000E+00 0.  1.
          1   -1    0    0  501    0  0.00000000000E+00 -0.00000000000E+00 -0.51441714453E+03  0.51441714453E+03  0.00000000000E+00 0. -1.
        -24    2    1    2    0    0  0.27980460778E+03 -0.55688612286E+03 -0.89403080929E+02  0.63497119330E+03  0.82357349801E+02 0.  0.
    5000000    2    1    2    0    0 -0.27980460778E+03  0.55688612286E+03  0.10770728784E+04  0.13815328932E+04  0.60011197067E+03 0.  0.
        -24    2    4    4    0    0 -0.12555046032E+03  0.55540884476E+02 -0.22787181942E+02  0.16033430680E+03  0.79624910301E+02 0.  0.
         24    2    4    4    0    0 -0.15425414746E+03  0.50134523839E+03  0.10998600604E+04  0.12211985865E+04  0.80575710522E+02 0.  0.
         11    1    3    3    0    0  0.15369784434E+03 -0.23438024478E+03 -0.65691387628E+02  0.28787581507E+03  0.00000000000E+00 0. -1.
        -12    1    3    3    0    0  0.12610676345E+03 -0.32250587808E+03 -0.23711693301E+02  0.34709537822E+03  0.00000000000E+00 0.  1.
         15    1    5    5    0    0 -0.11543013395E+03  0.22050729338E+02  0.18477241187E+01  0.11754540527E+03  0.17770000000E+01 0. -1.
        -16    1    5    5    0    0 -0.10120326372E+02  0.33490155138E+02 -0.24634906061E+02  0.42788901524E+02  0.00000000000E+00 0.  1.
          4    1    6    6  502    0 -0.81884556174E+02  0.25327953005E+03  0.65018912205E+03  0.70256778698E+03  0.00000000000E+00 0. -1.
         -3    1    6    6    0  502 -0.72369591289E+02  0.24806570834E+03  0.44967093831E+03  0.51863079947E+03  0.00000000000E+00 0.  1.
<mgrwt>
<rscale>  0 0.65183771E+03</rscale>
<asrwt>0</asrwt>
<pdfrwt beam="1">  1        1 0.79141100E-01 0.65183771E+03</pdfrwt>
<pdfrwt beam="2">  1       -2 0.23109030E+00 0.65183771E+03</pdfrwt>
<totfact> 0.32825473E+00</totfact>
</mgrwt>
</event>
<event>
12    3  0.1182097E-007  0.4178402E+03  0.7818608E-02  0.1037772E+00
         -2   -1    0    0    0  501 -0.00000000000E+00  0.00000000000E+00  0.68045103812E+03  0.68045103812E+03  0.00000000000E+00 0.  1.
          1   -1    0    0  501    0  0.00000000000E+00 -0.00000000000E+00 -0.33493200199E+03  0.33493200199E+03  0.00000000000E+00 0. -1.
        -24    2    1    2    0    0  0.18334619013E+03  0.19682281153E+03  0.19493332765E+03  0.34116244440E+03  0.77703067253E+02 0.  0.
    5000000    2    1    2    0    0 -0.18334619013E+03 -0.19682281153E+03  0.15058570849E+03  0.67422059572E+03  0.59961847162E+03 0.  0.
        -24    2    4    4    0    0 -0.29585371002E+03 -0.28804892680E+03  0.24204338475E+03  0.48522548084E+03  0.79731833011E+02 0.  0.
         24    2    4    4    0    0  0.11250751988E+03  0.91226115261E+02 -0.91457676267E+02  0.18899511488E+03  0.79840470711E+02 0.  0.
         11    1    3    3    0    0  0.10565910479E+03  0.10981492107E+03  0.62567326037E+02  0.16473564763E+03  0.00000000000E+00 0. -1.
        -12    1    3    3    0    0  0.77687085344E+02  0.87007890469E+02  0.13236600161E+03  0.17642679676E+03  0.00000000000E+00 0.  1.
         15    1    5    5    0    0 -0.19615482924E+03 -0.13769297821E+03  0.14945248652E+03  0.28244517475E+03  0.17770000000E+01 0. -1.
        -16    1    5    5    0    0 -0.99698880775E+02 -0.15035594858E+03  0.92590898228E+02  0.20278030609E+03  0.00000000000E+00 0.  1.
          2    1    6    6  502    0  0.18400075192E+02  0.26866057250E+02  0.12329692905E+02  0.34819091406E+02  0.00000000000E+00 0. -1.
         -1    1    6    6    0  502  0.94107444692E+02  0.64360058011E+02 -0.10378736917E+03  0.15417602347E+03  0.00000000000E+00 0.  1.
<mgrwt>
<rscale>  0 0.41784024E+03</rscale>
<asrwt>0</asrwt>
<pdfrwt beam="1">  1        1 0.51528000E-01 0.41784024E+03</pdfrwt>
<pdfrwt beam="2">  1       -2 0.10468478E+00 0.41784024E+03</pdfrwt>
<totfact> 0.51153754E+01</totfact>
</mgrwt>
</event>
<event>
12    3  0.1182097E-007  0.6196132E+03  0.7818608E-02  0.9865530E-01
         -2   -1    0    0    0  501 -0.00000000000E+00  0.00000000000E+00  0.34881866608E+03  0.34881866608E+03  0.00000000000E+00 0.  1.
          1   -1    0    0  501    0  0.00000000000E+00 -0.00000000000E+00 -0.11555496361E+04  0.11555496361E+04  0.00000000000E+00 0. -1.
        -24    2    1    2    0    0 -0.35419116879E+03 -0.32446436512E+03 -0.42536283558E+03  0.64636878509E+03  0.78297868216E+02 0.  0.
    5000000    2    1    2    0    0  0.35419116879E+03  0.32446436512E+03 -0.38136813448E+03  0.85799951713E+03  0.59999417424E+03 0.  0.
        -24    2    4    4    0    0  0.48624202187E+03  0.12419852889E+03 -0.30971682654E+03  0.59556579240E+03  0.83171641971E+02 0.  0.
         24    2    4    4    0    0 -0.13205085307E+03  0.20026583622E+03 -0.71651307940E+02  0.26243372473E+03  0.78700171478E+02 0.  0.
         13    1    3    3    0    0 -0.26524147606E+03 -0.19636380961E+03 -0.27234782350E+03  0.42788447426E+03  0.00000000000E+00 0. -1.
        -14    1    3    3    0    0 -0.88949692735E+02 -0.12810055550E+03 -0.15301501209E+03  0.21848431084E+03  0.00000000000E+00 0.  1.
         15    1    5    5    0    0  0.43529581975E+03  0.94859296829E+02 -0.29693778296E+03  0.53540259765E+03  0.17770000000E+01 0. -1.
        -16    1    5    5    0    0  0.50946202114E+02  0.29339232064E+02 -0.12779043574E+02  0.60163194751E+02  0.00000000000E+00 0.  1.
          2    1    6    6  502    0 -0.72784515792E+02  0.52508470653E+02 -0.47083847038E+02  0.10134897080E+03  0.00000000000E+00 0. -1.
         -1    1    6    6    0  502 -0.59266337283E+02  0.14775736557E+03 -0.24567460901E+02  0.16108475394E+03  0.00000000000E+00 0.  1.
<mgrwt>
<rscale>  0 0.61961322E+03</rscale>
<asrwt>0</asrwt>
<pdfrwt beam="1">  1        1 0.17777687E+00 0.61961322E+03</pdfrwt>
<pdfrwt beam="2">  1       -2 0.53664410E-01 0.61961322E+03</pdfrwt>
<totfact> 0.34355049E+01</totfact>
</mgrwt>
</event>
<event>
12    3  0.1182097E-007  0.5098195E+03  0.7818608E-02  0.1011247E+00
          1   -1    0    0  501    0  0.00000000000E+00  0.00000000000E+00  0.14579870322E+04  0.14579870322E+04  0.00000000000E+00 0. -1.
         -2   -1    0    0    0  501 -0.00000000000E+00 -0.00000000000E+00 -0.20632315702E+03  0.20632315702E+03  0.00000000000E+00 0.  1.
        -24    2    1    2    0    0 -0.35588305485E+03 -0.60827962249E+01  0.63872547568E+03  0.73567681599E+03  0.80996266329E+02 0.  0.
    5000000    2    1    2    0    0  0.35588305485E+03  0.60827962249E+01  0.61293839945E+03  0.92863337319E+03  0.59998059231E+03 0.  0.
        -24    2    4    4    0    0  0.23773000135E+03  0.27461358632E+03  0.45148639711E+03  0.58495571412E+03  0.80031527374E+02 0.  0.
         24    2    4    4    0    0  0.11815305350E+03 -0.26853079010E+03  0.16145200233E+03  0.34367765906E+03  0.77321762785E+02 0.  0.
         11    1    3    3    0    0 -0.61477713311E+02 -0.53402801083E+00  0.18343822001E+03  0.19346672835E+03  0.00000000000E+00 0. -1.
        -12    1    3    3    0    0 -0.29440534154E+03 -0.55487682141E+01  0.45528725568E+03  0.54221008764E+03  0.00000000000E+00 0.  1.
         15    1    5    5    0    0  0.36629822426E+02  0.70015876868E+02  0.58202695973E+02  0.98156397917E+02  0.17770000000E+01 0. -1.
        -16    1    5    5    0    0  0.20110017893E+03  0.20459770945E+03  0.39328370114E+03  0.48679931621E+03  0.00000000000E+00 0.  1.
          2    1    6    6  502    0 -0.27443982081E+01 -0.32241968341E+02  0.40925508809E+02  0.52172536025E+02  0.00000000000E+00 0. -1.
         -1    1    6    6    0  502  0.12089745171E+03 -0.23628882176E+03  0.12052649353E+03  0.29150512304E+03  0.00000000000E+00 0.  1.
<mgrwt>
<rscale>  0 0.50981946E+03</rscale>
<asrwt>0</asrwt>
<pdfrwt beam="1">  1        1 0.22430569E+00 0.50981946E+03</pdfrwt>
<pdfrwt beam="2">  1       -2 0.31742025E-01 0.50981946E+03</pdfrwt>
<totfact> 0.59698859E+01</totfact>
</mgrwt>
</event>
<event>
12    3  0.1182097E-007  0.6669232E+03  0.7818608E-02  0.9775532E-01
          1   -1    0    0  501    0  0.00000000000E+00  0.00000000000E+00  0.15528219027E+04  0.15528219027E+04  0.00000000000E+00 0. -1.
         -2   -1    0    0    0  501 -0.00000000000E+00 -0.00000000000E+00 -0.34546231202E+03  0.34546231202E+03  0.00000000000E+00 0.  1.
        -24    2    1    2    0    0 -0.43133037235E+03  0.42188937569E+03  0.42332381742E+03  0.74131215231E+03  0.79398471911E+02 0.  0.
    5000000    2    1    2    0    0  0.43133037235E+03 -0.42188937569E+03  0.78403577330E+03  0.11569720624E+04  0.59986308774E+03 0.  0.
        -24    2    4    4    0    0  0.47357075984E+03 -0.31902247084E+03  0.30212080521E+03  0.65078126081E+03  0.78706206854E+02 0.  0.
         24    2    4    4    0    0 -0.42240387496E+02 -0.10286690485E+03  0.48191496809E+03  0.50619080164E+03  0.10780185871E+03 0.  0.
         13    1    3    3    0    0 -0.15977531332E+03  0.19794603418E+03  0.14683396998E+03  0.29371925020E+03  0.00000000000E+00 0. -1.
        -14    1    3    3    0    0 -0.27155505903E+03  0.22394334151E+03  0.27648984744E+03  0.44759290211E+03  0.00000000000E+00 0.  1.
         15    1    5    5    0    0  0.16454102398E+03 -0.14114366779E+03  0.82224922751E+02  0.23186068917E+03  0.17770000000E+01 0. -1.
        -16    1    5    5    0    0  0.30902973586E+03 -0.17787880305E+03  0.21989588246E+03  0.41892057164E+03  0.00000000000E+00 0.  1.
          2    1    6    6  502    0 -0.78280194340E+02 -0.63968523841E+02  0.29161210153E+03  0.30863794100E+03  0.00000000000E+00 0. -1.
         -1    1    6    6    0  502  0.36039806845E+02 -0.38898381008E+02  0.19030286656E+03  0.19755286063E+03  0.00000000000E+00 0.  1.
<mgrwt>
<rscale>  0 0.66692321E+03</rscale>
<asrwt>0</asrwt>
<pdfrwt beam="1">  1        1 0.23889567E+00 0.66692321E+03</pdfrwt>
<pdfrwt beam="2">  1       -2 0.53148049E-01 0.66692321E+03</pdfrwt>
<totfact> 0.18374865E+01</totfact>
</mgrwt>
</event>
<event>
12    3  0.1182097E-007  0.5679625E+03  0.7818608E-02  0.9974197E-01
          1   -1    0    0  501    0  0.00000000000E+00  0.00000000000E+00  0.16733943476E+04  0.16733943476E+04  0.00000000000E+00 0. -1.
         -2   -1    0    0    0  501 -0.00000000000E+00 -0.00000000000E+00 -0.24242113379E+03  0.24242113379E+03  0.00000000000E+00 0.  1.
        -24    2    1    2    0    0  0.41621405836E+03  0.18127489322E+02  0.16832970283E+03  0.45713075895E+03  0.84088606068E+02 0.  0.
    5000000    2    1    2    0    0 -0.41621405836E+03 -0.18127489322E+02  0.12626435109E+04  0.14586847224E+04  0.59994144334E+03 0.  0.
        -24    2    4    4    0    0 -0.26938671001E+03  0.27035178977E+03  0.78279004203E+03  0.87445494807E+03  0.79069061782E+02 0.  0.
         24    2    4    4    0    0 -0.14682734835E+03 -0.28847927909E+03  0.47985346891E+03  0.58422977435E+03  0.79287533190E+02 0.  0.
         13    1    3    3    0    0  0.30504011792E+03 -0.21413675128E+02  0.10570313786E+03  0.32354469920E+03  0.00000000000E+00 0. -1.
        -14    1    3    3    0    0  0.11117394044E+03  0.39541164450E+02  0.62626564970E+02  0.13358605975E+03  0.00000000000E+00 0.  1.
         15    1    5    5    0    0 -0.22702863833E+03  0.19662249627E+03  0.55066407079E+03  0.62724515562E+03  0.17770000000E+01 0. -1.
        -16    1    5    5    0    0 -0.42358071684E+02  0.73729293504E+02  0.23212597124E+03  0.24720979244E+03  0.00000000000E+00 0.  1.
          4    1    6    6  502    0 -0.90118301229E+02 -0.12785117167E+03  0.17273749349E+03  0.23303534489E+03  0.00000000000E+00 0. -1.
         -3    1    6    6    0  502 -0.56709047126E+02 -0.16062810743E+03  0.30711597542E+03  0.35119442945E+03  0.00000000000E+00 0.  1.
<mgrwt>
<rscale>  0 0.56796250E+03</rscale>
<asrwt>0</asrwt>
<pdfrwt beam="1">  1        1 0.25744528E+00 0.56796250E+03</pdfrwt>
<pdfrwt beam="2">  1       -2 0.37295560E-01 0.56796250E+03</pdfrwt>
<totfact> 0.31239820E+01</totfact>
</mgrwt>
</event>
<event>
12    3  0.1182097E-007  0.4461982E+03  0.7818608E-02  0.1028862E+00
          1   -1    0    0  501    0  0.00000000000E+00  0.00000000000E+00  0.99493523378E+03  0.99493523378E+03  0.00000000000E+00 0. -1.
         -2   -1    0    0    0  501 -0.00000000000E+00 -0.00000000000E+00 -0.35270341859E+03  0.35270341859E+03  0.00000000000E+00 0.  1.
        -24    2    1    2    0    0 -0.33736146646E+03 -0.27441036007E+03  0.28435030629E+03  0.52484193656E+03  0.74095593157E+02 0.  0.
    5000000    2    1    2    0    0  0.33736146646E+03  0.27441036007E+03  0.35788150890E+03  0.82279671580E+03  0.59983452415E+03 0.  0.
        -24    2    4    4    0    0  0.21526910594E+03  0.10276704217E+03 -0.13253081047E+03  0.28283463359E+03  0.74358330440E+02 0.  0.
         24    2    4    4    0    0  0.12209236052E+03  0.17164331790E+03  0.49041231937E+03  0.53996208222E+03  0.81773065043E+02 0.  0.
         13    1    3    3    0    0 -0.11966584867E+03 -0.14143821502E+03  0.13507433785E+03  0.22928096465E+03  0.00000000000E+00 0. -1.
        -14    1    3    3    0    0 -0.21769561779E+03 -0.13297214504E+03  0.14927596844E+03  0.29556097191E+03  0.00000000000E+00 0.  1.
         15    1    5    5    0    0  0.14452467963E+03  0.50988163599E+02 -0.46890220279E+02  0.16027796585E+03  0.17770000000E+01 0. -1.
        -16    1    5    5    0    0  0.70744426307E+02  0.51778878568E+02 -0.85640590189E+02  0.12255666774E+03  0.00000000000E+00 0.  1.
          2    1    6    6  502    0  0.96555271217E+02  0.12531812789E+03  0.26678975521E+03  0.31016822381E+03  0.00000000000E+00 0. -1.
         -1    1    6    6    0  502  0.25537089301E+02  0.46325190011E+02  0.22362256416E+03  0.22979385841E+03  0.00000000000E+00 0.  1.
<mgrwt>
<rscale>  0 0.44619818E+03</rscale>
<asrwt>0</asrwt>
<pdfrwt beam="1">  1        1 0.15306696E+00 0.44619818E+03</pdfrwt>
<pdfrwt beam="2">  1       -2 0.54262065E-01 0.44619818E+03</pdfrwt>
<totfact> 0.45295218E+01</totfact>
</mgrwt>
</event>
<event>
12    3  0.1182097E-007  0.3101132E+03  0.7818608E-02  0.1080292E+00
          1   -1    0    0  501    0  0.00000000000E+00  0.00000000000E+00  0.56524487413E+03  0.56524487413E+03  0.00000000000E+00 0. -1.
         -2   -1    0    0    0  501 -0.00000000000E+00 -0.00000000000E+00 -0.32342334691E+03  0.32342334691E+03  0.00000000000E+00 0.  1.
        -24    2    1    2    0    0 -0.42000600108E+02 -0.19965776560E+03  0.91200575844E+02  0.23731444696E+03  0.79833125501E+02 0.  0.
    5000000    2    1    2    0    0  0.42000600108E+02  0.19965776560E+03  0.15062095137E+03  0.65135377408E+03  0.59995649363E+03 0.  0.
        -24    2    4    4    0    0  0.11793643307E+03 -0.42839006729E+02  0.30835939661E+03  0.34168927342E+03  0.76953618147E+02 0.  0.
         24    2    4    4    0    0 -0.75935832958E+02  0.24249677233E+03 -0.15773844524E+03  0.30966450066E+03  0.80248056348E+02 0.  0.
         11    1    3    3    0    0  0.11283573720E+02 -0.33833586464E+02  0.44420777726E+02  0.56966973790E+02  0.00000000000E+00 0. -1.
        -12    1    3    3    0    0 -0.53284173829E+02 -0.16582417913E+03  0.46779798117E+02  0.18034747317E+03  0.00000000000E+00 0.  1.
         15    1    5    5    0    0  0.47077492253E+01 -0.32069923865E+02  0.53110220783E+02  0.62245451240E+02  0.17770000000E+01 0. -1.
        -16    1    5    5    0    0  0.11322868384E+03 -0.10769082864E+02  0.25524917583E+03  0.27944382218E+03  0.00000000000E+00 0.  1.
          2    1    6    6  502    0 -0.35895239055E+02  0.26784288645E+02 -0.42949710942E+02  0.62052751550E+02  0.00000000000E+00 0. -1.
         -1    1    6    6    0  502 -0.40040593903E+02  0.21571248368E+03 -0.11478873430E+03  0.24761174911E+03  0.00000000000E+00 0.  1.
<mgrwt>
<rscale>  0 0.31011318E+03</rscale>
<asrwt>0</asrwt>
<pdfrwt beam="1">  1        1 0.86960750E-01 0.31011318E+03</pdfrwt>
<pdfrwt beam="2">  1       -2 0.49757438E-01 0.31011318E+03</pdfrwt>
<totfact> 0.13105066E+02</totfact>
</mgrwt>
</event>
<event>
12    3  0.1182097E-007  0.1861842E+03  0.7818608E-02  0.1161949E+00
         -2   -1    0    0    0  501 -0.00000000000E+00  0.00000000000E+00  0.28303549447E+04  0.28303549447E+04  0.00000000000E+00 0.  1.
          1   -1    0    0  501    0  0.00000000000E+00 -0.00000000000E+00 -0.43486491849E+02  0.43486491849E+02  0.00000000000E+00 0. -1.
        -24    2    1    2    0    0  0.32551160269E+02 -0.17093772303E+02  0.57498103499E+03  0.58172749495E+03  0.80323799044E+02 0.  0.
    5000000    2    1    2    0    0 -0.32551160269E+02  0.17093772303E+02  0.22118874179E+04  0.22921139416E+04  0.59999049735E+03 0.  0.
        -24    2    4    4    0    0 -0.10572053255E+03 -0.96985379702E+02  0.20803313132E+04  0.20867727294E+04  0.79114201068E+02 0.  0.
         24    2    4    4    0    0  0.73169372280E+02  0.11407915201E+03  0.13155610470E+03  0.20534121219E+03  0.80561745130E+02 0.  0.
         11    1    3    3    0    0  0.79303076178E+01  0.16129609735E+02  0.28566992622E+02  0.33750957862E+02  0.00000000000E+00 0. -1.
        -12    1    3    3    0    0  0.24620852651E+02 -0.33223382038E+02  0.54641404237E+03  0.54797653708E+03  0.00000000000E+00 0.  1.
         15    1    5    5    0    0 -0.77087774260E+01 -0.54097236802E+02  0.55176160504E+03  0.55446367131E+03  0.17770000000E+01 0. -1.
        -16    1    5    5    0    0 -0.98011755123E+02 -0.42888142900E+02  0.15285697081E+04  0.15323090581E+04  0.00000000000E+00 0.  1.
          2    1    6    6  502    0  0.23632580731E+02  0.95659062630E+02  0.56624295316E+02  0.11364623159E+03  0.00000000000E+00 0. -1.
         -1    1    6    6    0  502  0.49536791548E+02  0.18420089375E+02  0.74931809381E+02  0.91694980596E+02  0.00000000000E+00 0.  1.
<mgrwt>
<rscale>  0 0.18618425E+03</rscale>
<asrwt>0</asrwt>
<pdfrwt beam="1">  1        1 0.66902317E-02 0.18618425E+03</pdfrwt>
<pdfrwt beam="2">  1       -2 0.43543908E+00 0.18618425E+03</pdfrwt>
<totfact> 0.53603718E+00</totfact>
</mgrwt>
</event>
<event>
12    3  0.1182097E-007  0.1842917E+04  0.7818608E-02  0.8683804E-01
          1   -1    0    0  501    0  0.00000000000E+00  0.00000000000E+00  0.19540986982E+04  0.19540986982E+04  0.00000000000E+00 0. -1.
         -2   -1    0    0    0  501 -0.00000000000E+00 -0.00000000000E+00 -0.31862524536E+04  0.31862524536E+04  0.00000000000E+00 0.  1.
        -24    2    1    2    0    0  0.11914225254E+04 -0.13779991908E+04 -0.23078911436E+04  0.29413927937E+04  0.84027570898E+02 0.  0.
    5000000    2    1    2    0    0 -0.11914225254E+04  0.13779991908E+04  0.10757373881E+04  0.21989583581E+04  0.59986459213E+03 0.  0.
        -24    2    4    4    0    0 -0.61465069496E+02  0.16055302476E+02 -0.35497991270E+02  0.10785346674E+03  0.79602357994E+02 0.  0.
         24    2    4    4    0    0 -0.11299574559E+04  0.13619438883E+04  0.11112353794E+04  0.20911048914E+04  0.78616737781E+02 0.  0.
         11    1    3    3    0    0  0.10633450070E+04 -0.12076087474E+04 -0.19998622167E+04  0.25668015850E+04  0.00000000000E+00 0. -1.
        -12    1    3    3    0    0  0.12807751838E+03 -0.17039044333E+03 -0.30802892682E+03  0.37459120872E+03  0.00000000000E+00 0.  1.
         15    1    5    5    0    0 -0.22465067038E+02  0.41269788445E+02 -0.39265024980E+02  0.61259893821E+02  0.17770000000E+01 0. -1.
        -16    1    5    5    0    0 -0.39000002459E+02 -0.25214485969E+02  0.37670337103E+01  0.46593572920E+02  0.00000000000E+00 0.  1.
          2    1    6    6  502    0 -0.92232786361E+03  0.10853401983E+04  0.86265787730E+03  0.16651818662E+04  0.00000000000E+00 0. -1.
         -1    1    6    6    0  502 -0.20762959226E+03  0.27660368996E+03  0.24857750206E+03  0.42592302522E+03  0.00000000000E+00 0.  1.
<mgrwt>
<rscale>  0 0.18429168E+04</rscale>
<asrwt>0</asrwt>
<pdfrwt beam="1">  1        1 0.30063057E+00 0.18429168E+04</pdfrwt>
<pdfrwt beam="2">  1       -2 0.49019268E+00 0.18429168E+04</pdfrwt>
<totfact> 0.47697015E-03</totfact>
</mgrwt>
</event>
<event>
12    3  0.1182097E-007  0.6554198E+03  0.7818608E-02  0.9796662E-01
          1   -1    0    0  501    0  0.00000000000E+00  0.00000000000E+00  0.10863785261E+04  0.10863785261E+04  0.00000000000E+00 0. -1.
         -2   -1    0    0    0  501 -0.00000000000E+00 -0.00000000000E+00 -0.60238352431E+03  0.60238352431E+03  0.00000000000E+00 0.  1.
        -24    2    1    2    0    0 -0.27194202684E+03 -0.46849160364E+03 -0.24517867936E+03  0.59991140798E+03  0.79650888101E+02 0.  0.
    5000000    2    1    2    0    0  0.27194202684E+03  0.46849160364E+03  0.72917368115E+03  0.10888506424E+04  0.60038705480E+03 0.  0.
        -24    2    4    4    0    0 -0.15613233906E+03  0.19064420629E+03  0.38877032949E+03  0.47017632541E+03  0.95921255172E+02 0.  0.
         24    2    4    4    0    0  0.42807436590E+03  0.27784739735E+03  0.34040335166E+03  0.61867431700E+03  0.80228609251E+02 0.  0.
         13    1    3    3    0    0 -0.12802150581E+03 -0.28554583809E+03 -0.11629948476E+03  0.33384352885E+03  0.00000000000E+00 0. -1.
        -14    1    3    3    0    0 -0.14392052102E+03 -0.18294576555E+03 -0.12887919461E+03  0.26606787913E+03  0.00000000000E+00 0.  1.
         15    1    5    5    0    0 -0.52042581107E+02  0.94653286842E+02  0.94164512713E+02  0.14331011179E+03  0.17770000000E+01 0. -1.
        -16    1    5    5    0    0 -0.10408975796E+03  0.95990919443E+02  0.29460581678E+03  0.32686621362E+03  0.00000000000E+00 0.  1.
          2    1    6    6  502    0  0.84737182846E+01  0.23168425515E+02  0.25621316176E+02  0.35567283913E+02  0.00000000000E+00 0. -1.
         -1    1    6    6    0  502  0.41960064762E+03  0.25467897184E+03  0.31478203548E+03  0.58310703309E+03  0.00000000000E+00 0.  1.
<mgrwt>
<rscale>  0 0.65541978E+03</rscale>
<asrwt>0</asrwt>
<pdfrwt beam="1">  1        1 0.16713516E+00 0.65541978E+03</pdfrwt>
<pdfrwt beam="2">  1       -2 0.92674388E-01 0.65541978E+03</pdfrwt>
<totfact> 0.11665031E+01</totfact>
</mgrwt>
</event>
<event>
12    3  0.1182097E-007  0.7470902E+03  0.7818608E-02  0.9639926E-01
          1   -1    0    0  501    0  0.00000000000E+00  0.00000000000E+00  0.16932348583E+04  0.16932348583E+04  0.00000000000E+00 0. -1.
         -2   -1    0    0    0  501 -0.00000000000E+00 -0.00000000000E+00 -0.33865788435E+03  0.33865788435E+03  0.00000000000E+00 0.  1.
        -24    2    1    2    0    0 -0.34341749716E+03  0.53433934486E+03  0.55400799358E+03  0.84664850872E+03  0.80216753526E+02 0.  0.
    5000000    2    1    2    0    0  0.34341749716E+03 -0.53433934486E+03  0.80056898034E+03  0.11852442339E+04  0.60036579592E+03 0.  0.
        -24    2    4    4    0    0 -0.14838466849E+03 -0.62177159676E+02  0.10616991159E+03  0.20870829928E+03  0.80019341621E+02 0.  0.
         24    2    4    4    0    0  0.49180216565E+03 -0.47216218518E+03  0.69439906875E+03  0.97653593462E+03  0.81399420591E+02 0.  0.
         11    1    3    3    0    0 -0.29136574173E+03  0.39810515743E+03  0.44745153746E+03  0.66602897100E+03  0.00000000000E+00 0. -1.
        -12    1    3    3    0    0 -0.52051755428E+02  0.13623418743E+03  0.10655645612E+03  0.18061953772E+03  0.00000000000E+00 0.  1.
         15    1    5    5    0    0 -0.85645069793E+02 -0.50448543867E+01  0.20707648973E+02  0.88275098361E+02  0.17770000000E+01 0. -1.
        -16    1    5    5    0    0 -0.62739598700E+02 -0.57132305289E+02  0.85462262617E+02  0.12043320092E+03  0.00000000000E+00 0.  1.
          2    1    6    6  502    0  0.62210107360E+02 -0.89701710411E+02  0.83180185878E+02  0.13724225891E+03  0.00000000000E+00 0. -1.
         -1    1    6    6    0  502  0.42959205829E+03 -0.38246047477E+03  0.61121888287E+03  0.83929367571E+03  0.00000000000E+00 0.  1.
<mgrwt>
<rscale>  0 0.74709024E+03</rscale>
<asrwt>0</asrwt>
<pdfrwt beam="1">  1        1 0.26049767E+00 0.74709024E+03</pdfrwt>
<pdfrwt beam="2">  1       -2 0.52101214E-01 0.74709024E+03</pdfrwt>
<totfact> 0.15218145E+01</totfact>
</mgrwt>
</event>
<event>
12    3  0.1182097E-007  0.5663455E+03  0.7818608E-02  0.9977798E-01
         -2   -1    0    0    0  501 -0.00000000000E+00  0.00000000000E+00  0.42103796628E+03  0.42103796628E+03  0.00000000000E+00 0.  1.
          1   -1    0    0  501    0  0.00000000000E+00 -0.00000000000E+00 -0.15069100879E+04  0.15069100879E+04  0.00000000000E+00 0. -1.
        -24    2    1    2    0    0  0.35712186402E+03 -0.20967091233E+03  0.18693097097E+03  0.46114132967E+03  0.78804954041E+02 0.  0.
    5000000    2    1    2    0    0 -0.35712186402E+03  0.20967091233E+03 -0.12728030926E+04  0.14668067245E+04  0.59999694779E+03 0.  0.
        -24    2    4    4    0    0 -0.34933077198E+02 -0.18780997318E+03 -0.29720943315E+03  0.36236198372E+03  0.80497541449E+02 0.  0.
         24    2    4    4    0    0 -0.32218878683E+03  0.39748088550E+03 -0.97559365943E+03  0.11044447408E+04  0.78857646857E+02 0.  0.
         11    1    3    3    0    0  0.13742346039E+03 -0.38015630305E+02  0.69350998956E+02  0.15855584716E+03  0.00000000000E+00 0. -1.
        -12    1    3    3    0    0  0.21969840363E+03 -0.17165528202E+03  0.11757997201E+03  0.30258548251E+03  0.00000000000E+00 0.  1.
         15    1    5    5    0    0  0.18592920977E+01 -0.76523344588E+02 -0.58254706906E+02  0.96208356392E+02  0.17770000000E+01 0. -1.
        -16    1    5    5    0    0 -0.36792369295E+02 -0.11128662859E+03 -0.23895472625E+03  0.26615362732E+03  0.00000000000E+00 0.  1.
          4    1    6    6  502    0 -0.35587466835E+02  0.92006194551E+02 -0.17475493852E+03  0.20067609765E+03  0.00000000000E+00 0. -1.
         -3    1    6    6    0  502 -0.28660131999E+03  0.30547469095E+03 -0.80083872091E+03  0.90376864315E+03  0.00000000000E+00 0.  1.
<mgrwt>
<rscale>  0 0.56634545E+03</rscale>
<asrwt>0</asrwt>
<pdfrwt beam="1">  1        1 0.23183233E+00 0.56634545E+03</pdfrwt>
<pdfrwt beam="2">  1       -2 0.64775071E-01 0.56634545E+03</pdfrwt>
<totfact> 0.13245153E+01</totfact>
</mgrwt>
</event>
<event>
12    3  0.1182097E-007  0.8380011E+03  0.7818608E-02  0.9506585E-01
          1   -1    0    0  501    0  0.00000000000E+00  0.00000000000E+00  0.20604591382E+03  0.20604591382E+03  0.00000000000E+00 0. -1.
         -2   -1    0    0    0  501 -0.00000000000E+00 -0.00000000000E+00 -0.52694566322E+04  0.52694566322E+04  0.00000000000E+00 0.  1.
        -24    2    1    2    0    0 -0.72401024342E+03 -0.11374036019E+03 -0.72181563727E+03  0.10317918521E+04  0.80305104425E+02 0.  0.
    5000000    2    1    2    0    0  0.72401024342E+03  0.11374036019E+03 -0.43415950811E+04  0.44437106939E+04  0.59999098369E+03 0.  0.
        -24    2    4    4    0    0  0.45045464342E+03  0.34985687062E+03 -0.24865682283E+04  0.25521255154E+04  0.70808730935E+02 0.  0.
         24    2    4    4    0    0  0.27355560000E+03 -0.23611651042E+03 -0.18550268528E+04  0.18915851785E+04  0.79913642418E+02 0.  0.
         13    1    3    3    0    0 -0.11475477858E+03 -0.28974615640E+02 -0.80349285353E+02  0.14305312026E+03  0.00000000000E+00 0. -1.
        -14    1    3    3    0    0 -0.60925546484E+03 -0.84765744554E+02 -0.64146635192E+03  0.88873873188E+03  0.00000000000E+00 0.  1.
         15    1    5    5    0    0  0.23950632562E+03  0.22098633629E+03 -0.13171854844E+04  0.13569005118E+04  0.17770000000E+01 0. -1.
        -16    1    5    5    0    0  0.21094831781E+03  0.12887053433E+03 -0.11693827439E+04  0.11952250035E+04  0.00000000000E+00 0.  1.
          2    1    6    6  502    0  0.16283228794E+03 -0.18799661159E+03 -0.13005000560E+04  0.13240685313E+04  0.00000000000E+00 0. -1.
         -1    1    6    6    0  502  0.11072331206E+03 -0.48119898837E+02 -0.55452679678E+03  0.56751664720E+03  0.00000000000E+00 0.  1.
<mgrwt>
<rscale>  0 0.83800106E+03</rscale>
<asrwt>0</asrwt>
<pdfrwt beam="1">  1        1 0.31699372E-01 0.83800106E+03</pdfrwt>
<pdfrwt beam="2">  1       -2 0.81068561E+00 0.83800106E+03</pdfrwt>
<totfact> 0.94457389E-03</totfact>
</mgrwt>
</event>
<event>
12    3  0.1182097E-007  0.1127596E+04  0.7818608E-02  0.9178705E-01
         -2   -1    0    0    0  501 -0.00000000000E+00  0.00000000000E+00  0.91875423214E+03  0.91875423214E+03  0.00000000000E+00 0.  1.
          1   -1    0    0  501    0  0.00000000000E+00 -0.00000000000E+00 -0.16776459823E+04  0.16776459823E+04  0.00000000000E+00 0. -1.
        -24    2    1    2    0    0 -0.10359140104E+04 -0.40516287677E+03  0.13002427640E+02  0.11154678168E+04  0.82611097995E+02 0.  0.
    5000000    2    1    2    0    0  0.10359140104E+04  0.40516287677E+03 -0.77189417775E+03  0.14809323976E+04  0.60005445653E+03 0.  0.
        -24    2    4    4    0    0  0.67630599840E+03  0.36527027313E+03 -0.79463984110E+03  0.11085634289E+04  0.81536635729E+02 0.  0.
         24    2    4    4    0    0  0.35960801204E+03  0.39892603644E+02  0.22745663342E+02  0.37236896866E+03  0.85040822397E+02 0.  0.
         13    1    3    3    0    0 -0.65798320058E+03 -0.24618824898E+03 -0.30281076629E+02  0.70318382361E+03  0.00000000000E+00 0. -1.
        -14    1    3    3    0    0 -0.37793080985E+03 -0.15897462779E+03  0.43283504269E+02  0.41228399322E+03  0.00000000000E+00 0.  1.
         15    1    5    5    0    0  0.30843673869E+03  0.20554076995E+03 -0.41323984204E+03  0.55511310079E+03  0.17770000000E+01 0. -1.
        -16    1    5    5    0    0  0.36786925971E+03  0.15972950317E+03 -0.38139999905E+03  0.55345032813E+03  0.00000000000E+00 0.  1.
          2    1    6    6  502    0  0.20936161833E+02 -0.17702632623E+02  0.78194880515E+01  0.28510532571E+02  0.00000000000E+00 0. -1.
         -1    1    6    6    0  502  0.33867185020E+03  0.57595236268E+02  0.14926175290E+02  0.34385843609E+03  0.00000000000E+00 0.  1.
<mgrwt>
<rscale>  0 0.11275958E+04</rscale>
<asrwt>0</asrwt>
<pdfrwt beam="1">  1        1 0.25809938E+00 0.11275958E+04</pdfrwt>
<pdfrwt beam="2">  1       -2 0.14134681E+00 0.11275958E+04</pdfrwt>
<totfact> 0.14938016E+00</totfact>
</mgrwt>
</event>
<event>
12    3  0.1182097E-007  0.9040009E+03  0.7818608E-02  0.9420594E-01
          1   -1    0    0  501    0  0.00000000000E+00  0.00000000000E+00  0.20629580617E+04  0.20629580617E+04  0.00000000000E+00 0. -1.
         -2   -1    0    0    0  501 -0.00000000000E+00 -0.00000000000E+00 -0.48177435131E+03  0.48177435131E+03  0.00000000000E+00 0.  1.
        -24    2    1    2    0    0  0.66674337982E+03 -0.48254981046E+03  0.24519538920E+03  0.86477513598E+03  0.10155886382E+03 0.  0.
    5000000    2    1    2    0    0 -0.66674337982E+03  0.48254981046E+03  0.13359883212E+04  0.16799572770E+04  0.59999217009E+03 0.  0.
        -24    2    4    4    0    0 -0.67521227812E+03  0.56079092397E+03  0.10295709582E+04  0.13554948527E+04  0.83377795406E+02 0.  0.
         24    2    4    4    0    0  0.84688983012E+01 -0.78241113508E+02  0.30641736302E+03  0.32446242436E+03  0.72047695171E+02 0.  0.
         13    1    3    3    0    0  0.21401295560E+03 -0.12943470820E+03  0.11871044225E+03  0.27685205066E+03  0.00000000000E+00 0. -1.
        -14    1    3    3    0    0  0.45273042422E+03 -0.35311510225E+03  0.12648494694E+03  0.58792308532E+03  0.00000000000E+00 0.  1.
         15    1    5    5    0    0 -0.46307431911E+03  0.39115673873E+03  0.76803069091E+03  0.97842512191E+03  0.17770000000E+01 0. -1.
        -16    1    5    5    0    0 -0.21213795901E+03  0.16963418524E+03  0.26154026725E+03  0.37706973075E+03  0.00000000000E+00 0.  1.
          4    1    6    6  502    0  0.26803393710E+02 -0.12868627923E+01  0.95468375851E+02  0.99167982322E+02  0.00000000000E+00 0. -1.
         -1    1    6    6    0  502 -0.18334495409E+02 -0.76954250716E+02  0.21094898717E+03  0.22529444204E+03  0.00000000000E+00 0.  1.
<mgrwt>
<rscale>  0 0.90400093E+03</rscale>
<asrwt>0</asrwt>
<pdfrwt beam="1">  1        1 0.31737816E+00 0.90400093E+03</pdfrwt>
<pdfrwt beam="2">  1       -2 0.74119132E-01 0.90400093E+03</pdfrwt>
<totfact> 0.39689979E+00</totfact>
</mgrwt>
</event>
<event>
12    3  0.1182097E-007  0.1109442E+04  0.7818608E-02  0.9196037E-01
         -2   -1    0    0    0  501 -0.00000000000E+00  0.00000000000E+00  0.15481464096E+04  0.15481464096E+04  0.00000000000E+00 0.  1.
          1   -1    0    0  501    0  0.00000000000E+00 -0.00000000000E+00 -0.94325896400E+03  0.94325896400E+03  0.00000000000E+00 0. -1.
        -24    2    1    2    0    0 -0.59074241040E+03 -0.84362749208E+03  0.76891732330E+03  0.12882967342E+04  0.88264853561E+02 0.  0.
    5000000    2    1    2    0    0  0.59074241040E+03  0.84362749208E+03 -0.16402987768E+03  0.12031086394E+04  0.59990053900E+03 0.  0.
        -24    2    4    4    0    0  0.64012312394E+03  0.44872724588E+03 -0.11255573171E+03  0.79357839296E+03  0.77357081262E+02 0.  0.
         24    2    4    4    0    0 -0.49380713545E+02  0.39490024620E+03 -0.51474145972E+02  0.40953024649E+03  0.81736012667E+02 0.  0.
         11    1    3    3    0    0 -0.32149448080E+03 -0.42768072327E+03  0.34896820100E+03  0.63878658998E+03  0.00000000000E+00 0. -1.
        -12    1    3    3    0    0 -0.26924792960E+03 -0.41594676881E+03  0.41994912230E+03  0.64951014419E+03  0.00000000000E+00 0.  1.
         15    1    5    5    0    0  0.42804311717E+03  0.28544267555E+03 -0.38833837821E+02  0.51595509094E+03  0.17770000000E+01 0. -1.
        -16    1    5    5    0    0  0.21208000678E+03  0.16328457033E+03 -0.73721893892E+02  0.27762330201E+03  0.00000000000E+00 0.  1.
          2    1    6    6  502    0  0.56565479349E+01  0.26588600667E+03 -0.37389889988E+02  0.26856166694E+03  0.00000000000E+00 0. -1.
         -1    1    6    6    0  502 -0.55037261480E+02  0.12901423953E+03 -0.14084255984E+02  0.14096857955E+03  0.00000000000E+00 0.  1.
<mgrwt>
<rscale>  0 0.11094422E+04</rscale>
<asrwt>0</asrwt>
<pdfrwt beam="1">  1        1 0.14511676E+00 0.11094422E+04</pdfrwt>
<pdfrwt beam="2">  1       -2 0.23817637E+00 0.11094422E+04</pdfrwt>
<totfact> 0.11037759E+00</totfact>
</mgrwt>
</event>
<event>
12    3  0.1182097E-007  0.9337570E+03  0.7818608E-02  0.9384340E-01
         -2   -1    0    0    0  501 -0.00000000000E+00  0.00000000000E+00  0.45554671437E+03  0.45554671437E+03  0.00000000000E+00 0.  1.
          1   -1    0    0  501    0  0.00000000000E+00 -0.00000000000E+00 -0.20341719489E+04  0.20341719489E+04  0.00000000000E+00 0. -1.
        -24    2    1    2    0    0  0.22840024933E+03 -0.83565926603E+03 -0.76178190184E+03  0.11563988831E+04  0.80334475609E+02 0.  0.
    5000000    2    1    2    0    0 -0.22840024933E+03  0.83565926603E+03 -0.81684333266E+03  0.13333197802E+04  0.60001293598E+03 0.  0.
        -24    2    4    4    0    0 -0.30161704671E+03  0.85654201141E+03 -0.60527115779E+03  0.10942141992E+04  0.79463696449E+02 0.  0.
         24    2    4    4    0    0  0.73216797383E+02 -0.20882745381E+02 -0.21157217488E+03  0.23910558102E+03  0.81313622582E+02 0.  0.
         13    1    3    3    0    0  0.47429655145E+02 -0.11549486519E+03 -0.79716652696E+02  0.14813298347E+03  0.00000000000E+00 0. -1.
        -14    1    3    3    0    0  0.18097059419E+03 -0.72016440083E+03 -0.68206524915E+03  0.10082658996E+04  0.00000000000E+00 0.  1.
         15    1    5    5    0    0 -0.10189693115E+03  0.34705496586E+03 -0.20061699573E+03  0.41361875031E+03  0.17770000000E+01 0. -1.
        -16    1    5    5    0    0 -0.19972011557E+03  0.50948704555E+03 -0.40465416206E+03  0.68059544887E+03  0.00000000000E+00 0.  1.
          2    1    6    6  502    0  0.66896987586E+01 -0.23649544633E+02 -0.95063005530E+01  0.26351902797E+02  0.00000000000E+00 0. -1.
         -1    1    6    6    0  502  0.66527098625E+02  0.27667992518E+01 -0.20206587432E+03  0.21275367822E+03  0.00000000000E+00 0.  1.
<mgrwt>
<rscale>  0 0.93375699E+03</rscale>
<asrwt>0</asrwt>
<pdfrwt beam="1">  1        1 0.31294954E+00 0.93375699E+03</pdfrwt>
<pdfrwt beam="2">  1       -2 0.70084109E-01 0.93375699E+03</pdfrwt>
<totfact> 0.46762262E+00</totfact>
</mgrwt>
</event>
<event>
12    3  0.1182097E-007  0.8154879E+03  0.7818608E-02  0.9537866E-01
          1   -1    0    0  501    0  0.00000000000E+00  0.00000000000E+00  0.13502649733E+04  0.13502649733E+04  0.00000000000E+00 0. -1.
         -2   -1    0    0    0  501 -0.00000000000E+00 -0.00000000000E+00 -0.79978095128E+03  0.79978095128E+03  0.00000000000E+00 0.  1.
        -24    2    1    2    0    0 -0.42874948370E+03  0.62813557835E+03  0.84283320532E+03  0.11381492899E+04  0.81459005798E+02 0.  0.
    5000000    2    1    2    0    0  0.42874948370E+03 -0.62813557835E+03 -0.29234918327E+03  0.10118966347E+04  0.60007193715E+03 0.  0.
        -24    2    4    4    0    0  0.11890575253E+03 -0.51139244932E+03  0.44561179217E+02  0.53288504750E+03  0.79498175792E+02 0.  0.
         24    2    4    4    0    0  0.30984373118E+03 -0.11674312903E+03 -0.33691036248E+03  0.47901158718E+03  0.79444398021E+02 0.  0.
         13    1    3    3    0    0 -0.40317645232E+03  0.55216932628E+03  0.73554518348E+03  0.10042255392E+04  0.00000000000E+00 0. -1.
        -14    1    3    3    0    0 -0.25573031386E+02  0.75966252072E+02  0.10728802184E+03  0.13392375076E+03  0.00000000000E+00 0.  1.
         15    1    5    5    0    0  0.61157470372E+02 -0.35494771280E+03 -0.34283922127E+00  0.36018244026E+03  0.17770000000E+01 0. -1.
        -16    1    5    5    0    0  0.57748282153E+02 -0.15644473652E+03  0.44904018438E+02  0.17270260724E+03  0.00000000000E+00 0.  1.
          2    1    6    6  502    0  0.28023004731E+03 -0.12853640317E+03 -0.31120262173E+03  0.43806113515E+03  0.00000000000E+00 0. -1.
         -1    1    6    6    0  502  0.29613683869E+02  0.11793274133E+02 -0.25707740748E+02  0.40950452030E+02  0.00000000000E+00 0.  1.
<mgrwt>
<rscale>  0 0.81548791E+03</rscale>
<asrwt>0</asrwt>
<pdfrwt beam="1">  1        1 0.20773307E+00 0.81548791E+03</pdfrwt>
<pdfrwt beam="2">  1       -2 0.12304322E+00 0.81548791E+03</pdfrwt>
<totfact> 0.37220435E+00</totfact>
</mgrwt>
</event>
<event>
12    3  0.1182097E-007  0.1461951E+04  0.7818608E-02  0.8910157E-01
          1   -1    0    0  501    0  0.00000000000E+00  0.00000000000E+00  0.28916262640E+04  0.28916262640E+04  0.00000000000E+00 0. -1.
         -2   -1    0    0    0  501 -0.00000000000E+00 -0.00000000000E+00 -0.83158704154E+03  0.83158704154E+03  0.00000000000E+00 0.  1.
        -24    2    1    2    0    0  0.41849455962E+03 -0.13576249275E+04  0.44654321585E+03  0.14912690216E+04  0.78735702001E+02 0.  0.
    5000000    2    1    2    0    0 -0.41849455962E+03  0.13576249275E+04  0.16134960066E+04  0.22319442840E+04  0.59993564912E+03 0.  0.
        -24    2    4    4    0    0 -0.44165923413E+03  0.13800084515E+04  0.15108266014E+04  0.20948588766E+04  0.79689948925E+02 0.  0.
         24    2    4    4    0    0  0.23164674516E+02 -0.22383523933E+02  0.10266940518E+03  0.13708540739E+03  0.84933961817E+02 0.  0.
         11    1    3    3    0    0  0.12470814867E+03 -0.53322676272E+03  0.17769755228E+03  0.57572504107E+03  0.00000000000E+00 0. -1.
        -12    1    3    3    0    0  0.29378641095E+03 -0.82439816482E+03  0.26884566356E+03  0.91554398050E+03  0.00000000000E+00 0.  1.
         15    1    5    5    0    0  0.21673907182E+01  0.68425789516E+01  0.12911947235E+02  0.14879333978E+02  0.17770000000E+01 0. -1.
        -16    1    5    5    0    0 -0.44382662485E+03  0.13731658725E+04  0.14979146542E+04  0.20799795426E+04  0.00000000000E+00 0.  1.
          2    1    6    6  502    0  0.91883822773E+00  0.10696260379E+02 -0.11752681008E+02  0.15917906919E+02  0.00000000000E+00 0. -1.
         -1    1    6    6    0  502  0.22245836288E+02 -0.33079784312E+02  0.11442208619E+03  0.12116750047E+03  0.00000000000E+00 0.  1.
<mgrwt>
<rscale>  0 0.14619507E+04</rscale>
<asrwt>0</asrwt>
<pdfrwt beam="1">  1        1 0.44486557E+00 0.14619507E+04</pdfrwt>
<pdfrwt beam="2">  1       -2 0.12793647E+00 0.14619507E+04</pdfrwt>
<totfact> 0.27164648E-01</totfact>
</mgrwt>
</event>
<event>
12    3  0.1182097E-007  0.4435443E+03  0.7818608E-02  0.1029665E+00
         -2   -1    0    0    0  501 -0.00000000000E+00  0.00000000000E+00  0.47202023603E+03  0.47202023603E+03  0.00000000000E+00 0.  1.
          1   -1    0    0  501    0  0.00000000000E+00 -0.00000000000E+00 -0.74441583509E+03  0.74441583509E+03  0.00000000000E+00 0. -1.
        -24    2    1    2    0    0  0.38283407414E+03 -0.21143758237E+02 -0.31589263037E+03  0.50312256872E+03  0.79593833942E+02 0.  0.
    5000000    2    1    2    0    0 -0.38283407414E+03  0.21143758237E+02  0.43497031313E+02  0.71331350240E+03  0.59992930761E+03 0.  0.
        -24    2    4    4    0    0  0.11474463665E+02 -0.54495963867E+02  0.23990416260E+03  0.25912392188E+03  0.80558837300E+02 0.  0.
         24    2    4    4    0    0 -0.39430853781E+03  0.75639722104E+02 -0.19640713128E+03  0.45418958051E+03  0.80695869040E+02 0.  0.
         11    1    3    3    0    0  0.22599478839E+03 -0.47175477811E+01 -0.13561058837E+03  0.26360222175E+03  0.00000000000E+00 0. -1.
        -12    1    3    3    0    0  0.15683928576E+03 -0.16426210456E+02 -0.18028204200E+03  0.23952034697E+03  0.00000000000E+00 0.  1.
         15    1    5    5    0    0  0.28154056099E+02 -0.69774834447E+02  0.18799274590E+03  0.20249841638E+03  0.17770000000E+01 0. -1.
        -16    1    5    5    0    0 -0.16679592434E+02  0.15278870580E+02  0.51911416695E+02  0.56625505501E+02  0.00000000000E+00 0.  1.
          2    1    6    6  502    0 -0.24849635620E+03  0.19644760787E+02 -0.15136988168E+03  0.29163195427E+03  0.00000000000E+00 0. -1.
         -1    1    6    6    0  502 -0.14581218161E+03  0.55994961317E+02 -0.45037249602E+02  0.16255762625E+03  0.00000000000E+00 0.  1.
<mgrwt>
<rscale>  0 0.44354426E+03</rscale>
<asrwt>0</asrwt>
<pdfrwt beam="1">  1        1 0.11452551E+00 0.44354426E+03</pdfrwt>
<pdfrwt beam="2">  1       -2 0.72618498E-01 0.44354426E+03</pdfrwt>
<totfact> 0.39222895E+01</totfact>
</mgrwt>
</event>
<event>
12    3  0.1182097E-007  0.5908913E+03  0.7818608E-02  0.9924486E-01
         -2   -1    0    0    0  501 -0.00000000000E+00  0.00000000000E+00  0.27973757485E+03  0.27973757485E+03  0.00000000000E+00 0.  1.
          1   -1    0    0  501    0  0.00000000000E+00 -0.00000000000E+00 -0.28027535788E+04  0.28027535788E+04  0.00000000000E+00 0. -1.
        -24    2    1    2    0    0 -0.29518684388E+03 -0.33491912585E+03 -0.22358433990E+04  0.22813902200E+04  0.80246727203E+02 0.  0.
    5000000    2    1    2    0    0  0.29518684388E+03  0.33491912585E+03 -0.28717260492E+03  0.80110093366E+03  0.59999042261E+03 0.  0.
        -24    2    4    4    0    0  0.46574167065E+03  0.27918122318E+03 -0.25265239520E+03  0.60429837339E+03  0.80534664158E+02 0.  0.
         24    2    4    4    0    0 -0.17055482677E+03  0.55737902678E+02 -0.34520209727E+02  0.19680256027E+03  0.73102257956E+02 0.  0.
         13    1    3    3    0    0 -0.15579812046E+03 -0.16871392123E+03 -0.13487450321E+04  0.13681559133E+04  0.00000000000E+00 0. -1.
        -14    1    3    3    0    0 -0.13938872342E+03 -0.16620520463E+03 -0.88709836694E+03  0.91323430668E+03  0.00000000000E+00 0.  1.
         15    1    5    5    0    0  0.38409114688E+03  0.19863138714E+03 -0.17906250446E+03  0.46802454562E+03  0.17770000000E+01 0. -1.
        -16    1    5    5    0    0  0.81650523768E+02  0.80549836032E+02 -0.73589890738E+02  0.13627382777E+03  0.00000000000E+00 0.  1.
          4    1    6    6  502    0 -0.26173830837E+02 -0.11799336108E+02  0.11450473271E+02  0.30909660163E+02  0.00000000000E+00 0. -1.
         -1    1    6    6    0  502 -0.14438099593E+03  0.67537238786E+02 -0.45970682998E+02  0.16589290010E+03  0.00000000000E+00 0.  1.
<mgrwt>
<rscale>  0 0.59089130E+03</rscale>
<asrwt>0</asrwt>
<pdfrwt beam="1">  1        1 0.43119287E+00 0.59089130E+03</pdfrwt>
<pdfrwt beam="2">  1       -2 0.43036549E-01 0.59089130E+03</pdfrwt>
<totfact> 0.40914364E+00</totfact>
</mgrwt>
</event>
<event>
12    3  0.1182097E-007  0.9315108E+03  0.7818608E-02  0.9387027E-01
          3   -1    0    0  501    0  0.00000000000E+00  0.00000000000E+00  0.80988041392E+03  0.80988041392E+03  0.00000000000E+00 0. -1.
         -4   -1    0    0    0  501 -0.00000000000E+00 -0.00000000000E+00 -0.13602045354E+04  0.13602045354E+04  0.00000000000E+00 0.  1.
        -24    2    1    2    0    0  0.87584153047E+03 -0.30895018604E+03  0.62084743529E+01  0.93222210959E+03  0.80317572774E+02 0.  0.
    5000000    2    1    2    0    0 -0.87584153047E+03  0.30895018604E+03 -0.55653259582E+03  0.12378628397E+04  0.60002272940E+03 0.  0.
        -24    2    4    4    0    0 -0.58852267844E+03  0.21037470497E+03 -0.36885153264E+02  0.63099322824E+03  0.78584222493E+02 0.  0.
         24    2    4    4    0    0 -0.28731885203E+03  0.98575481074E+02 -0.51964744255E+03  0.60686961148E+03  0.77382249784E+02 0.  0.
         11    1    3    3    0    0  0.48444715648E+03 -0.14948813076E+03 -0.31145431373E+02  0.50794270007E+03  0.00000000000E+00 0. -1.
        -12    1    3    3    0    0  0.39139437400E+03 -0.15946205529E+03  0.37353905726E+02  0.42427940952E+03  0.00000000000E+00 0.  1.
         15    1    5    5    0    0 -0.27742230501E+03  0.58901688814E+02 -0.71618915473E+01  0.28370229940E+03  0.17770000000E+01 0. -1.
        -16    1    5    5    0    0 -0.31110037343E+03  0.15147301616E+03 -0.29723261716E+02  0.34729092885E+03  0.00000000000E+00 0.  1.
          2    1    6    6  502    0 -0.16954612632E+03  0.59776068961E+02 -0.37828022703E+03  0.41882573647E+03  0.00000000000E+00 0. -1.
         -1    1    6    6    0  502 -0.11777272571E+03  0.38799412113E+02 -0.14136721552E+03  0.18804387501E+03  0.00000000000E+00 0.  1.
<mgrwt>
<rscale>  0 0.93151081E+03</rscale>
<asrwt>0</asrwt>
<pdfrwt beam="1">  1        3 0.12459699E+00 0.93151081E+03</pdfrwt>
<pdfrwt beam="2">  1       -4 0.20926223E+00 0.93151081E+03</pdfrwt>
<totfact> 0.13153849E-01</totfact>
</mgrwt>
</event>
<event>
12    3  0.1182097E-007  0.5507908E+03  0.7818608E-02  0.1001311E+00
         -2   -1    0    0    0  501 -0.00000000000E+00  0.00000000000E+00  0.36131862505E+03  0.36131862505E+03  0.00000000000E+00 0.  1.
          1   -1    0    0  501    0  0.00000000000E+00 -0.00000000000E+00 -0.14313277887E+04  0.14313277887E+04  0.00000000000E+00 0. -1.
        -24    2    1    2    0    0  0.33584062401E+03 -0.33697830827E+03 -0.88016525385E+03  0.10036666826E+04  0.79452066059E+02 0.  0.
    5000000    2    1    2    0    0 -0.33584062401E+03  0.33697830827E+03 -0.18984390983E+03  0.78897973113E+03  0.60008749451E+03 0.  0.
        -24    2    4    4    0    0 -0.22229762214E+03 -0.22320742628E+02 -0.30312729801E+03  0.38754414217E+03  0.91596151529E+02 0.  0.
         24    2    4    4    0    0 -0.11354300187E+03  0.35929905090E+03  0.11328338818E+03  0.40143558896E+03  0.79558687771E+02 0.  0.
         13    1    3    3    0    0  0.11576574488E+03 -0.17115142632E+03 -0.39004350696E+03  0.44139376496E+03  0.00000000000E+00 0. -1.
        -14    1    3    3    0    0  0.22007487913E+03 -0.16582688195E+03 -0.49012174689E+03  0.56227291769E+03  0.00000000000E+00 0.  1.
         15    1    5    5    0    0 -0.10430414664E+03 -0.47541298777E+02 -0.10439841982E+03  0.15505391929E+03  0.17770000000E+01 0. -1.
        -16    1    5    5    0    0 -0.11799347550E+03  0.25220556149E+02 -0.19872887818E+03  0.23249022288E+03  0.00000000000E+00 0.  1.
          4    1    6    6  502    0 -0.11032856586E+03  0.23344839974E+03  0.89773049459E+02  0.27336742343E+03  0.00000000000E+00 0. -1.
         -3    1    6    6    0  502 -0.32144360128E+01  0.12585065116E+03  0.23510338718E+02  0.12806816553E+03  0.00000000000E+00 0.  1.
<mgrwt>
<rscale>  0 0.55079083E+03</rscale>
<asrwt>0</asrwt>
<pdfrwt beam="1">  1        1 0.22020427E+00 0.55079083E+03</pdfrwt>
<pdfrwt beam="2">  1       -2 0.55587481E-01 0.55079083E+03</pdfrwt>
<totfact> 0.20627067E+01</totfact>
</mgrwt>
</event>
<event>
12    3  0.1182097E-007  0.5381328E+03  0.7818608E-02  0.1004279E+00
          1   -1    0    0  501    0  0.00000000000E+00  0.00000000000E+00  0.41706585223E+04  0.41706585223E+04  0.00000000000E+00 0. -1.
         -2   -1    0    0    0  501 -0.00000000000E+00 -0.00000000000E+00 -0.71058148243E+02  0.71058148243E+02  0.00000000000E+00 0.  1.
        -24    2    1    2    0    0  0.44671194019E+02  0.36833358890E+03  0.12657338487E+04  0.13213807966E+04  0.79371818703E+02 0.  0.
    5000000    2    1    2    0    0 -0.44671194019E+02 -0.36833358890E+03  0.28338665254E+04  0.29203358740E+04  0.59991414784E+03 0.  0.
        -24    2    4    4    0    0 -0.25487273137E+03 -0.39694680567E+03  0.19074959538E+04  0.19668040395E+04  0.85149517646E+02 0.  0.
         24    2    4    4    0    0  0.21020153736E+03  0.28613216763E+02  0.92637057162E+03  0.95353183449E+03  0.77827507567E+02 0.  0.
         13    1    3    3    0    0 -0.10479007373E+02  0.17866419605E+03  0.52029129010E+03  0.55021244179E+03  0.00000000000E+00 0. -1.
        -14    1    3    3    0    0  0.55150201392E+02  0.18966939286E+03  0.74544255860E+03  0.77116835482E+03  0.00000000000E+00 0.  1.
         15    1    5    5    0    0 -0.50917509138E+02 -0.11823031254E+03  0.65679566993E+03  0.66929418741E+03  0.17770000000E+01 0. -1.
        -16    1    5    5    0    0 -0.20395522224E+03 -0.27871649313E+03  0.12507002838E+04  0.12975098521E+04  0.00000000000E+00 0.  1.
          2    1    6    6  502    0  0.11185159710E+03 -0.23591041070E+02  0.49410298413E+03  0.50715389767E+03  0.00000000000E+00 0. -1.
         -1    1    6    6    0  502  0.98349940256E+02  0.52204257834E+02  0.43226758749E+03  0.44637793682E+03  0.00000000000E+00 0.  1.
<mgrwt>
<rscale>  0 0.53813278E+03</rscale>
<asrwt>0</asrwt>
<pdfrwt beam="1">  1        1 0.64163958E+00 0.53813278E+03</pdfrwt>
<pdfrwt beam="2">  1       -2 0.10932026E-01 0.53813278E+03</pdfrwt>
<totfact> 0.40798311E+00</totfact>
</mgrwt>
</event>
<event>
12    3  0.1182097E-007  0.7832682E+03  0.7818608E-02  0.9584557E-01
          1   -1    0    0  501    0  0.00000000000E+00  0.00000000000E+00  0.24261652531E+04  0.24261652531E+04  0.00000000000E+00 0. -1.
         -2   -1    0    0    0  501 -0.00000000000E+00 -0.00000000000E+00 -0.26537301046E+03  0.26537301046E+03  0.00000000000E+00 0.  1.
        -24    2    1    2    0    0 -0.63616442441E+03  0.21499984814E+03  0.68455755386E+03  0.96230084370E+03  0.80459677248E+02 0.  0.
    5000000    2    1    2    0    0  0.63616442441E+03 -0.21499984814E+03  0.14762346888E+04  0.17292374199E+04  0.60005257126E+03 0.  0.
        -24    2    4    4    0    0 -0.49981856600E+02 -0.18475164201E+03  0.40444115416E+03  0.45431915998E+03  0.78752122053E+02 0.  0.
         24    2    4    4    0    0  0.68614628101E+03 -0.30248206134E+02  0.10717935346E+04  0.12749182599E+04  0.70452222104E+02 0.  0.
         13    1    3    3    0    0 -0.58451557833E+03  0.21048190946E+03  0.65436025230E+03  0.90230174294E+03  0.00000000000E+00 0. -1.
        -14    1    3    3    0    0 -0.51648846075E+02  0.45179386832E+01  0.30197301557E+02  0.59999100761E+02  0.00000000000E+00 0.  1.
         15    1    5    5    0    0 -0.68207811690E+02 -0.12243488363E+03  0.24667579642E+03  0.28371590116E+03  0.17770000000E+01 0. -1.
        -16    1    5    5    0    0  0.18225955090E+02 -0.62316758378E+02  0.15776535775E+03  0.17060325882E+03  0.00000000000E+00 0.  1.
          4    1    6    6  502    0  0.28380417846E+03  0.10084597555E+02  0.39411741211E+03  0.48577262721E+03  0.00000000000E+00 0. -1.
         -3    1    6    6    0  502  0.40234210255E+03 -0.40332803689E+02  0.67767612251E+03  0.78914563267E+03  0.00000000000E+00 0.  1.
<mgrwt>
<rscale>  0 0.78326819E+03</rscale>
<asrwt>0</asrwt>
<pdfrwt beam="1">  1        1 0.37325618E+00 0.78326819E+03</pdfrwt>
<pdfrwt beam="2">  1       -2 0.40826619E-01 0.78326819E+03</pdfrwt>
<totfact> 0.79462899E+00</totfact>
</mgrwt>
</event>
<event>
12    3  0.1182097E-007  0.5680854E+03  0.7818608E-02  0.9973924E-01
         -2   -1    0    0    0  501 -0.00000000000E+00  0.00000000000E+00  0.36081776127E+03  0.36081776127E+03  0.00000000000E+00 0.  1.
          1   -1    0    0  501    0  0.00000000000E+00 -0.00000000000E+00 -0.99477781268E+03  0.99477781268E+03  0.00000000000E+00 0. -1.
        -24    2    1    2    0    0 -0.43853359750E+03  0.72159430379E+02 -0.24617327025E+03  0.51427611342E+03  0.79749246501E+02 0.  0.
    5000000    2    1    2    0    0  0.43853359750E+03 -0.72159430379E+02 -0.38778678116E+03  0.84131946053E+03  0.59993428598E+03 0.  0.
        -24    2    4    4    0    0  0.23144287407E+03  0.22694101784E+03 -0.48102416887E+02  0.33761030020E+03  0.81233261366E+02 0.  0.
         24    2    4    4    0    0  0.20709072343E+03 -0.29910044822E+03 -0.33968436427E+03  0.50370916033E+03  0.77393830556E+02 0.  0.
         11    1    3    3    0    0 -0.28368893499E+03  0.32882779485E+02 -0.19767903637E+03  0.34732936882E+03  0.00000000000E+00 0. -1.
        -12    1    3    3    0    0 -0.15484466250E+03  0.39276650894E+02 -0.48494233879E+02  0.16694674460E+03  0.00000000000E+00 0.  1.
         15    1    5    5    0    0  0.13556943654E+03  0.12827766111E+03  0.12955877499E+02  0.18709688120E+03  0.17770000000E+01 0. -1.
        -16    1    5    5    0    0  0.95873437536E+02  0.98663356733E+02 -0.61058294386E+02  0.15051341900E+03  0.00000000000E+00 0.  1.
          4    1    6    6  502    0  0.16607100355E+03 -0.26739563878E+03 -0.25815502094E+03  0.40709215259E+03  0.00000000000E+00 0. -1.
         -3    1    6    6    0  502  0.41019719878E+02 -0.31704809439E+02 -0.81529343331E+02  0.96617007739E+02  0.00000000000E+00 0.  1.
<mgrwt>
<rscale>  0 0.56808536E+03</rscale>
<asrwt>0</asrwt>
<pdfrwt beam="1">  1        1 0.15304274E+00 0.56808536E+03</pdfrwt>
<pdfrwt beam="2">  1       -2 0.55510426E-01 0.56808536E+03</pdfrwt>
<totfact> 0.42528876E+01</totfact>
</mgrwt>
</event>
<event>
12    3  0.1182097E-007  0.1396487E+04  0.7818608E-02  0.8956365E-01
         -2   -1    0    0    0  501 -0.00000000000E+00  0.00000000000E+00  0.11003251087E+04  0.11003251087E+04  0.00000000000E+00 0.  1.
          1   -1    0    0  501    0  0.00000000000E+00 -0.00000000000E+00 -0.19958545374E+04  0.19958545374E+04  0.00000000000E+00 0. -1.
        -24    2    1    2    0    0  0.31417784376E+03 -0.13453794419E+04 -0.77238598408E+03  0.15848974386E+04  0.81032229334E+02 0.  0.
    5000000    2    1    2    0    0 -0.31417784376E+03  0.13453794419E+04 -0.12314344458E+03  0.15112822075E+04  0.60004670037E+03 0.  0.
        -24    2    4    4    0    0 -0.36625433713E+03  0.11459364659E+04  0.83691074224E+02  0.12085627231E+04  0.79416852116E+02 0.  0.
         24    2    4    4    0    0  0.52076493371E+02  0.19944297605E+03 -0.20683451880E+03  0.30271948448E+03  0.79806680508E+02 0.  0.
         11    1    3    3    0    0  0.20428429682E+03 -0.83018426721E+03 -0.43406807203E+03  0.95882901635E+03  0.00000000000E+00 0. -1.
        -12    1    3    3    0    0  0.10989354694E+03 -0.51519517472E+03 -0.33831791205E+03  0.62606842224E+03  0.00000000000E+00 0.  1.
         15    1    5    5    0    0 -0.53481231626E+02  0.26336738709E+03  0.33386125213E+01  0.26876928170E+03  0.17770000000E+01 0. -1.
        -16    1    5    5    0    0 -0.31277310550E+03  0.88256907878E+03  0.80352461703E+02  0.93979344138E+03  0.00000000000E+00 0.  1.
          4    1    6    6  502    0  0.27212389071E+02  0.10028603271E+03 -0.15878285654E+03  0.18976247787E+03  0.00000000000E+00 0. -1.
         -1    1    6    6    0  502  0.24864104300E+02  0.99156943341E+02 -0.48051662266E+02  0.11295700661E+03  0.00000000000E+00 0.  1.
<mgrwt>
<rscale>  0 0.13964871E+04</rscale>
<asrwt>0</asrwt>
<pdfrwt beam="1">  1        1 0.30705454E+00 0.13964871E+04</pdfrwt>
<pdfrwt beam="2">  1       -2 0.16928079E+00 0.13964871E+04</pdfrwt>
<totfact> 0.54156530E-01</totfact>
</mgrwt>
</event>
<event>
12    3  0.1182097E-007  0.5346894E+03  0.7818608E-02  0.1005101E+00
         -2   -1    0    0    0  501 -0.00000000000E+00  0.00000000000E+00  0.35977228503E+03  0.35977228503E+03  0.00000000000E+00 0.  1.
          1   -1    0    0  501    0  0.00000000000E+00 -0.00000000000E+00 -0.12246271762E+04  0.12246271762E+04  0.00000000000E+00 0. -1.
        -24    2    1    2    0    0  0.35001634735E+03  0.17733285216E+03 -0.76161788530E+03  0.86005794444E+03  0.75362329631E+02 0.  0.
    5000000    2    1    2    0    0 -0.35001634735E+03 -0.17733285216E+03 -0.10323700588E+03  0.72434151679E+03  0.60004530637E+03 0.  0.
        -24    2    4    4    0    0 -0.44463021741E+03  0.13967493951E+02  0.42075031675E+02  0.45399951317E+03  0.80337591124E+02 0.  0.
         24    2    4    4    0    0  0.94613870068E+02 -0.19130034611E+03 -0.14531203755E+03  0.27034200361E+03  0.80134910180E+02 0.  0.
         13    1    3    3    0    0  0.25402865007E+03  0.12048831355E+03 -0.46797317039E+03  0.54593669685E+03  0.00000000000E+00 0. -1.
        -14    1    3    3    0    0  0.95987697279E+02  0.56844538611E+02 -0.29364471491E+03  0.31412124760E+03  0.00000000000E+00 0.  1.
         15    1    5    5    0    0 -0.19268847544E+03  0.43508028959E+02  0.47823290778E+01  0.19760522653E+03  0.17770000000E+01 0. -1.
        -16    1    5    5    0    0 -0.25194174197E+03 -0.29540535008E+02  0.37292702597E+02  0.25639428664E+03  0.00000000000E+00 0.  1.
          4    1    6    6  502    0  0.28896426097E+02 -0.13755135119E+03 -0.10961684658E+03  0.17824486166E+03  0.00000000000E+00 0. -1.
         -3    1    6    6    0  502  0.65717443971E+02 -0.53748994922E+02 -0.35695190971E+02  0.92097141952E+02  0.00000000000E+00 0.  1.
<mgrwt>
<rscale>  0 0.53468943E+03</rscale>
<asrwt>0</asrwt>
<pdfrwt beam="1">  1        1 0.18840418E+00 0.53468943E+03</pdfrwt>
<pdfrwt beam="2">  1       -2 0.55349582E-01 0.53468943E+03</pdfrwt>
<totfact> 0.29074046E+01</totfact>
</mgrwt>
</event>
<event>
12    3  0.1182097E-007  0.4812388E+03  0.7818608E-02  0.1018795E+00
         -2   -1    0    0    0  501 -0.00000000000E+00  0.00000000000E+00  0.28421822968E+03  0.28421822968E+03  0.00000000000E+00 0.  1.
          1   -1    0    0  501    0  0.00000000000E+00 -0.00000000000E+00 -0.23291369218E+04  0.23291369218E+04  0.00000000000E+00 0. -1.
        -24    2    1    2    0    0  0.42132447891E+03 -0.26944772317E+02  0.11642472796E+02  0.42985943536E+03  0.80020308141E+02 0.  0.
    5000000    2    1    2    0    0 -0.42132447891E+03  0.26944772317E+02 -0.20565611649E+04  0.21834957162E+04  0.59997448282E+03 0.  0.
        -24    2    4    4    0    0 -0.46372226911E+03  0.24822098487E+02 -0.83721191149E+03  0.96082040256E+03  0.81225499698E+02 0.  0.
         24    2    4    4    0    0  0.42397790202E+02  0.21226738302E+01 -0.12193492535E+04  0.12226753136E+04  0.79499951002E+02 0.  0.
         13    1    3    3    0    0  0.26643782550E+03 -0.38254371402E+02  0.39589391477E+02  0.27206585913E+03  0.00000000000E+00 0. -1.
        -14    1    3    3    0    0  0.15488665341E+03  0.11309599084E+02 -0.27946918681E+02  0.15779357623E+03  0.00000000000E+00 0.  1.
         15    1    5    5    0    0 -0.27490061192E+02 -0.13916320504E+02 -0.84680946200E+02  0.90129838672E+02  0.17770000000E+01 0. -1.
        -16    1    5    5    0    0 -0.43623220792E+03  0.38738418991E+02 -0.75253096529E+03  0.87069056389E+03  0.00000000000E+00 0.  1.
          4    1    6    6  502    0  0.15139021787E+02 -0.25965239822E+02 -0.95217795821E+03  0.95265221763E+03  0.00000000000E+00 0. -1.
         -3    1    6    6    0  502  0.27258768416E+02  0.28087913652E+02 -0.26717129524E+03  0.27002309596E+03  0.00000000000E+00 0.  1.
<mgrwt>
<rscale>  0 0.48123883E+03</rscale>
<asrwt>0</asrwt>
<pdfrwt beam="1">  1        1 0.35832876E+00 0.48123883E+03</pdfrwt>
<pdfrwt beam="2">  1       -2 0.43725882E-01 0.48123883E+03</pdfrwt>
<totfact> 0.85607085E+00</totfact>
</mgrwt>
</event>
<event>
12    3  0.1182097E-007  0.9555494E+03  0.7818608E-02  0.9358688E-01
         -2   -1    0    0    0  501 -0.00000000000E+00  0.00000000000E+00  0.59125235853E+03  0.59125235853E+03  0.00000000000E+00 0.  1.
          1   -1    0    0  501    0  0.00000000000E+00 -0.00000000000E+00 -0.23831466210E+04  0.23831466210E+04  0.00000000000E+00 0. -1.
        -24    2    1    2    0    0  0.71321943671E+03  0.60226575977E+03 -0.88011707625E+02  0.94103613300E+03  0.79980826716E+02 0.  0.
    5000000    2    1    2    0    0 -0.71321943671E+03 -0.60226575977E+03 -0.17038825549E+04  0.20333628466E+04  0.59995224367E+03 0.  0.
        -24    2    4    4    0    0 -0.34083861820E+02 -0.44983714504E+02 -0.65323216602E+03  0.66044398282E+03  0.79301623681E+02 0.  0.
         24    2    4    4    0    0 -0.67913557489E+03 -0.55728204527E+03 -0.10506503889E+04  0.13729188637E+04  0.96185028767E+02 0.  0.
         13    1    3    3    0    0  0.38731860855E+03  0.27532624523E+03 -0.50694254599E+02  0.47790182390E+03  0.00000000000E+00 0. -1.
        -14    1    3    3    0    0  0.32590082816E+03  0.32693951454E+03 -0.37317453026E+02  0.46313430910E+03  0.00000000000E+00 0.  1.
         15    1    5    5    0    0  0.18797932758E+02 -0.37158351065E+02 -0.35722978702E+03  0.35965314373E+03  0.17770000000E+01 0. -1.
        -16    1    5    5    0    0 -0.52881794578E+02 -0.78253634384E+01 -0.29600237899E+03  0.30079083909E+03  0.00000000000E+00 0.  1.
          4    1    6    6  502    0 -0.22941609686E+03 -0.16840635561E+03 -0.27628257297E+03  0.39664153367E+03  0.00000000000E+00 0. -1.
         -3    1    6    6    0  502 -0.44971947803E+03 -0.38887568966E+03 -0.77436781590E+03  0.97627733008E+03  0.00000000000E+00 0.  1.
<mgrwt>
<rscale>  0 0.95554940E+03</rscale>
<asrwt>0</asrwt>
<pdfrwt beam="1">  1        1 0.36663794E+00 0.95554940E+03</pdfrwt>
<pdfrwt beam="2">  1       -2 0.90961901E-01 0.95554940E+03</pdfrwt>
<totfact> 0.15045379E+00</totfact>
</mgrwt>
</event>
<event>
12    3  0.1182097E-007  0.1061000E+04  0.7818608E-02  0.9244060E-01
         -2   -1    0    0    0  501 -0.00000000000E+00  0.00000000000E+00  0.16930291948E+04  0.16930291948E+04  0.00000000000E+00 0.  1.
          1   -1    0    0  501    0  0.00000000000E+00 -0.00000000000E+00 -0.76505187691E+03  0.76505187691E+03  0.00000000000E+00 0. -1.
        -24    2    1    2    0    0 -0.82641815170E+03 -0.62869993466E+03  0.21669771146E+03  0.10638186912E+04  0.80757292516E+02 0.  0.
    5000000    2    1    2    0    0  0.82641815170E+03  0.62869993466E+03  0.71127960647E+03  0.13942623806E+04  0.59984859586E+03 0.  0.
        -24    2    4    4    0    0  0.84029868589E+03  0.60522713985E+03  0.76423321491E+03  0.12896877114E+04  0.82705586073E+02 0.  0.
         24    2    4    4    0    0 -0.13880534194E+02  0.23472794807E+02 -0.52953608442E+02  0.10457466911E+03  0.85954263688E+02 0.  0.
         11    1    3    3    0    0 -0.31815470194E+03 -0.20927978648E+03  0.49959992945E+02  0.38407869544E+03  0.00000000000E+00 0. -1.
        -12    1    3    3    0    0 -0.50826344976E+03 -0.41942014817E+03  0.16673771852E+03  0.67973999576E+03  0.00000000000E+00 0.  1.
         15    1    5    5    0    0  0.65214019837E+03  0.45915243174E+03  0.54533172922E+03  0.96617681949E+03  0.17770000000E+01 0. -1.
        -16    1    5    5    0    0  0.18815848752E+03  0.14607470811E+03  0.21890148570E+03  0.32351089196E+03  0.00000000000E+00 0.  1.
          2    1    6    6  502    0 -0.20060587862E+02 -0.20654414184E+01 -0.70269907331E+02  0.73106450535E+02  0.00000000000E+00 0. -1.
         -1    1    6    6    0  502  0.61800536681E+01  0.25538236225E+02  0.17316298889E+02  0.31468218571E+02  0.00000000000E+00 0.  1.
<mgrwt>
<rscale>  0 0.10610002E+04</rscale>
<asrwt>0</asrwt>
<pdfrwt beam="1">  1        1 0.11770029E+00 0.10610002E+04</pdfrwt>
<pdfrwt beam="2">  1       -2 0.26046603E+00 0.10610002E+04</pdfrwt>
<totfact> 0.11479184E+00</totfact>
</mgrwt>
</event>
<event>
12    3  0.1182097E-007  0.8972849E+03  0.7818608E-02  0.9428982E-01
          1   -1    0    0  501    0  0.00000000000E+00  0.00000000000E+00  0.10904485333E+04  0.10904485333E+04  0.00000000000E+00 0. -1.
         -2   -1    0    0    0  501 -0.00000000000E+00 -0.00000000000E+00 -0.77179335430E+03  0.77179335430E+03  0.00000000000E+00 0.  1.
        -24    2    1    2    0    0  0.36911808381E+03 -0.72690549991E+03  0.88493187419E+02  0.82403966833E+03  0.81059022709E+02 0.  0.
    5000000    2    1    2    0    0 -0.36911808381E+03  0.72690549991E+03  0.23016199161E+03  0.10382022193E+04  0.60020791413E+03 0.  0.
        -24    2    4    4    0    0 -0.50889841393E+02  0.62834457217E+03  0.19187125004E+02  0.63594162060E+03  0.81528655789E+02 0.  0.
         24    2    4    4    0    0 -0.31822824242E+03  0.98560927736E+02  0.21097486660E+03  0.40226059869E+03  0.79496692861E+02 0.  0.
         11    1    3    3    0    0  0.88031142361E+02 -0.23568777024E+03  0.52004953126E+02  0.25690994962E+03  0.00000000000E+00 0. -1.
        -12    1    3    3    0    0  0.28108694145E+03 -0.49121772967E+03  0.36488234294E+02  0.56712971871E+03  0.00000000000E+00 0.  1.
         15    1    5    5    0    0 -0.52387805423E+01  0.46349458117E+03 -0.23757752990E+01  0.46353368123E+03  0.17770000000E+01 0. -1.
        -16    1    5    5    0    0 -0.45651060850E+02  0.16484999100E+03  0.21562900303E+02  0.17240793937E+03  0.00000000000E+00 0.  1.
          4    1    6    6  502    0 -0.12497952788E+03 -0.11514405201E+01  0.73586743466E+02  0.14503867421E+03  0.00000000000E+00 0. -1.
         -3    1    6    6    0  502 -0.19324871454E+03  0.99712368256E+02  0.13738812314E+03  0.25722192448E+03  0.00000000000E+00 0.  1.
<mgrwt>
<rscale>  0 0.89728492E+03</rscale>
<asrwt>0</asrwt>
<pdfrwt beam="1">  1        1 0.16776131E+00 0.89728492E+03</pdfrwt>
<pdfrwt beam="2">  1       -2 0.11873744E+00 0.89728492E+03</pdfrwt>
<totfact> 0.62115395E+00</totfact>
</mgrwt>
</event>
<event>
12    3  0.1182097E-007  0.1938107E+04  0.7818608E-02  0.8636117E-01
          1   -1    0    0  501    0  0.00000000000E+00  0.00000000000E+00  0.36309408062E+04  0.36309408062E+04  0.00000000000E+00 0. -1.
         -2   -1    0    0    0  501 -0.00000000000E+00 -0.00000000000E+00 -0.12508540882E+04  0.12508540882E+04  0.00000000000E+00 0.  1.
        -24    2    1    2    0    0 -0.15370668914E+04  0.11161514379E+04  0.21600458537E+04  0.28775807576E+04  0.79399405692E+02 0.  0.
    5000000    2    1    2    0    0  0.15370668914E+04 -0.11161514379E+04  0.22004086428E+03  0.20042141367E+04  0.60007304794E+03 0.  0.
        -24    2    4    4    0    0  0.11252661380E+04 -0.49818007309E+03  0.23985756332E+02  0.12333695554E+04  0.78853515862E+02 0.  0.
         24    2    4    4    0    0  0.41180075336E+03 -0.61797136486E+03  0.19605510795E+03  0.77084458137E+03  0.65538500236E+02 0.  0.
         11    1    3    3    0    0 -0.30139866349E+03  0.25066547295E+03  0.47501119939E+03  0.61588146037E+03  0.00000000000E+00 0. -1.
        -12    1    3    3    0    0 -0.12356682279E+04  0.86548596500E+03  0.16850346543E+04  0.22616992973E+04  0.00000000000E+00 0.  1.
         15    1    5    5    0    0  0.49854952082E+03 -0.20524562980E+03  0.46968837876E+02  0.54119000612E+03  0.17770000000E+01 0. -1.
        -16    1    5    5    0    0  0.62671661721E+03 -0.29293444329E+03 -0.22983081544E+02  0.69217954924E+03  0.00000000000E+00 0.  1.
          2    1    6    6  502    0  0.32702301490E+03 -0.44764541459E+03  0.16203338794E+03  0.57756842736E+03  0.00000000000E+00 0. -1.
         -1    1    6    6    0  502  0.84777738458E+02 -0.17032595028E+03  0.34021720006E+02  0.19327615401E+03  0.00000000000E+00 0.  1.
<mgrwt>
<rscale>  0 0.19381069E+04</rscale>
<asrwt>0</asrwt>
<pdfrwt beam="1">  1        1 0.55860627E+00 0.19381069E+04</pdfrwt>
<pdfrwt beam="2">  1       -2 0.19243909E+00 0.19381069E+04</pdfrwt>
<totfact> 0.23150688E-02</totfact>
</mgrwt>
</event>
<event>
12    3  0.1182097E-007  0.9461910E+03  0.7818608E-02  0.9369614E-01
         -2   -1    0    0    0  501 -0.00000000000E+00  0.00000000000E+00  0.93223039945E+03  0.93223039945E+03  0.00000000000E+00 0.  1.
          1   -1    0    0  501    0  0.00000000000E+00 -0.00000000000E+00 -0.16649294506E+04  0.16649294506E+04  0.00000000000E+00 0. -1.
        -24    2    1    2    0    0  0.33798202023E+03 -0.80362805092E+03 -0.11623829786E+04  0.14549497828E+04  0.75463840680E+02 0.  0.
    5000000    2    1    2    0    0 -0.33798202023E+03  0.80362805092E+03  0.42968392744E+03  0.11422100673E+04  0.59997139104E+03 0.  0.
        -24    2    4    4    0    0  0.80647008695E+02  0.46989016620E+03  0.59623690668E+02  0.48653350044E+03  0.76545112609E+02 0.  0.
         24    2    4    4    0    0 -0.41862902892E+03  0.33373788472E+03  0.37006023678E+03  0.65567656684E+03  0.79598630019E+02 0.  0.
         11    1    3    3    0    0  0.20648272142E+03 -0.44701355610E+03 -0.60017139977E+03  0.77631304426E+03  0.00000000000E+00 0. -1.
        -12    1    3    3    0    0  0.13149929881E+03 -0.35661449482E+03 -0.56221157882E+03  0.67863673852E+03  0.00000000000E+00 0.  1.
         15    1    5    5    0    0  0.30590095815E+02  0.34882787828E+03  0.61427550256E+02  0.35551813496E+03  0.17770000000E+01 0. -1.
        -16    1    5    5    0    0  0.50056912879E+02  0.12106228792E+03 -0.18038595883E+01  0.13101536548E+03  0.00000000000E+00 0.  1.
          2    1    6    6  502    0 -0.29721822426E+03  0.20082669681E+03  0.27578304815E+03  0.45246693208E+03  0.00000000000E+00 0. -1.
         -1    1    6    6    0  502 -0.12141080466E+03  0.13291118791E+03  0.94277188630E+02  0.20320963475E+03  0.00000000000E+00 0.  1.
<mgrwt>
<rscale>  0 0.94619096E+03</rscale>
<asrwt>0</asrwt>
<pdfrwt beam="1">  1        1 0.25614299E+00 0.94619096E+03</pdfrwt>
<pdfrwt beam="2">  1       -2 0.14342006E+00 0.94619096E+03</pdfrwt>
<totfact> 0.15007460E+00</totfact>
</mgrwt>
</event>
<event>
12    3  0.1182097E-007  0.2863941E+04  0.7818608E-02  0.8283688E-01
          1   -1    0    0  501    0  0.00000000000E+00  0.00000000000E+00  0.17045872206E+04  0.17045872206E+04  0.00000000000E+00 0. -1.
         -2   -1    0    0    0  501 -0.00000000000E+00 -0.00000000000E+00 -0.48409296307E+04  0.48409296307E+04  0.00000000000E+00 0.  1.
        -24    2    1    2    0    0 -0.10863626073E+04 -0.26247595112E+04 -0.15682393588E+04  0.32457675624E+04  0.78013950335E+02 0.  0.
    5000000    2    1    2    0    0  0.10863626073E+04  0.26247595112E+04 -0.15681030514E+04  0.32997492889E+04  0.59987664054E+03 0.  0.
        -24    2    4    4    0    0  0.89312095896E+03  0.25009266828E+04 -0.14060193911E+04  0.30059084180E+04  0.79344622068E+02 0.  0.
         24    2    4    4    0    0  0.19324164830E+03  0.12383282844E+03 -0.16208366025E+03  0.29384087095E+03  0.85990932588E+02 0.  0.
         11    1    3    3    0    0 -0.44400633590E+03 -0.10218899310E+04 -0.57772941740E+03  0.12550585393E+04  0.00000000000E+00 0. -1.
        -12    1    3    3    0    0 -0.64235627135E+03 -0.16028695803E+04 -0.99050994138E+03  0.19907090231E+04  0.00000000000E+00 0.  1.
         15    1    5    5    0    0  0.43805681576E+03  0.12396789755E+04 -0.74071045807E+03  0.15090900823E+04  0.17770000000E+01 0. -1.
        -16    1    5    5    0    0  0.45506414320E+03  0.12612477073E+04 -0.66530893304E+03  0.14968183357E+04  0.00000000000E+00 0.  1.
          2    1    6    6  502    0  0.75415346031E+02  0.65077740446E+02 -0.11926032522E+03  0.15538858353E+03  0.00000000000E+00 0. -1.
         -1    1    6    6    0  502  0.11782630226E+03  0.58755087994E+02 -0.42823335027E+02  0.13845228743E+03  0.00000000000E+00 0.  1.
<mgrwt>
<rscale>  0 0.28639409E+04</rscale>
<asrwt>0</asrwt>
<pdfrwt beam="1">  1        1 0.26224419E+00 0.28639409E+04</pdfrwt>
<pdfrwt beam="2">  1       -2 0.74475840E+00 0.28639409E+04</pdfrwt>
<totfact> 0.50692781E-04</totfact>
</mgrwt>
</event>
<event>
12    3  0.1182097E-007  0.9267740E+03  0.7818608E-02  0.9392718E-01
          1   -1    0    0  501    0  0.00000000000E+00  0.00000000000E+00  0.13331489485E+04  0.13331489485E+04  0.00000000000E+00 0. -1.
         -2   -1    0    0    0  501 -0.00000000000E+00 -0.00000000000E+00 -0.67362134122E+03  0.67362134122E+03  0.00000000000E+00 0.  1.
        -24    2    1    2    0    0  0.18985156693E+03 -0.82551730859E+03  0.21533567429E+03  0.87764595037E+03  0.79815520672E+02 0.  0.
    5000000    2    1    2    0    0 -0.18985156693E+03  0.82551730859E+03  0.44419193296E+03  0.11291243393E+04  0.60007737507E+03 0.  0.
        -24    2    4    4    0    0 -0.35709734744E+03  0.67224043683E+03  0.45498675063E+03  0.88848776558E+03  0.54514639081E+02 0.  0.
         24    2    4    4    0    0  0.16724578052E+03  0.15327687176E+03 -0.10794817670E+02  0.24063657373E+03  0.79526611967E+02 0.  0.
         11    1    3    3    0    0  0.14021878627E+03 -0.43793069373E+03  0.12671587522E+03  0.47697118736E+03  0.00000000000E+00 0. -1.
        -12    1    3    3    0    0  0.49632780661E+02 -0.38758661485E+03  0.88619799072E+02  0.40067476301E+03  0.00000000000E+00 0.  1.
         15    1    5    5    0    0 -0.51843652875E+02  0.67040856959E+02  0.40140639575E+02  0.93790561997E+02  0.17770000000E+01 0. -1.
        -16    1    5    5    0    0 -0.30525369457E+03  0.60519957987E+03  0.41484611105E+03  0.79469720358E+03  0.00000000000E+00 0.  1.
          4    1    6    6  502    0  0.11927470545E+03  0.15089638523E+03 -0.98886796204E+01  0.19259792424E+03  0.00000000000E+00 0. -1.
         -3    1    6    6    0  502  0.47971075066E+02  0.23804865324E+01 -0.90613804921E+00  0.48038649495E+02  0.00000000000E+00 0.  1.
<mgrwt>
<rscale>  0 0.92677404E+03</rscale>
<asrwt>0</asrwt>
<pdfrwt beam="1">  1        1 0.20509984E+00 0.92677404E+03</pdfrwt>
<pdfrwt beam="2">  1       -2 0.10363405E+00 0.92677404E+03</pdfrwt>
<totfact> 0.57421335E+00</totfact>
</mgrwt>
</event>
<event>
12    3  0.1182097E-007  0.7994059E+03  0.7818608E-02  0.9560877E-01
         -2   -1    0    0    0  501 -0.00000000000E+00  0.00000000000E+00  0.28840714328E+03  0.28840714328E+03  0.00000000000E+00 0.  1.
          1   -1    0    0  501    0  0.00000000000E+00 -0.00000000000E+00 -0.26561167552E+04  0.26561167552E+04  0.00000000000E+00 0. -1.
        -24    2    1    2    0    0 -0.73653572804E+03  0.11110885577E+03 -0.71865177369E+03  0.10382192101E+04  0.81293910602E+02 0.  0.
    5000000    2    1    2    0    0  0.73653572804E+03 -0.11110885577E+03 -0.16490578382E+04  0.19063046884E+04  0.59981309967E+03 0.  0.
        -24    2    4    4    0    0  0.34529812235E+03 -0.25113066496E+03 -0.42266641733E+03  0.60883555099E+03  0.98673317675E+02 0.  0.
         24    2    4    4    0    0  0.39123760569E+03  0.14002180919E+03 -0.12263914209E+04  0.12974691374E+04  0.81958977786E+02 0.  0.
         13    1    3    3    0    0 -0.20292285636E+03  0.56393297797E+02 -0.16721472433E+03  0.26892127789E+03  0.00000000000E+00 0. -1.
        -14    1    3    3    0    0 -0.53361287168E+03  0.54715557968E+02 -0.55143704936E+03  0.76929793222E+03  0.00000000000E+00 0.  1.
         15    1    5    5    0    0  0.12420072909E+03 -0.12309114616E+03 -0.22952423452E+03  0.28855117975E+03  0.17770000000E+01 0. -1.
        -16    1    5    5    0    0  0.22109739326E+03 -0.12803951880E+03 -0.19314218281E+03  0.32028437124E+03  0.00000000000E+00 0.  1.
          4    1    6    6  502    0  0.31854464421E+03  0.83413107007E+02 -0.90103135014E+03  0.95931534477E+03  0.00000000000E+00 0. -1.
         -3    1    6    6    0  502  0.72692961487E+02  0.56608702187E+02 -0.32536007077E+03  0.33815379262E+03  0.00000000000E+00 0.  1.
<mgrwt>
<rscale>  0 0.79940592E+03</rscale>
<asrwt>0</asrwt>
<pdfrwt beam="1">  1        1 0.40863334E+00 0.79940592E+03</pdfrwt>
<pdfrwt beam="2">  1       -2 0.44370330E-01 0.79940592E+03</pdfrwt>
<totfact> 0.46770894E+00</totfact>
</mgrwt>
</event>
<event>
12    3  0.1182097E-007  0.5076076E+03  0.7818608E-02  0.1011812E+00
         -2   -1    0    0    0  501 -0.00000000000E+00  0.00000000000E+00  0.70169656031E+03  0.70169656031E+03  0.00000000000E+00 0.  1.
          1   -1    0    0  501    0  0.00000000000E+00 -0.00000000000E+00 -0.73474789782E+03  0.73474789782E+03  0.00000000000E+00 0. -1.
        -24    2    1    2    0    0 -0.10992872309E+03  0.42607317735E+03  0.37904156166E+03  0.58590763138E+03  0.77411694362E+02 0.  0.
    5000000    2    1    2    0    0  0.10992872309E+03 -0.42607317735E+03 -0.41209289917E+03  0.85053682675E+03  0.59997471572E+03 0.  0.
        -24    2    4    4    0    0 -0.12852520836E+03 -0.11861805553E+03  0.86339104599E+02  0.21328273259E+03  0.86290849777E+02 0.  0.
         24    2    4    4    0    0  0.23845393145E+03 -0.30745512182E+03 -0.49843200377E+03  0.63725409416E+03  0.79179472017E+02 0.  0.
         11    1    3    3    0    0 -0.47199107313E+02  0.10559324733E+03  0.13777582571E+03  0.17988848702E+03  0.00000000000E+00 0. -1.
        -12    1    3    3    0    0 -0.62729615775E+02  0.32047993002E+03  0.24126573596E+03  0.40601914436E+03  0.00000000000E+00 0.  1.
         15    1    5    5    0    0 -0.61830927172E+02 -0.71456864056E+02  0.11594572097E+00  0.94510941949E+02  0.17770000000E+01 0. -1.
        -16    1    5    5    0    0 -0.66694281192E+02 -0.47161191472E+02  0.86223158878E+02  0.11877179064E+03  0.00000000000E+00 0.  1.
          2    1    6    6  502    0  0.57313389415E+01 -0.47679892180E+02 -0.68181987594E+02  0.83396665381E+02  0.00000000000E+00 0. -1.
         -1    1    6    6    0  502  0.23272259251E+03 -0.25977522964E+03 -0.43025001617E+03  0.55385742878E+03  0.00000000000E+00 0.  1.
<mgrwt>
<rscale>  0 0.50760757E+03</rscale>
<asrwt>0</asrwt>
<pdfrwt beam="1">  1        1 0.11303814E+00 0.50760757E+03</pdfrwt>
<pdfrwt beam="2">  1       -2 0.10795332E+00 0.50760757E+03</pdfrwt>
<totfact> 0.16008805E+01</totfact>
</mgrwt>
</event>
<event>
12    3  0.1182097E-007  0.3866535E+03  0.7818608E-02  0.1048502E+00
         -2   -1    0    0    0  501 -0.00000000000E+00  0.00000000000E+00  0.12029883423E+04  0.12029883423E+04  0.00000000000E+00 0.  1.
          1   -1    0    0  501    0  0.00000000000E+00 -0.00000000000E+00 -0.14973770705E+03  0.14973770705E+03  0.00000000000E+00 0. -1.
        -24    2    1    2    0    0  0.98543983442E+02  0.17369870356E+03  0.30943274208E+03  0.37630853349E+03  0.77313221477E+02 0.  0.
    5000000    2    1    2    0    0 -0.98543983442E+02 -0.17369870356E+03  0.74381789319E+03  0.97641751588E+03  0.60020325790E+03 0.  0.
        -24    2    4    4    0    0 -0.12501446380E+03  0.16764393151E+03  0.10626374512E+03  0.24825100405E+03  0.81261759486E+02 0.  0.
         24    2    4    4    0    0  0.26470480353E+02 -0.34134263508E+03  0.63755414807E+03  0.72816651183E+03  0.80843653876E+02 0.  0.
         13    1    3    3    0    0  0.46602148698E+02  0.13646615198E+03  0.16997014968E+03  0.22290047707E+03  0.00000000000E+00 0. -1.
        -14    1    3    3    0    0  0.51941834744E+02  0.37232551587E+02  0.13946259240E+03  0.15340805642E+03  0.00000000000E+00 0.  1.
         15    1    5    5    0    0 -0.10533328823E+03  0.84226555753E+02  0.86692979648E+02  0.16033728435E+03  0.17770000000E+01 0. -1.
        -16    1    5    5    0    0 -0.19681175561E+02  0.83417375761E+02  0.19570765470E+02  0.87913719699E+02  0.00000000000E+00 0.  1.
          2    1    6    6  502    0 -0.97753088408E+01 -0.44501325647E+02  0.43035915764E+02  0.62673875681E+02  0.00000000000E+00 0. -1.
         -1    1    6    6    0  502  0.36245789194E+02 -0.29684130943E+03  0.59451823231E+03  0.66549263615E+03  0.00000000000E+00 0.  1.
<mgrwt>
<rscale>  0 0.38665346E+03</rscale>
<asrwt>0</asrwt>
<pdfrwt beam="1">  1        1 0.23036571E-01 0.38665346E+03</pdfrwt>
<pdfrwt beam="2">  1       -2 0.18507512E+00 0.38665346E+03</pdfrwt>
<totfact> 0.33279841E+01</totfact>
</mgrwt>
</event>
<event>
12    3  0.1182097E-007  0.5802973E+03  0.7818608E-02  0.9947148E-01
         -2   -1    0    0    0  501 -0.00000000000E+00  0.00000000000E+00  0.16609852083E+03  0.16609852083E+03  0.00000000000E+00 0.  1.
          1   -1    0    0  501    0  0.00000000000E+00 -0.00000000000E+00 -0.21109713595E+04  0.21109713595E+04  0.00000000000E+00 0. -1.
        -24    2    1    2    0    0  0.17501147650E+03 -0.39859622002E+03 -0.71386393635E+03  0.84006597072E+03  0.81247473891E+02 0.  0.
    5000000    2    1    2    0    0 -0.17501147650E+03  0.39859622002E+03 -0.12310089023E+04  0.14370039096E+04  0.60007445798E+03 0.  0.
        -24    2    4    4    0    0 -0.25691964023E+03  0.51213632880E+03 -0.90644635469E+03  0.10757942237E+04  0.86005215610E+02 0.  0.
         24    2    4    4    0    0  0.81908163727E+02 -0.11354010879E+03 -0.32456254760E+03  0.36120968583E+03  0.74372617567E+02 0.  0.
         13    1    3    3    0    0  0.58736944087E+02 -0.11022388876E+03 -0.27693167664E+03  0.30379349529E+03  0.00000000000E+00 0. -1.
        -14    1    3    3    0    0  0.11627453242E+03 -0.28837233126E+03 -0.43693225971E+03  0.53627247542E+03  0.00000000000E+00 0.  1.
         15    1    5    5    0    0 -0.18858819247E+03  0.33102830740E+03 -0.66420635774E+03  0.76571436582E+03  0.17770000000E+01 0. -1.
        -16    1    5    5    0    0 -0.68331447757E+02  0.18110802141E+03 -0.24223999695E+03  0.31007985792E+03  0.00000000000E+00 0.  1.
          2    1    6    6  502    0  0.36629478437E+02 -0.94023652746E+02 -0.26691846491E+03  0.28535527484E+03  0.00000000000E+00 0. -1.
         -3    1    6    6    0  502  0.45278685290E+02 -0.19516456041E+02 -0.57644082687E+02  0.75854410991E+02  0.00000000000E+00 0.  1.
<mgrwt>
<rscale>  0 0.58029726E+03</rscale>
<asrwt>0</asrwt>
<pdfrwt beam="1">  1        1 0.32476480E+00 0.58029726E+03</pdfrwt>
<pdfrwt beam="2">  1       -2 0.25553620E-01 0.58029726E+03</pdfrwt>
<totfact> 0.32203956E+01</totfact>
</mgrwt>
</event>
<event>
12    3  0.1182097E-007  0.5272158E+03  0.7818608E-02  0.1006910E+00
         -2   -1    0    0    0  501 -0.00000000000E+00  0.00000000000E+00  0.89303539312E+02  0.89303539312E+02  0.00000000000E+00 0.  1.
          1   -1    0    0  501    0  0.00000000000E+00 -0.00000000000E+00 -0.46668462808E+04  0.46668462808E+04  0.00000000000E+00 0. -1.
        -24    2    1    2    0    0  0.40846047016E+02 -0.47114139646E+03 -0.11803206357E+04  0.12740606430E+04  0.80194164334E+02 0.  0.
    5000000    2    1    2    0    0 -0.40846047016E+02  0.47114139646E+03 -0.33972221058E+04  0.34820891771E+04  0.60015363551E+03 0.  0.
        -24    2    4    4    0    0  0.95719689971E+02  0.20329995914E+02 -0.20194528824E+04  0.20233871408E+04  0.79561358427E+02 0.  0.
         24    2    4    4    0    0 -0.13656573699E+03  0.45081140054E+03 -0.13777692234E+04  0.14587020363E+04  0.87649747654E+02 0.  0.
         11    1    3    3    0    0 -0.23500515530E+02 -0.92040035663E+02 -0.24646554220E+03  0.26413804324E+03  0.00000000000E+00 0. -1.
        -12    1    3    3    0    0  0.64346562546E+02 -0.37910136080E+03 -0.93385509349E+03  0.10099225998E+04  0.00000000000E+00 0.  1.
         15    1    5    5    0    0  0.39203718080E+02  0.73858588479E+01 -0.15286544658E+04  0.15291759598E+04  0.17770000000E+01 0. -1.
        -16    1    5    5    0    0  0.56515971891E+02  0.12944137066E+02 -0.49079841657E+03  0.49421118105E+03  0.00000000000E+00 0.  1.
          4    1    6    6  502    0 -0.76341957404E+02  0.13143151045E+03 -0.37724337368E+03  0.40671230542E+03  0.00000000000E+00 0. -1.
         -3    1    6    6    0  502 -0.60223779583E+02  0.31937989010E+03 -0.10005258497E+04  0.10519897309E+04  0.00000000000E+00 0.  1.
<mgrwt>
<rscale>  0 0.52721576E+03</rscale>
<asrwt>0</asrwt>
<pdfrwt beam="1">  1        1 0.71797621E+00 0.52721576E+03</pdfrwt>
<pdfrwt beam="2">  1       -2 0.13739009E-01 0.52721576E+03</pdfrwt>
<totfact> 0.92488582E-01</totfact>
</mgrwt>
</event>
<event>
12    3  0.1182097E-007  0.7135596E+03  0.7818608E-02  0.9694320E-01
         -2   -1    0    0    0  501 -0.00000000000E+00  0.00000000000E+00  0.61609687751E+03  0.61609687751E+03  0.00000000000E+00 0.  1.
          1   -1    0    0  501    0  0.00000000000E+00 -0.00000000000E+00 -0.11231764691E+04  0.11231764691E+04  0.00000000000E+00 0. -1.
        -24    2    1    2    0    0  0.53381572847E+03  0.26090360676E+03 -0.64847700160E+03  0.88313151926E+03  0.79805605877E+02 0.  0.
    5000000    2    1    2    0    0 -0.53381572847E+03 -0.26090360676E+03  0.14139741001E+03  0.85614182735E+03  0.59996306303E+03 0.  0.
        -24    2    4    4    0    0 -0.11160546549E+03  0.17565195830E+03  0.91550617407E+02  0.24154419123E+03  0.81564026299E+02 0.  0.
         24    2    4    4    0    0 -0.42221026299E+03 -0.43655556506E+03  0.49846792599E+02  0.61459763613E+03  0.80020522630E+02 0.  0.
         11    1    3    3    0    0  0.27248371364E+03  0.17742794598E+03 -0.35185162077E+03  0.47909040196E+03  0.00000000000E+00 0. -1.
        -12    1    3    3    0    0  0.26133201483E+03  0.83475660783E+02 -0.29662538083E+03  0.40404111730E+03  0.00000000000E+00 0.  1.
         15    1    5    5    0    0 -0.65862116688E+02  0.54357552082E+02  0.47755913180E+01  0.85548383296E+02  0.17770000000E+01 0. -1.
        -16    1    5    5    0    0 -0.45743348797E+02  0.12129440622E+03  0.86775026089E+02  0.15599580793E+03  0.00000000000E+00 0.  1.
          2    1    6    6  502    0 -0.28494908333E+03 -0.23842738202E+03  0.29743069633E+02  0.37273079666E+03  0.00000000000E+00 0. -1.
         -1    1    6    6    0  502 -0.13726117965E+03 -0.19812818304E+03  0.20103722966E+02  0.24186683946E+03  0.00000000000E+00 0.  1.
<mgrwt>
<rscale>  0 0.71355958E+03</rscale>
<asrwt>0</asrwt>
<pdfrwt beam="1">  1        1 0.17279638E+00 0.71355958E+03</pdfrwt>
<pdfrwt beam="2">  1       -2 0.94784135E-01 0.71355958E+03</pdfrwt>
<totfact> 0.10314286E+01</totfact>
</mgrwt>
</event>
<event>
12    3  0.1182097E-007  0.6759313E+03  0.7818608E-02  0.9759302E-01
          1   -1    0    0  501    0  0.00000000000E+00  0.00000000000E+00  0.11183546416E+04  0.11183546416E+04  0.00000000000E+00 0. -1.
         -2   -1    0    0    0  501 -0.00000000000E+00 -0.00000000000E+00 -0.41487811794E+03  0.41487811794E+03  0.00000000000E+00 0.  1.
        -24    2    1    2    0    0 -0.44177788406E+03  0.31868759026E+03  0.24728325819E+03  0.60347765785E+03  0.79415330439E+02 0.  0.
    5000000    2    1    2    0    0  0.44177788406E+03 -0.31868759026E+03  0.45619326551E+03  0.92975510173E+03  0.59966888753E+03 0.  0.
        -24    2    4    4    0    0  0.32215204666E+03  0.11700332134E+03  0.17946597333E+03  0.39389654446E+03  0.73991443988E+02 0.  0.
         24    2    4    4    0    0  0.11962583740E+03 -0.43569091160E+03  0.27672729218E+03  0.53585855727E+03  0.80184086560E+02 0.  0.
         11    1    3    3    0    0 -0.17559598561E+03  0.17435864465E+03  0.12003383618E+03  0.27503274161E+03  0.00000000000E+00 0. -1.
        -12    1    3    3    0    0 -0.26618189845E+03  0.14432894561E+03  0.12724942201E+03  0.32844491624E+03  0.00000000000E+00 0.  1.
         15    1    5    5    0    0  0.18379343006E+02 -0.14833747092E+00 -0.57249416030E+01  0.19332742658E+02  0.17770000000E+01 0. -1.
        -16    1    5    5    0    0  0.30377270365E+03  0.11715165881E+03  0.18519091493E+03  0.37456380180E+03  0.00000000000E+00 0.  1.
          4    1    6    6  502    0 -0.34119591511E+00 -0.11767459283E+03  0.53861817876E+02  0.12941607951E+03  0.00000000000E+00 0. -1.
         -3    1    6    6    0  502  0.11996703331E+03 -0.31801631878E+03  0.22286547431E+03  0.40644247776E+03  0.00000000000E+00 0.  1.
<mgrwt>
<rscale>  0 0.67593127E+03</rscale>
<asrwt>0</asrwt>
<pdfrwt beam="1">  1        1 0.17205456E+00 0.67593127E+03</pdfrwt>
<pdfrwt beam="2">  1       -2 0.63827403E-01 0.67593127E+03</pdfrwt>
<totfact> 0.25260016E+01</totfact>
</mgrwt>
</event>
<event>
12    3  0.1182097E-007  0.4703581E+03  0.7818608E-02  0.1021819E+00
         -2   -1    0    0    0  501 -0.00000000000E+00  0.00000000000E+00  0.18091302494E+03  0.18091302494E+03  0.00000000000E+00 0.  1.
          1   -1    0    0  501    0  0.00000000000E+00 -0.00000000000E+00 -0.22793509243E+04  0.22793509243E+04  0.00000000000E+00 0. -1.
        -24    2    1    2    0    0 -0.45678808910E+03 -0.69003043889E+02 -0.46787015343E+03  0.66243721837E+03  0.80646198862E+02 0.  0.
    5000000    2    1    2    0    0  0.45678808910E+03  0.69003043889E+02 -0.16305677459E+04  0.17978267308E+04  0.60001083469E+03 0.  0.
        -24    2    4    4    0    0  0.35213164166E+03  0.49713471553E+02 -0.33272961143E+03  0.49321667748E+03  0.78010091058E+02 0.  0.
         24    2    4    4    0    0  0.10465644744E+03  0.19289572336E+02 -0.12978381345E+04  0.13046100533E+04  0.79363142978E+02 0.  0.
         13    1    3    3    0    0 -0.41712076397E+03 -0.40713748577E+02 -0.43236052897E+03  0.60214862623E+03  0.00000000000E+00 0. -1.
        -14    1    3    3    0    0 -0.39667325130E+02 -0.28289295311E+02 -0.35509624466E+02  0.60288592137E+02  0.00000000000E+00 0.  1.
         15    1    5    5    0    0  0.22493835232E+03  0.28933160997E+01 -0.24026015289E+03  0.32914090056E+03  0.17770000000E+01 0. -1.
        -16    1    5    5    0    0  0.12719328934E+03  0.46820155453E+02 -0.92469458543E+02  0.16407577693E+03  0.00000000000E+00 0.  1.
          4    1    6    6  502    0  0.57885667712E+02 -0.76934745603E+01 -0.32014813911E+03  0.32543013236E+03  0.00000000000E+00 0. -1.
         -3    1    6    6    0  502  0.46770779727E+02  0.26983046896E+02 -0.97768999535E+03  0.97917992098E+03  0.00000000000E+00 0.  1.
<mgrwt>
<rscale>  0 0.47035815E+03</rscale>
<asrwt>0</asrwt>
<pdfrwt beam="1">  1        1 0.35066935E+00 0.47035815E+03</pdfrwt>
<pdfrwt beam="2">  1       -2 0.27832775E-01 0.47035815E+03</pdfrwt>
<totfact> 0.21768570E+01</totfact>
</mgrwt>
</event>
<event>
12    3  0.1182097E-007  0.1007006E+04  0.7818608E-02  0.9300894E-01
         -2   -1    0    0    0  501 -0.00000000000E+00  0.00000000000E+00  0.41201052383E+03  0.41201052383E+03  0.00000000000E+00 0.  1.
          1   -1    0    0  501    0  0.00000000000E+00 -0.00000000000E+00 -0.24882617585E+04  0.24882617585E+04  0.00000000000E+00 0. -1.
        -24    2    1    2    0    0  0.50010552634E+03  0.77260931873E+03 -0.87458896368E+03  0.12719222592E+04  0.76483208439E+02 0.  0.
    5000000    2    1    2    0    0 -0.50010552634E+03 -0.77260931873E+03 -0.12016622710E+04  0.16283500231E+04  0.60041726111E+03 0.  0.
        -24    2    4    4    0    0  0.12096868260E+03 -0.17383721983E+03 -0.32121852446E+03  0.39316370857E+03  0.80892274734E+02 0.  0.
         24    2    4    4    0    0 -0.62107420894E+03 -0.59877209891E+03 -0.88044374654E+03  0.12351863146E+04  0.79011653820E+02 0.  0.
         11    1    3    3    0    0  0.28357601175E+03  0.36959628156E+03 -0.42917299567E+03  0.63340841958E+03  0.00000000000E+00 0. -1.
        -12    1    3    3    0    0  0.21652951459E+03  0.40301303717E+03 -0.44541596801E+03  0.63851383961E+03  0.00000000000E+00 0.  1.
         15    1    5    5    0    0  0.83627681533E+02 -0.55650303092E+02 -0.17189352118E+03  0.19910069238E+03  0.17770000000E+01 0. -1.
        -16    1    5    5    0    0  0.37341001068E+02 -0.11818691674E+03 -0.14932500327E+03  0.19406301619E+03  0.00000000000E+00 0.  1.
          4    1    6    6  502    0 -0.33360443385E+03 -0.26725652722E+03 -0.42685506918E+03  0.60408875152E+03  0.00000000000E+00 0. -1.
         -3    1    6    6    0  502 -0.28746977509E+03 -0.33151557169E+03 -0.45358867736E+03  0.63109756306E+03  0.00000000000E+00 0.  1.
<mgrwt>
<rscale>  0 0.10070062E+04</rscale>
<asrwt>0</asrwt>
<pdfrwt beam="1">  1        1 0.38280950E+00 0.10070062E+04</pdfrwt>
<pdfrwt beam="2">  1       -2 0.63386235E-01 0.10070062E+04</pdfrwt>
<totfact> 0.28342014E+00</totfact>
</mgrwt>
</event>
<event>
12    3  0.1182097E-007  0.3992738E+03  0.7818608E-02  0.1044031E+00
          1   -1    0    0  501    0  0.00000000000E+00  0.00000000000E+00  0.80059439970E+03  0.80059439970E+03  0.00000000000E+00 0. -1.
         -2   -1    0    0    0  501 -0.00000000000E+00 -0.00000000000E+00 -0.22737656233E+03  0.22737656233E+03  0.00000000000E+00 0.  1.
        -24    2    1    2    0    0 -0.66418688655E+02 -0.18536743907E+03  0.76335553882E+02  0.22447175410E+03  0.76078393319E+02 0.  0.
    5000000    2    1    2    0    0  0.66418688655E+02  0.18536743907E+03  0.49688228349E+03  0.80349920793E+03  0.59995536819E+03 0.  0.
        -24    2    4    4    0    0  0.17402902128E+02  0.38393227243E+03  0.22074412331E+03  0.45067598343E+03  0.81694695352E+02 0.  0.
         24    2    4    4    0    0  0.49015786527E+02 -0.19856483335E+03  0.27613816019E+03  0.35282322450E+03  0.80008773671E+02 0.  0.
         11    1    3    3    0    0 -0.26075296632E+02 -0.35871600958E+02 -0.12342586816E+02  0.46032947972E+02  0.00000000000E+00 0. -1.
        -12    1    3    3    0    0 -0.40343392023E+02 -0.14949583812E+03  0.88678140698E+02  0.17843880613E+03  0.00000000000E+00 0.  1.
         15    1    5    5    0    0  0.73345528807E+01  0.52505184717E+02  0.13073812260E+01  0.53060880720E+02  0.17770000000E+01 0. -1.
        -16    1    5    5    0    0  0.10068349247E+02  0.33142708771E+03  0.21943674208E+03  0.39761510271E+03  0.00000000000E+00 0.  1.
          4    1    6    6  502    0  0.29714674301E+02 -0.21645330739E+02  0.22928744606E+02  0.43326776257E+02  0.00000000000E+00 0. -1.
         -3    1    6    6    0  502  0.19301112226E+02 -0.17691950262E+03  0.25320941558E+03  0.30949644825E+03  0.00000000000E+00 0.  1.
<mgrwt>
<rscale>  0 0.39927384E+03</rscale>
<asrwt>0</asrwt>
<pdfrwt beam="1">  1        1 0.12316837E+00 0.39927384E+03</pdfrwt>
<pdfrwt beam="2">  1       -2 0.34981010E-01 0.39927384E+03</pdfrwt>
<totfact> 0.15468163E+02</totfact>
</mgrwt>
</event>
<event>
12    3  0.1182097E-007  0.4058628E+03  0.7818608E-02  0.1041768E+00
          1   -1    0    0  501    0  0.00000000000E+00  0.00000000000E+00  0.60036864003E+03  0.60036864003E+03  0.00000000000E+00 0. -1.
         -2   -1    0    0    0  501 -0.00000000000E+00 -0.00000000000E+00 -0.49101182374E+03  0.49101182374E+03  0.00000000000E+00 0.  1.
        -24    2    1    2    0    0  0.10567097400E+03  0.35317578920E+03 -0.51956822220E+01  0.37792604013E+03  0.83075892261E+02 0.  0.
    5000000    2    1    2    0    0 -0.10567097400E+03 -0.35317578920E+03  0.11455249851E+03  0.71345442364E+03  0.59999620572E+03 0.  0.
        -24    2    4    4    0    0 -0.21466385726E+02 -0.32346893320E+03  0.32919008204E+03  0.46877865034E+03  0.79336980296E+02 0.  0.
         24    2    4    4    0    0 -0.84204588274E+02 -0.29706855997E+02 -0.21463758353E+03  0.24467577330E+03  0.76315344438E+02 0.  0.
         13    1    3    3    0    0  0.10798273767E+03  0.29578973751E+03  0.19328579828E+02  0.31547651965E+03  0.00000000000E+00 0. -1.
        -14    1    3    3    0    0 -0.23117636719E+01  0.57386051686E+02 -0.24524262050E+02  0.62449520482E+02  0.00000000000E+00 0.  1.
         15    1    5    5    0    0  0.86183776659E+01 -0.28114508166E+03  0.26786294194E+03  0.38842057975E+03  0.17770000000E+01 0. -1.
        -16    1    5    5    0    0 -0.30084763392E+02 -0.42323851537E+02  0.61327140093E+02  0.80358070592E+02  0.00000000000E+00 0.  1.
          4    1    6    6  502    0 -0.34842556954E+01  0.13985402862E+02 -0.82729822577E+02  0.83975919611E+02  0.00000000000E+00 0. -1.
         -3    1    6    6    0  502 -0.80720332578E+02 -0.43692258859E+02 -0.13190776095E+03  0.16069985369E+03  0.00000000000E+00 0.  1.
<mgrwt>
<rscale>  0 0.40586281E+03</rscale>
<asrwt>0</asrwt>
<pdfrwt beam="1">  1        1 0.92364407E-01 0.40586281E+03</pdfrwt>
<pdfrwt beam="2">  1       -2 0.75540280E-01 0.40586281E+03</pdfrwt>
<totfact> 0.49547642E+01</totfact>
</mgrwt>
</event>
<event>
12    3  0.1182097E-007  0.7943744E+03  0.7818608E-02  0.9568196E-01
         -2   -1    0    0    0  501 -0.00000000000E+00  0.00000000000E+00  0.48556121493E+03  0.48556121493E+03  0.00000000000E+00 0.  1.
          1   -1    0    0  501    0  0.00000000000E+00 -0.00000000000E+00 -0.17682411488E+04  0.17682411488E+04  0.00000000000E+00 0. -1.
        -24    2    1    2    0    0  0.68808370206E+03 -0.38531159511E+03 -0.87947852005E+03  0.11840704611E+04  0.81339923545E+02 0.  0.
    5000000    2    1    2    0    0 -0.68808370206E+03  0.38531159511E+03 -0.40320141381E+03  0.10697319027E+04  0.59985894765E+03 0.  0.
        -24    2    4    4    0    0 -0.29470328124E+03  0.15643725579E+03 -0.49251604274E+03  0.59958936610E+03  0.74918065977E+02 0.  0.
         24    2    4    4    0    0 -0.39338042083E+03  0.22887433932E+03  0.89314628925E+02  0.47014253656E+03  0.76975860195E+02 0.  0.
         11    1    3    3    0    0  0.50678848301E+03 -0.32047924674E+03 -0.64479720932E+03  0.88051402899E+03  0.00000000000E+00 0. -1.
        -12    1    3    3    0    0  0.18129521906E+03 -0.64832348371E+02 -0.23468131073E+03  0.30355643208E+03  0.00000000000E+00 0.  1.
         15    1    5    5    0    0 -0.67532723784E+02  0.69267765934E+01 -0.73643959662E+02  0.10017604274E+03  0.17770000000E+01 0. -1.
        -16    1    5    5    0    0 -0.22717055745E+03  0.14951047920E+03 -0.41887208308E+03  0.49941332336E+03  0.00000000000E+00 0.  1.
          2    1    6    6  502    0 -0.12371747131E+03  0.92947069014E+02 -0.16652939041E+01  0.15475123117E+03  0.00000000000E+00 0. -1.
         -1    1    6    6    0  502 -0.26966294952E+03  0.13592727030E+03  0.90979922829E+02  0.31539130539E+03  0.00000000000E+00 0.  1.
<mgrwt>
<rscale>  0 0.79437437E+03</rscale>
<asrwt>0</asrwt>
<pdfrwt beam="1">  1        1 0.27203710E+00 0.79437437E+03</pdfrwt>
<pdfrwt beam="2">  1       -2 0.74701725E-01 0.79437437E+03</pdfrwt>
<totfact> 0.62451211E+00</totfact>
</mgrwt>
</event>
<event>
12    3  0.1182097E-007  0.4923038E+03  0.7818608E-02  0.1015807E+00
         -2   -1    0    0    0  501 -0.00000000000E+00  0.00000000000E+00  0.26126640388E+03  0.26126640388E+03  0.00000000000E+00 0.  1.
          1   -1    0    0  501    0  0.00000000000E+00 -0.00000000000E+00 -0.14944416933E+04  0.14944416933E+04  0.00000000000E+00 0. -1.
        -24    2    1    2    0    0  0.33113497668E+03 -0.24241709889E+03 -0.81786018206E+03  0.91851114783E+03  0.79693341426E+02 0.  0.
    5000000    2    1    2    0    0 -0.33113497668E+03  0.24241709889E+03 -0.41531510738E+03  0.83719694937E+03  0.59999639249E+03 0.  0.
        -24    2    4    4    0    0 -0.25204861360E+03  0.34109946910E+03 -0.50407066185E+03  0.66349312808E+03  0.79110981743E+02 0.  0.
         24    2    4    4    0    0 -0.79086363078E+02 -0.98682370211E+02  0.88755554470E+02  0.17370382129E+03  0.79388954308E+02 0.  0.
         13    1    3    3    0    0  0.32402982648E+03 -0.22224217045E+03 -0.74099664506E+03  0.83872697510E+03  0.00000000000E+00 0. -1.
        -14    1    3    3    0    0  0.71051501993E+01 -0.20174928433E+02 -0.76863537009E+02  0.79784172730E+02  0.00000000000E+00 0.  1.
         15    1    5    5    0    0 -0.11925814550E+03  0.21904362556E+03 -0.26351301166E+03  0.36282899582E+03  0.17770000000E+01 0. -1.
        -16    1    5    5    0    0 -0.13279046810E+03  0.12205584354E+03 -0.24055765019E+03  0.30066413226E+03  0.00000000000E+00 0.  1.
          4    1    6    6  502    0 -0.61521010261E+02 -0.27825043132E+02  0.13499018232E+02  0.68857034659E+02  0.00000000000E+00 0. -1.
         -3    1    6    6    0  502 -0.17565352818E+02 -0.70857327079E+02  0.75256536238E+02  0.10484678663E+03  0.00000000000E+00 0.  1.
<mgrwt>
<rscale>  0 0.49230382E+03</rscale>
<asrwt>0</asrwt>
<pdfrwt beam="1">  1        1 0.22991411E+00 0.49230382E+03</pdfrwt>
<pdfrwt beam="2">  1       -2 0.40194831E-01 0.49230382E+03</pdfrwt>
<totfact> 0.36113718E+01</totfact>
</mgrwt>
</event>
<event>
12    3  0.1182097E-007  0.5124386E+03  0.7818608E-02  0.1010582E+00
          1   -1    0    0  501    0  0.00000000000E+00  0.00000000000E+00  0.89973046512E+03  0.89973046512E+03  0.00000000000E+00 0. -1.
         -2   -1    0    0    0  501 -0.00000000000E+00 -0.00000000000E+00 -0.45406264460E+03  0.45406264460E+03  0.00000000000E+00 0.  1.
        -24    2    1    2    0    0 -0.11165633804E+03  0.44986096983E+03  0.35658035320E+03  0.59015492317E+03  0.79317432255E+02 0.  0.
    5000000    2    1    2    0    0  0.11165633804E+03 -0.44986096983E+03  0.89087467322E+02  0.76363818654E+03  0.60030381734E+03 0.  0.
        -24    2    4    4    0    0  0.49537522512E+02  0.24067854337E+02  0.23791628171E+03  0.25673745893E+03  0.79225866796E+02 0.  0.
         24    2    4    4    0    0  0.62118815528E+02 -0.47392882417E+03 -0.14882881438E+03  0.50690072761E+03  0.79567920941E+02 0.  0.
         11    1    3    3    0    0 -0.21099136822E+02  0.12147896557E+03  0.54267447740E+02  0.13471179805E+03  0.00000000000E+00 0. -1.
        -12    1    3    3    0    0 -0.90557201218E+02  0.32838200426E+03  0.30231290546E+03  0.45544312512E+03  0.00000000000E+00 0.  1.
         15    1    5    5    0    0  0.21293037462E+02  0.43374784720E+02  0.68164303901E+02  0.83572097312E+02  0.17770000000E+01 0. -1.
        -16    1    5    5    0    0  0.28244485050E+02 -0.19306930383E+02  0.16975197780E+03  0.17316536162E+03  0.00000000000E+00 0.  1.
          4    1    6    6  502    0  0.20645884812E+02 -0.23204042439E+03 -0.11287707825E+03  0.25886337305E+03  0.00000000000E+00 0. -1.
         -3    1    6    6    0  502  0.41472930716E+02 -0.24188839977E+03 -0.35951736136E+02  0.24803735456E+03  0.00000000000E+00 0.  1.
<mgrwt>
<rscale>  0 0.51243858E+03</rscale>
<asrwt>0</asrwt>
<pdfrwt beam="1">  1        1 0.13842007E+00 0.51243858E+03</pdfrwt>
<pdfrwt beam="2">  1       -2 0.69855792E-01 0.51243858E+03</pdfrwt>
<totfact> 0.31265679E+01</totfact>
</mgrwt>
</event>
<event>
12    3  0.1182097E-007  0.7262439E+03  0.7818608E-02  0.9673375E-01
         -2   -1    0    0    0  501 -0.00000000000E+00  0.00000000000E+00  0.13827202891E+04  0.13827202891E+04  0.00000000000E+00 0.  1.
          1   -1    0    0  501    0  0.00000000000E+00 -0.00000000000E+00 -0.40438119924E+03  0.40438119924E+03  0.00000000000E+00 0. -1.
        -24    2    1    2    0    0  0.59413144376E+03 -0.11118911504E+03  0.22363526477E+03  0.64917638751E+03  0.77859223434E+02 0.  0.
    5000000    2    1    2    0    0 -0.59413144376E+03  0.11118911504E+03  0.75470382511E+03  0.11379251009E+04  0.59995039775E+03 0.  0.
        -24    2    4    4    0    0 -0.38766818354E+03 -0.22101591630E+03  0.42027473552E+03  0.61833511283E+03  0.81072823177E+02 0.  0.
         24    2    4    4    0    0 -0.20646326022E+03  0.33220503134E+03  0.33442908959E+03  0.51958998803E+03  0.71719446620E+02 0.  0.
         13    1    3    3    0    0  0.23051237665E+03 -0.20337571674E+02  0.11811215532E+03  0.25980772476E+03  0.00000000000E+00 0. -1.
        -14    1    3    3    0    0  0.36361906711E+03 -0.90851543365E+02  0.10552310945E+03  0.38936866274E+03  0.00000000000E+00 0.  1.
         15    1    5    5    0    0 -0.89499001116E+02 -0.26421529284E+02  0.12361021087E+03  0.15488967161E+03  0.17770000000E+01 0. -1.
        -16    1    5    5    0    0 -0.29816918243E+03 -0.19459438702E+03  0.29666452464E+03  0.46344544122E+03  0.00000000000E+00 0.  1.
          4    1    6    6  502    0 -0.16001942231E+03  0.19619605850E+03  0.22857446098E+03  0.34109440497E+03  0.00000000000E+00 0. -1.
         -3    1    6    6    0  502 -0.46443837908E+02  0.13600897284E+03  0.10585462861E+03  0.17849558306E+03  0.00000000000E+00 0.  1.
<mgrwt>
<rscale>  0 0.72624390E+03</rscale>
<asrwt>0</asrwt>
<pdfrwt beam="1">  1        1 0.62212493E-01 0.72624390E+03</pdfrwt>
<pdfrwt beam="2">  1       -2 0.21272620E+00 0.72624390E+03</pdfrwt>
<totfact> 0.58511039E+00</totfact>
</mgrwt>
</event>
<event>
12    3  0.1182097E-007  0.7903720E+03  0.7818608E-02  0.9574059E-01
          1   -1    0    0  501    0  0.00000000000E+00  0.00000000000E+00  0.18037808742E+04  0.18037808742E+04  0.00000000000E+00 0. -1.
         -2   -1    0    0    0  501 -0.00000000000E+00 -0.00000000000E+00 -0.40288172591E+03  0.40288172591E+03  0.00000000000E+00 0.  1.
        -24    2    1    2    0    0  0.49552738094E+03 -0.46315980100E+03  0.21792654576E+03  0.71691473866E+03  0.80064827645E+02 0.  0.
    5000000    2    1    2    0    0 -0.49552738094E+03  0.46315980100E+03  0.11829726025E+04  0.14897478614E+04  0.59988342686E+03 0.  0.
        -24    2    4    4    0    0 -0.89603371303E+02  0.47580549457E+03  0.60466919434E+03  0.77876747664E+03  0.80214183797E+02 0.  0.
         24    2    4    4    0    0 -0.40592400964E+03 -0.12645693565E+02  0.57830340815E+03  0.71098038477E+03  0.78256376633E+02 0.  0.
         13    1    3    3    0    0  0.28698940732E+03 -0.27395095838E+03  0.16839930279E+03  0.43101087305E+03  0.00000000000E+00 0. -1.
        -14    1    3    3    0    0  0.20853797363E+03 -0.18920884262E+03  0.49527242970E+02  0.28590386561E+03  0.00000000000E+00 0.  1.
         15    1    5    5    0    0  0.12349820772E+02  0.11681724363E+03  0.15162192982E+03  0.19181020258E+03  0.17770000000E+01 0. -1.
        -16    1    5    5    0    0 -0.10195319207E+03  0.35898825094E+03  0.45304726451E+03  0.58695727406E+03  0.00000000000E+00 0.  1.
          2    1    6    6  502    0 -0.35238801427E+03 -0.34175193400E+02  0.47198855926E+03  0.59001564091E+03  0.00000000000E+00 0. -1.
         -1    1    6    6    0  502 -0.53535995374E+02  0.21529499835E+02  0.10631484888E+03  0.12096474386E+03  0.00000000000E+00 0.  1.
<mgrwt>
<rscale>  0 0.79037204E+03</rscale>
<asrwt>0</asrwt>
<pdfrwt beam="1">  1        1 0.27750475E+00 0.79037204E+03</pdfrwt>
<pdfrwt beam="2">  1       -2 0.61981805E-01 0.79037204E+03</pdfrwt>
<totfact> 0.88708236E+00</totfact>
</mgrwt>
</event>
<event>
12    3  0.1182097E-007  0.4233550E+03  0.7818608E-02  0.1035980E+00
          1   -1    0    0  501    0  0.00000000000E+00  0.00000000000E+00  0.39458163319E+03  0.39458163319E+03  0.00000000000E+00 0. -1.
         -2   -1    0    0    0  501 -0.00000000000E+00 -0.00000000000E+00 -0.69564441047E+03  0.69564441047E+03  0.00000000000E+00 0.  1.
        -24    2    1    2    0    0 -0.31930040077E+03  0.58050023282E+02 -0.23027863493E+03  0.40439460865E+03  0.72001379601E+02 0.  0.
    5000000    2    1    2    0    0  0.31930040077E+03 -0.58050023282E+02 -0.70784142351E+02  0.68583143501E+03  0.60002650884E+03 0.  0.
        -24    2    4    4    0    0 -0.59216978263E+01 -0.16030889556E+03 -0.23765417994E+03  0.29786204892E+03  0.80673926659E+02 0.  0.
         24    2    4    4    0    0  0.32522209860E+03  0.10225887227E+03  0.16687003759E+03  0.38796938610E+03  0.80301586084E+02 0.  0.
         11    1    3    3    0    0 -0.16809480182E+03  0.28706813855E+02 -0.77035192232E+02  0.18712125588E+03  0.00000000000E+00 0. -1.
        -12    1    3    3    0    0 -0.15120559896E+03  0.29343209427E+02 -0.15324344270E+03  0.21727335277E+03  0.00000000000E+00 0.  1.
         15    1    5    5    0    0  0.28327485777E+02 -0.64124186050E+02 -0.13999260337E+03  0.15657408602E+03  0.17770000000E+01 0. -1.
        -16    1    5    5    0    0 -0.34249183604E+02 -0.96184709507E+02 -0.97661576570E+02  0.14128796289E+03  0.00000000000E+00 0.  1.
          2    1    6    6  502    0  0.12525757935E+03  0.80244273945E+02  0.79154941889E+02  0.16850551775E+03  0.00000000000E+00 0. -1.
         -1    1    6    6    0  502  0.19996451924E+03  0.22014598330E+02  0.87715095698E+02  0.21946386835E+03  0.00000000000E+00 0.  1.
<mgrwt>
<rscale>  0 0.42335496E+03</rscale>
<asrwt>0</asrwt>
<pdfrwt beam="1">  1        1 0.60704867E-01 0.42335496E+03</pdfrwt>
<pdfrwt beam="2">  1       -2 0.10702222E+00 0.42335496E+03</pdfrwt>
<totfact> 0.39232207E+01</totfact>
</mgrwt>
</event>
<event>
12    3  0.1182097E-007  0.4631459E+03  0.7818608E-02  0.1023873E+00
          1   -1    0    0  501    0  0.00000000000E+00  0.00000000000E+00  0.14095700165E+04  0.14095700165E+04  0.00000000000E+00 0. -1.
         -2   -1    0    0    0  501 -0.00000000000E+00 -0.00000000000E+00 -0.26222001280E+03  0.26222001280E+03  0.00000000000E+00 0.  1.
        -24    2    1    2    0    0  0.23588190286E+03  0.14235147651E+03  0.93446767978E+03  0.97763077360E+03  0.81411731260E+02 0.  0.
    5000000    2    1    2    0    0 -0.23588190286E+03 -0.14235147651E+03  0.21288232391E+03  0.69415925569E+03  0.60052807883E+03 0.  0.
        -24    2    4    4    0    0 -0.21081515533E+03  0.20319605753E+03  0.12197393106E+03  0.32703471962E+03  0.79639189262E+02 0.  0.
         24    2    4    4    0    0 -0.25066747530E+02 -0.34554753404E+03  0.90908392854E+02  0.36712453608E+03  0.80527318233E+02 0.  0.
         13    1    3    3    0    0  0.74838292825E+02  0.41303143297E+02  0.43247745831E+03  0.44084404460E+03  0.00000000000E+00 0. -1.
        -14    1    3    3    0    0  0.16104361003E+03  0.10104833322E+03  0.50199022147E+03  0.53678672900E+03  0.00000000000E+00 0.  1.
         15    1    5    5    0    0 -0.49321130909E+02  0.84841247068E+01  0.14086226108E+02  0.52020513465E+02  0.17770000000E+01 0. -1.
        -16    1    5    5    0    0 -0.16149402442E+03  0.19471193282E+03  0.10788770495E+03  0.27501420615E+03  0.00000000000E+00 0.  1.
          2    1    6    6  502    0 -0.22661228465E+02 -0.12205179647E+03  0.70316010457E+02  0.14266924555E+03  0.00000000000E+00 0. -1.
         -1    1    6    6    0  502 -0.24055190649E+01 -0.22349573757E+03  0.20592382397E+02  0.22445529053E+03  0.00000000000E+00 0.  1.
<mgrwt>
<rscale>  0 0.46314591E+03</rscale>
<asrwt>0</asrwt>
<pdfrwt beam="1">  1        1 0.21685692E+00 0.46314591E+03</pdfrwt>
<pdfrwt beam="2">  1       -2 0.40341541E-01 0.46314591E+03</pdfrwt>
<totfact> 0.41161535E+01</totfact>
</mgrwt>
</event>
<event>
12    3  0.1182097E-007  0.9789937E+03  0.7818608E-02  0.9331889E-01
          1   -1    0    0  501    0  0.00000000000E+00  0.00000000000E+00  0.16723059834E+04  0.16723059834E+04  0.00000000000E+00 0. -1.
         -2   -1    0    0    0  501 -0.00000000000E+00 -0.00000000000E+00 -0.62484371446E+03  0.62484371446E+03  0.00000000000E+00 0.  1.
        -24    2    1    2    0    0 -0.70193749812E+03 -0.57977496329E+03  0.70497948757E+03  0.11542766591E+04  0.80642845641E+02 0.  0.
    5000000    2    1    2    0    0  0.70193749812E+03  0.57977496329E+03  0.34248278134E+03  0.11428730387E+04  0.60000755644E+03 0.  0.
        -24    2    4    4    0    0 -0.12266962385E+02  0.26636338895E+03  0.20692059992E+03  0.34734361989E+03  0.82045854670E+02 0.  0.
         24    2    4    4    0    0  0.71420446050E+03  0.31341157434E+03  0.13556218142E+03  0.79552941883E+03  0.78581962615E+02 0.  0.
         13    1    3    3    0    0 -0.52458238728E+03 -0.41651753562E+03  0.47539848226E+03  0.82138739670E+03  0.00000000000E+00 0. -1.
        -14    1    3    3    0    0 -0.17735511084E+03 -0.16325742767E+03  0.22958100530E+03  0.33288926241E+03  0.00000000000E+00 0.  1.
         15    1    5    5    0    0 -0.64755205301E+01  0.40856446921E+02  0.75938225323E+02  0.86492504966E+02  0.17770000000E+01 0. -1.
        -16    1    5    5    0    0 -0.57914418550E+01  0.22550694203E+03  0.13098237459E+03  0.26085111492E+03  0.00000000000E+00 0.  1.
          4    1    6    6  502    0  0.68449420410E+03  0.29674939716E+03  0.11272614877E+03  0.75451951915E+03  0.00000000000E+00 0. -1.
         -3    1    6    6    0  502  0.29710256406E+02  0.16662177184E+02  0.22836032654E+02  0.41009899678E+02  0.00000000000E+00 0.  1.
<mgrwt>
<rscale>  0 0.97899368E+03</rscale>
<asrwt>0</asrwt>
<pdfrwt beam="1">  1        1 0.25727784E+00 0.97899368E+03</pdfrwt>
<pdfrwt beam="2">  1       -2 0.96129803E-01 0.97899368E+03</pdfrwt>
<totfact> 0.39805380E+00</totfact>
</mgrwt>
</event>
<event>
12    3  0.1182097E-007  0.8348336E+03  0.7818608E-02  0.9510922E-01
         -4   -1    0    0    0  501 -0.00000000000E+00  0.00000000000E+00  0.38356799611E+03  0.38356799611E+03  0.00000000000E+00 0.  1.
          1   -1    0    0  501    0  0.00000000000E+00 -0.00000000000E+00 -0.28597252506E+04  0.28597252506E+04  0.00000000000E+00 0. -1.
        -24    2    1    2    0    0 -0.92067144325E+02  0.76444583879E+03 -0.25153636637E+03  0.81390208509E+03  0.79449738763E+02 0.  0.
    5000000    2    1    2    0    0  0.92067144325E+02 -0.76444583879E+03 -0.22246208882E+04  0.24293911616E+04  0.60012458770E+03 0.  0.
        -24    2    4    4    0    0 -0.15247515005E+03 -0.12963006451E+03 -0.20733068684E+03  0.29895117953E+03  0.79581210294E+02 0.  0.
         24    2    4    4    0    0  0.24454229438E+03 -0.63481577429E+03 -0.20172902013E+04  0.21304399821E+04  0.80763605900E+02 0.  0.
         11    1    3    3    0    0 -0.50801071209E+02  0.52018314549E+03 -0.20725923432E+03  0.56225229559E+03  0.00000000000E+00 0. -1.
        -12    1    3    3    0    0 -0.41266073116E+02  0.24426269331E+03 -0.44277132051E+02  0.25164978950E+03  0.00000000000E+00 0.  1.
         15    1    5    5    0    0 -0.29192720885E+02  0.82725181234E+01 -0.28582008494E+02  0.41722157751E+02  0.17770000000E+01 0. -1.
        -16    1    5    5    0    0 -0.12328242917E+03 -0.13790258263E+03 -0.17874867834E+03  0.25722902178E+03  0.00000000000E+00 0.  1.
          4    1    6    6  502    0  0.11131531121E+03 -0.19694699917E+03 -0.72647444269E+03  0.76088391682E+03  0.00000000000E+00 0. -1.
         -3    1    6    6    0  502  0.13322698317E+03 -0.43786877512E+03 -0.12908157586E+04  0.13695560653E+04  0.00000000000E+00 0.  1.
<mgrwt>
<rscale>  0 0.83483364E+03</rscale>
<asrwt>0</asrwt>
<pdfrwt beam="1">  1        1 0.43995772E+00 0.83483364E+03</pdfrwt>
<pdfrwt beam="2">  1       -4 0.59010462E-01 0.83483364E+03</pdfrwt>
<totfact> 0.10372723E+00</totfact>
</mgrwt>
</event>
<event>
12    3  0.1182097E-007  0.1057922E+04  0.7818608E-02  0.9247204E-01
          1   -1    0    0  501    0  0.00000000000E+00  0.00000000000E+00  0.12204114855E+04  0.12204114855E+04  0.00000000000E+00 0. -1.
         -2   -1    0    0    0  501 -0.00000000000E+00 -0.00000000000E+00 -0.10681684400E+04  0.10681684400E+04  0.00000000000E+00 0.  1.
        -24    2    1    2    0    0 -0.88904526886E+03  0.51547112618E+03  0.33704649143E+03  0.10843757172E+04  0.78475388959E+02 0.  0.
    5000000    2    1    2    0    0  0.88904526886E+03 -0.51547112618E+03 -0.18480344587E+03  0.12042042083E+04  0.59986956056E+03 0.  0.
        -24    2    4    4    0    0  0.19933006615E+03 -0.28888841724E+03 -0.29371064526E+03  0.46578933566E+03  0.86630070872E+02 0.  0.
         24    2    4    4    0    0  0.68971520270E+03 -0.22658270894E+03  0.10890719939E+03  0.73841487265E+03  0.79680369237E+02 0.  0.
         11    1    3    3    0    0 -0.65353549557E+02  0.21609813455E+02  0.37280496827E+02  0.78280942259E+02  0.00000000000E+00 0. -1.
        -12    1    3    3    0    0 -0.82369171930E+03  0.49386131272E+03  0.29976599460E+03  0.10060947749E+04  0.00000000000E+00 0.  1.
         15    1    5    5    0    0  0.13329980877E+03 -0.25168511101E+03 -0.24506071255E+03  0.37572881801E+03  0.17770000000E+01 0. -1.
        -16    1    5    5    0    0  0.66030257385E+02 -0.37203306237E+02 -0.48649932716E+02  0.90060517645E+02  0.00000000000E+00 0.  1.
          2    1    6    6  502    0  0.60027235246E+03 -0.19488842452E+03  0.12145289888E+03  0.64269681949E+03  0.00000000000E+00 0. -1.
         -1    1    6    6    0  502  0.89442850241E+02 -0.31694284415E+02 -0.12545699491E+02  0.95718053154E+02  0.00000000000E+00 0.  1.
<mgrwt>
<rscale>  0 0.10579215E+04</rscale>
<asrwt>0</asrwt>
<pdfrwt beam="1">  1        1 0.18775561E+00 0.10579215E+04</pdfrwt>
<pdfrwt beam="2">  1       -2 0.16433361E+00 0.10579215E+04</pdfrwt>
<totfact> 0.20981181E+00</totfact>
</mgrwt>
</event>
<event>
12    3  0.1182097E-007  0.4031505E+03  0.7818608E-02  0.1042694E+00
         -2   -1    0    0    0  501 -0.00000000000E+00  0.00000000000E+00  0.70850015886E+03  0.70850015886E+03  0.00000000000E+00 0.  1.
          1   -1    0    0  501    0  0.00000000000E+00 -0.00000000000E+00 -0.12729818789E+04  0.12729818789E+04  0.00000000000E+00 0. -1.
        -24    2    1    2    0    0 -0.46314495955E+01 -0.18260382208E+03  0.61486017895E+03  0.64571651127E+03  0.74371816616E+02 0.  0.
    5000000    2    1    2    0    0  0.46314495955E+01  0.18260382208E+03 -0.11793418990E+04  0.13357655265E+04  0.60004718221E+03 0.  0.
        -24    2    4    4    0    0  0.93382381081E+02  0.37817998402E+03 -0.71440791313E+03  0.81753286852E+03  0.78999717488E+02 0.  0.
         24    2    4    4    0    0 -0.88750931486E+02 -0.19557616195E+03 -0.46493398586E+03  0.51823265797E+03  0.79213089902E+02 0.  0.
         11    1    3    3    0    0 -0.23919511129E+02 -0.10493932410E+03  0.25001364297E+03  0.27219703603E+03  0.00000000000E+00 0. -1.
        -12    1    3    3    0    0  0.19288061534E+02 -0.77664497977E+02  0.36484653598E+03  0.37351947523E+03  0.00000000000E+00 0.  1.
         15    1    5    5    0    0  0.88967392651E+02  0.38031643848E+03 -0.69225361149E+03  0.79484212941E+03  0.17770000000E+01 0. -1.
        -16    1    5    5    0    0  0.44149884298E+01 -0.21364544577E+01 -0.22154301631E+02  0.22690739108E+02  0.00000000000E+00 0.  1.
          4    1    6    6  502    0 -0.78441263950E+02 -0.10034580060E+03 -0.20652115944E+03  0.24263820986E+03  0.00000000000E+00 0. -1.
         -3    1    6    6    0  502 -0.10309667536E+02 -0.95230361350E+02 -0.25841282643E+03  0.27559444811E+03  0.00000000000E+00 0.  1.
<mgrwt>
<rscale>  0 0.40315049E+03</rscale>
<asrwt>0</asrwt>
<pdfrwt beam="1">  1        1 0.19584336E+00 0.40315049E+03</pdfrwt>
<pdfrwt beam="2">  1       -2 0.10900003E+00 0.40315049E+03</pdfrwt>
<totfact> 0.61215790E+00</totfact>
</mgrwt>
</event>
<event>
12    3  0.1182097E-007  0.8780059E+03  0.7818608E-02  0.9453501E-01
          1   -1    0    0  501    0  0.00000000000E+00  0.00000000000E+00  0.80044043970E+03  0.80044043970E+03  0.00000000000E+00 0. -1.
         -2   -1    0    0    0  501 -0.00000000000E+00 -0.00000000000E+00 -0.12064025453E+04  0.12064025453E+04  0.00000000000E+00 0.  1.
        -24    2    1    2    0    0 -0.42363869233E+03 -0.71329327713E+03 -0.51087620770E+03  0.97763927007E+03  0.80789862904E+02 0.  0.
    5000000    2    1    2    0    0  0.42363869233E+03  0.71329327713E+03  0.10491410205E+03  0.10292037150E+04  0.59999689771E+03 0.  0.
        -24    2    4    4    0    0 -0.47447453512E+01 -0.43438285508E+02 -0.97198764962E+02  0.13289915162E+03  0.79405209747E+02 0.  0.
         24    2    4    4    0    0  0.42838343768E+03  0.75673156264E+03  0.20211286702E+03  0.89630456335E+03  0.79732250038E+02 0.  0.
         11    1    3    3    0    0 -0.23394051676E+03 -0.45633447463E+03 -0.28769746776E+03  0.58799587675E+03  0.00000000000E+00 0. -1.
        -12    1    3    3    0    0 -0.18969817557E+03 -0.25695880250E+03 -0.22317873994E+03  0.38964339332E+03  0.00000000000E+00 0.  1.
         15    1    5    5    0    0  0.42158296925E+01 -0.44197605106E+02 -0.10398482644E+02  0.45634281931E+02  0.17770000000E+01 0. -1.
        -16    1    5    5    0    0 -0.89605750437E+01  0.75931959735E+00 -0.86800282318E+02  0.87264869689E+02  0.00000000000E+00 0.  1.
          2    1    6    6  502    0  0.62519865970E+02  0.85507170220E+02  0.13987920975E+01  0.10593472716E+03  0.00000000000E+00 0. -1.
         -1    1    6    6    0  502  0.36586357171E+03  0.67122439242E+03  0.20071407492E+03  0.79036983619E+03  0.00000000000E+00 0.  1.
<mgrwt>
<rscale>  0 0.87800594E+03</rscale>
<asrwt>0</asrwt>
<pdfrwt beam="1">  1        1 0.12314468E+00 0.87800594E+03</pdfrwt>
<pdfrwt beam="2">  1       -2 0.18560039E+00 0.87800594E+03</pdfrwt>
<totfact> 0.32447793E+00</totfact>
</mgrwt>
</event>
<event>
12    3  0.1182097E-007  0.4591664E+03  0.7818608E-02  0.1025023E+00
          1   -1    0    0  501    0  0.00000000000E+00  0.00000000000E+00  0.18554145442E+04  0.18554145442E+04  0.00000000000E+00 0. -1.
         -2   -1    0    0    0  501 -0.00000000000E+00 -0.00000000000E+00 -0.17380959867E+03  0.17380959867E+03  0.00000000000E+00 0.  1.
        -24    2    1    2    0    0 -0.33767155206E+03 -0.15660148862E+03  0.32746429827E+03  0.50206220406E+03  0.79293674365E+02 0.  0.
    5000000    2    1    2    0    0  0.33767155206E+03  0.15660148862E+03  0.13541406472E+04  0.15271619388E+04  0.59998382600E+03 0.  0.
        -24    2    4    4    0    0  0.42085126884E+03  0.79692651298E+02  0.50602406461E+03  0.66772148065E+03  0.79529319194E+02 0.  0.
         24    2    4    4    0    0 -0.83179716776E+02  0.76908837319E+02  0.84811658261E+03  0.85944045811E+03  0.80637018808E+02 0.  0.
         11    1    3    3    0    0 -0.19496454315E+03 -0.77076232889E+02  0.23264399657E+03  0.31316951944E+03  0.00000000000E+00 0. -1.
        -12    1    3    3    0    0 -0.14270700891E+03 -0.79525255727E+02  0.94820301703E+02  0.18889268462E+03  0.00000000000E+00 0.  1.
         15    1    5    5    0    0  0.41293423457E+03  0.73028998885E+02  0.46834772115E+03  0.62864987265E+03  0.17770000000E+01 0. -1.
        -16    1    5    5    0    0  0.79170342694E+01  0.66636524121E+01  0.37676343458E+02  0.39071607997E+02  0.00000000000E+00 0.  1.
          4    1    6    6  502    0 -0.79097157782E+02  0.62982108987E+02  0.83042573947E+03  0.83655843502E+03  0.00000000000E+00 0. -1.
         -3    1    6    6    0  502 -0.40825589934E+01  0.13926728332E+02  0.17690843135E+02  0.22882023092E+02  0.00000000000E+00 0.  1.
<mgrwt>
<rscale>  0 0.45916641E+03</rscale>
<asrwt>0</asrwt>
<pdfrwt beam="1">  1        1 0.28544838E+00 0.45916641E+03</pdfrwt>
<pdfrwt beam="2">  1       -2 0.26739940E-01 0.45916641E+03</pdfrwt>
<totfact> 0.44747961E+01</totfact>
</mgrwt>
</event>
<event>
12    3  0.1182097E-007  0.6283391E+03  0.7818608E-02  0.9848295E-01
          1   -1    0    0  501    0  0.00000000000E+00  0.00000000000E+00  0.34294448886E+04  0.34294448886E+04  0.00000000000E+00 0. -1.
         -2   -1    0    0    0  501 -0.00000000000E+00 -0.00000000000E+00 -0.16066399018E+03  0.16066399018E+03  0.00000000000E+00 0.  1.
        -24    2    1    2    0    0 -0.59438526948E+03 -0.16555684440E+03  0.14583062081E+04  0.15854692827E+04  0.79705285143E+02 0.  0.
    5000000    2    1    2    0    0  0.59438526948E+03  0.16555684440E+03  0.18104746903E+04  0.20046395961E+04  0.60004865520E+03 0.  0.
        -24    2    4    4    0    0  0.40964145744E+03  0.19005960652E+03  0.49949111517E+03  0.67797580372E+03  0.78936928087E+02 0.  0.
         24    2    4    4    0    0  0.18474381204E+03 -0.24502762127E+02  0.13109835751E+04  0.13266637923E+04  0.81413894512E+02 0.  0.
         11    1    3    3    0    0 -0.13010896497E+03 -0.19293577539E+02  0.24321773968E+03  0.27650579342E+03  0.00000000000E+00 0. -1.
        -12    1    3    3    0    0 -0.46427630451E+03 -0.14626326686E+03  0.12150884684E+04  0.13089634893E+04  0.00000000000E+00 0.  1.
         15    1    5    5    0    0  0.16598578153E+03  0.83587100323E+02  0.15001487608E+03  0.23884242460E+03  0.17770000000E+01 0. -1.
        -16    1    5    5    0    0  0.24365567591E+03  0.10647250620E+03  0.34947623908E+03  0.43913337912E+03  0.00000000000E+00 0.  1.
          4    1    6    6  502    0  0.23718255531E+02 -0.64913861966E+01  0.44328462650E+03  0.44396616293E+03  0.00000000000E+00 0. -1.
         -3    1    6    6    0  502  0.16102555651E+03 -0.18011375931E+02  0.86769894862E+03  0.88269762940E+03  0.00000000000E+00 0.  1.
<mgrwt>
<rscale>  0 0.62833913E+03</rscale>
<asrwt>0</asrwt>
<pdfrwt beam="1">  1        1 0.52760685E+00 0.62833913E+03</pdfrwt>
<pdfrwt beam="2">  1       -2 0.24717539E-01 0.62833913E+03</pdfrwt>
<totfact> 0.40298879E+00</totfact>
</mgrwt>
</event>
<event>
12    3  0.1182097E-007  0.6809225E+03  0.7818608E-02  0.9750425E-01
          1   -1    0    0  501    0  0.00000000000E+00  0.00000000000E+00  0.56813151967E+03  0.56813151967E+03  0.00000000000E+00 0. -1.
         -2   -1    0    0    0  501 -0.00000000000E+00 -0.00000000000E+00 -0.10137707622E+04  0.10137707622E+04  0.00000000000E+00 0.  1.
        -24    2    1    2    0    0 -0.22025571593E+03 -0.59398929499E+03 -0.26152661025E+03  0.69001890120E+03  0.79962823738E+02 0.  0.
    5000000    2    1    2    0    0  0.22025571593E+03  0.59398929499E+03 -0.18411263224E+03  0.89188338063E+03  0.60018550493E+03 0.  0.
        -24    2    4    4    0    0 -0.81097570255E+02  0.23074366852E+03  0.15909629216E+03  0.30300295197E+03  0.81729445459E+02 0.  0.
         24    2    4    4    0    0  0.30135328619E+03  0.36324562647E+03 -0.34320892440E+03  0.58888042867E+03  0.78908841286E+02 0.  0.
         13    1    3    3    0    0 -0.17106913535E+03 -0.35435690204E+03 -0.17339723256E+03  0.43000007366E+03  0.00000000000E+00 0. -1.
        -14    1    3    3    0    0 -0.49186580585E+02 -0.23963239295E+03 -0.88129377689E+02  0.26001882754E+03  0.00000000000E+00 0.  1.
         15    1    5    5    0    0 -0.64248992636E+02  0.20641821421E+03  0.16605442859E+03  0.27260528828E+03  0.17770000000E+01 0. -1.
        -16    1    5    5    0    0 -0.16848577619E+02  0.24325454310E+02 -0.69581364261E+01  0.30397663688E+02  0.00000000000E+00 0.  1.
          4    1    6    6  502    0  0.72963441782E+02  0.43299165313E+02 -0.50084061995E+02  0.98523574942E+02  0.00000000000E+00 0. -1.
         -3    1    6    6    0  502  0.22838984441E+03  0.31994646116E+03 -0.29312486241E+03  0.49035685373E+03  0.00000000000E+00 0.  1.
<mgrwt>
<rscale>  0 0.68092250E+03</rscale>
<asrwt>0</asrwt>
<pdfrwt beam="1">  1        1 0.87404851E-01 0.68092250E+03</pdfrwt>
<pdfrwt beam="2">  1       -2 0.15596473E+00 0.68092250E+03</pdfrwt>
<totfact> 0.90052789E+00</totfact>
</mgrwt>
</event>
<event>
12    3  0.1182097E-007  0.8044577E+03  0.7818608E-02  0.9553587E-01
         -4   -1    0    0    0  501 -0.00000000000E+00  0.00000000000E+00  0.71175962940E+03  0.71175962940E+03  0.00000000000E+00 0.  1.
          3   -1    0    0  501    0  0.00000000000E+00 -0.00000000000E+00 -0.95633267837E+03  0.95633267837E+03  0.00000000000E+00 0. -1.
        -24    2    1    2    0    0  0.23116513154E+03  0.66023376792E+03  0.33375553319E+02  0.70519842167E+03  0.82734152717E+02 0.  0.
    5000000    2    1    2    0    0 -0.23116513154E+03 -0.66023376792E+03 -0.27794860229E+03  0.96289388609E+03  0.60046920323E+03 0.  0.
        -24    2    4    4    0    0 -0.13967959444E+03  0.64073476894E+02 -0.12138672379E+03  0.21138318002E+03  0.79575828877E+02 0.  0.
         24    2    4    4    0    0 -0.91485537104E+02 -0.72430724481E+03 -0.15656187850E+03  0.75151070607E+03  0.85241604580E+02 0.  0.
         11    1    3    3    0    0  0.15996256154E+03  0.33326855725E+03  0.11297579978E+02  0.36984265257E+03  0.00000000000E+00 0. -1.
        -12    1    3    3    0    0  0.71202570003E+02  0.32696521067E+03  0.22077973341E+02  0.33535576910E+03  0.00000000000E+00 0.  1.
         15    1    5    5    0    0 -0.67872502974E+02 -0.98280223003E+01 -0.61907009063E+02  0.92406180434E+02  0.17770000000E+01 0. -1.
        -16    1    5    5    0    0 -0.71807091464E+02  0.73901499194E+02 -0.59479714726E+02  0.11897699959E+03  0.00000000000E+00 0.  1.
          4    1    6    6  502    0 -0.97102750692E+02 -0.54543094601E+03 -0.93993266199E+02  0.56192401190E+03  0.00000000000E+00 0. -1.
         -1    1    6    6    0  502  0.56172135872E+01 -0.17887629880E+03 -0.62568612298E+02  0.18958669417E+03  0.00000000000E+00 0.  1.
<mgrwt>
<rscale>  0 0.80445771E+03</rscale>
<asrwt>0</asrwt>
<pdfrwt beam="1">  1        3 0.14712810E+00 0.80445771E+03</pdfrwt>
<pdfrwt beam="2">  1       -4 0.10950148E+00 0.80445771E+03</pdfrwt>
<totfact> 0.50611160E-01</totfact>
</mgrwt>
</event>
<event>
12    3  0.1182097E-007  0.1037280E+04  0.7818608E-02  0.9268576E-01
          1   -1    0    0  501    0  0.00000000000E+00  0.00000000000E+00  0.76299875560E+03  0.76299875560E+03  0.00000000000E+00 0. -1.
         -2   -1    0    0    0  501 -0.00000000000E+00 -0.00000000000E+00 -0.14747934495E+04  0.14747934495E+04  0.00000000000E+00 0.  1.
        -24    2    1    2    0    0 -0.49771127003E+03  0.83659471726E+03 -0.28773092865E+03  0.10182380638E+04  0.80077699578E+02 0.  0.
    5000000    2    1    2    0    0  0.49771127003E+03 -0.83659471726E+03 -0.42406376526E+03  0.12195541413E+04  0.59989582206E+03 0.  0.
        -24    2    4    4    0    0  0.35371216030E+02 -0.53375037189E+03 -0.37758169412E+03  0.65962877516E+03  0.80010017332E+02 0.  0.
         24    2    4    4    0    0  0.46234005400E+03 -0.30284434537E+03 -0.46482071143E+02  0.55992536615E+03  0.76699476292E+02 0.  0.
         11    1    3    3    0    0 -0.26659432773E+03  0.52434725101E+03 -0.17750950518E+03  0.61442835193E+03  0.00000000000E+00 0. -1.
        -12    1    3    3    0    0 -0.23111694231E+03  0.31224746625E+03 -0.11022142346E+03  0.40380971186E+03  0.00000000000E+00 0.  1.
         15    1    5    5    0    0  0.61052531724E+02 -0.37336914213E+03 -0.25789180198E+03  0.45786817664E+03  0.17770000000E+01 0. -1.
        -16    1    5    5    0    0 -0.25681315694E+02 -0.16038122976E+03 -0.11968989213E+03  0.20176059852E+03  0.00000000000E+00 0.  1.
          4    1    6    6  502    0  0.35139264165E+03 -0.26412949457E+03 -0.49559595643E+02  0.44237691172E+03  0.00000000000E+00 0. -1.
         -3    1    6    6    0  502  0.11094741236E+03 -0.38714850796E+02  0.30775245002E+01  0.11754845443E+03  0.00000000000E+00 0.  1.
<mgrwt>
<rscale>  0 0.10372804E+04</rscale>
<asrwt>0</asrwt>
<pdfrwt beam="1">  1        1 0.11738443E+00 0.10372804E+04</pdfrwt>
<pdfrwt beam="2">  1       -2 0.22689130E+00 0.10372804E+04</pdfrwt>
<totfact> 0.18586745E+00</totfact>
</mgrwt>
</event>
<event>
12    3  0.1182097E-007  0.8369459E+03  0.7818608E-02  0.9508027E-01
          1   -1    0    0  501    0  0.00000000000E+00  0.00000000000E+00  0.16612834713E+04  0.16612834713E+04  0.00000000000E+00 0. -1.
         -2   -1    0    0    0  501 -0.00000000000E+00 -0.00000000000E+00 -0.46968582185E+03  0.46968582185E+03  0.00000000000E+00 0.  1.
        -24    2    1    2    0    0 -0.74933982760E+03  0.35750027559E+02  0.27409130676E+03  0.80255085924E+03  0.78572231315E+02 0.  0.
    5000000    2    1    2    0    0  0.74933982760E+03 -0.35750027559E+02  0.91750634269E+03  0.13284184339E+04  0.60007449952E+03 0.  0.
        -24    2    4    4    0    0  0.31174478937E+02  0.15490383278E+03  0.51934174650E+02  0.18500694440E+03  0.81014600131E+02 0.  0.
         24    2    4    4    0    0  0.71816534866E+03 -0.19065386034E+03  0.86557216804E+03  0.11434114895E+04  0.77873575489E+02 0.  0.
         13    1    3    3    0    0 -0.57369183094E+03  0.20893521015E+02  0.24377970345E+03  0.62368854400E+03  0.00000000000E+00 0. -1.
        -14    1    3    3    0    0 -0.17564799666E+03  0.14856506544E+02  0.30311603304E+02  0.17886231524E+03  0.00000000000E+00 0.  1.
         15    1    5    5    0    0 -0.18411427145E+02  0.47888006179E+01  0.19768891318E+01  0.19208828193E+02  0.17770000000E+01 0. -1.
        -16    1    5    5    0    0  0.49585906082E+02  0.15011503216E+03  0.49957285518E+02  0.16579811621E+03  0.00000000000E+00 0.  1.
          4    1    6    6  502    0  0.15803160138E+02 -0.16221388514E+02  0.18151561480E+02  0.29023309595E+02  0.00000000000E+00 0. -1.
         -3    1    6    6    0  502  0.70236218852E+03 -0.17443247182E+03  0.84742060656E+03  0.11143881799E+04  0.00000000000E+00 0.  1.
<mgrwt>
<rscale>  0 0.83694595E+03</rscale>
<asrwt>0</asrwt>
<pdfrwt beam="1">  1        1 0.25558207E+00 0.83694595E+03</pdfrwt>
<pdfrwt beam="2">  1       -2 0.72259358E-01 0.83694595E+03</pdfrwt>
<totfact> 0.78892601E+00</totfact>
</mgrwt>
</event>
<event>
12    3  0.1182097E-007  0.1304926E+04  0.7818608E-02  0.9025668E-01
         -2   -1    0    0    0  501 -0.00000000000E+00  0.00000000000E+00  0.52166994673E+03  0.52166994673E+03  0.00000000000E+00 0.  1.
          1   -1    0    0  501    0  0.00000000000E+00 -0.00000000000E+00 -0.42046735457E+04  0.42046735457E+04  0.00000000000E+00 0. -1.
        -24    2    1    2    0    0  0.11447325154E+04  0.47197241563E+03 -0.28730982239E+04  0.31295508474E+04  0.78896196247E+02 0.  0.
    5000000    2    1    2    0    0 -0.11447325154E+04 -0.47197241563E+03 -0.80990537512E+03  0.15967926450E+04  0.60052438872E+03 0.  0.
        -24    2    4    4    0    0 -0.92221451426E+02 -0.27576505985E+03 -0.20545372932E+03  0.36490081183E+03  0.79938746851E+02 0.  0.
         24    2    4    4    0    0 -0.10525110640E+04 -0.19620735578E+03 -0.60445164580E+03  0.12318918332E+04  0.76933933863E+02 0.  0.
         13    1    3    3    0    0  0.98281123403E+03  0.42047153094E+03 -0.24174103170E+04  0.26432152524E+04  0.00000000000E+00 0. -1.
        -14    1    3    3    0    0  0.16192128141E+03  0.51500884690E+02 -0.45568790689E+03  0.48633559502E+03  0.00000000000E+00 0.  1.
         15    1    5    5    0    0 -0.98356613167E+02 -0.21207441616E+03 -0.18369935804E+03  0.29731833650E+03  0.17770000000E+01 0. -1.
        -16    1    5    5    0    0  0.61351617407E+01 -0.63690643685E+02 -0.21754371283E+02  0.67582475336E+02  0.00000000000E+00 0.  1.
          4    1    6    6  502    0 -0.59461674609E+03 -0.14807668190E+03 -0.35716807548E+03  0.70927062014E+03  0.00000000000E+00 0. -1.
         -3    1    6    6    0  502 -0.45789431792E+03 -0.48130673886E+02 -0.24728357032E+03  0.52262121302E+03  0.00000000000E+00 0.  1.
<mgrwt>
<rscale>  0 0.13049256E+04</rscale>
<asrwt>0</asrwt>
<pdfrwt beam="1">  1        1 0.64687285E+00 0.13049256E+04</pdfrwt>
<pdfrwt beam="2">  1       -2 0.80256915E-01 0.13049256E+04</pdfrwt>
<totfact> 0.75619104E-02</totfact>
</mgrwt>
</event>
<event>
12    3  0.1182097E-007  0.1372630E+04  0.7818608E-02  0.8973872E-01
          1   -1    0    0  501    0  0.00000000000E+00  0.00000000000E+00  0.20414938014E+04  0.20414938014E+04  0.00000000000E+00 0. -1.
         -2   -1    0    0    0  501 -0.00000000000E+00 -0.00000000000E+00 -0.95677498351E+03  0.95677498351E+03  0.00000000000E+00 0.  1.
        -24    2    1    2    0    0 -0.10029530411E+04  0.87062433077E+03  0.62595676842E+03  0.14703895454E+04  0.79511077323E+02 0.  0.
    5000000    2    1    2    0    0  0.10029530411E+04 -0.87062433077E+03  0.45876204951E+03  0.15278792395E+04  0.60004235231E+03 0.  0.
        -24    2    4    4    0    0  0.40516461687E+03 -0.67159035048E+03  0.41431682624E+03  0.89118971948E+03  0.85841237085E+02 0.  0.
         24    2    4    4    0    0  0.59778842421E+03 -0.19903398029E+03  0.44445223273E+02  0.63668952005E+03  0.80203750749E+02 0.  0.
         11    1    3    3    0    0 -0.62998681967E+03  0.58831663389E+03  0.38191277865E+03  0.94279224920E+03  0.00000000000E+00 0. -1.
        -12    1    3    3    0    0 -0.37296622141E+03  0.28230769688E+03  0.24404398977E+03  0.52759729622E+03  0.00000000000E+00 0.  1.
         15    1    5    5    0    0  0.15639784021E+03 -0.22542528689E+03  0.18717050194E+03  0.33213370639E+03  0.17770000000E+01 0. -1.
        -16    1    5    5    0    0  0.24876677666E+03 -0.44616506359E+03  0.22714632430E+03  0.55905601310E+03  0.00000000000E+00 0.  1.
          2    1    6    6  502    0  0.15120213090E+03 -0.41949925821E+02  0.45154671140E+02  0.16328142880E+03  0.00000000000E+00 0. -1.
         -1    1    6    6    0  502  0.44658629331E+03 -0.15708405446E+03 -0.70944786672E+00  0.47340809125E+03  0.00000000000E+00 0.  1.
<mgrwt>
<rscale>  0 0.13726303E+04</rscale>
<asrwt>0</asrwt>
<pdfrwt beam="1">  1        1 0.31407597E+00 0.13726303E+04</pdfrwt>
<pdfrwt beam="2">  1       -2 0.14719615E+00 0.13726303E+04</pdfrwt>
<totfact> 0.74014471E-01</totfact>
</mgrwt>
</event>
<event>
12    3  0.1182097E-007  0.1312135E+04  0.7818608E-02  0.9019997E-01
          1   -1    0    0  501    0  0.00000000000E+00  0.00000000000E+00  0.43052841634E+04  0.43052841634E+04  0.00000000000E+00 0. -1.
         -2   -1    0    0    0  501 -0.00000000000E+00 -0.00000000000E+00 -0.82831886336E+03  0.82831886336E+03  0.00000000000E+00 0.  1.
        -24    2    1    2    0    0  0.62150532622E+03 -0.11212844072E+04 -0.98341662397E+02  0.12881983538E+04  0.78970399322E+02 0.  0.
    5000000    2    1    2    0    0 -0.62150532622E+03  0.11212844072E+04  0.35753069624E+04  0.38454046729E+04  0.60064101659E+03 0.  0.
        -24    2    4    4    0    0 -0.47801450948E+03  0.46761367058E+03  0.23785149729E+04  0.24718437727E+04  0.74281519419E+02 0.  0.
         24    2    4    4    0    0 -0.14349081673E+03  0.65367073658E+03  0.11967919895E+04  0.13735609003E+04  0.80519774732E+02 0.  0.
         13    1    3    3    0    0  0.47699192070E+03 -0.83752360316E+03 -0.41483773821E+02  0.96472171207E+03  0.00000000000E+00 0. -1.
        -14    1    3    3    0    0  0.14451340552E+03 -0.28376080400E+03 -0.56857888575E+02  0.32347664175E+03  0.00000000000E+00 0.  1.
         15    1    5    5    0    0 -0.19689792359E+03  0.22510278672E+03  0.11674712785E+04  0.12051690341E+04  0.17770000000E+01 0. -1.
        -16    1    5    5    0    0 -0.28111658590E+03  0.24251088385E+03  0.12110436944E+04  0.12666747386E+04  0.00000000000E+00 0.  1.
          4    1    6    6  502    0 -0.59143245161E+02  0.15482660118E+03  0.24750384955E+03  0.29787137396E+03  0.00000000000E+00 0. -1.
         -3    1    6    6    0  502 -0.84347571572E+02  0.49884413541E+03  0.94928813999E+03  0.10756895263E+04  0.00000000000E+00 0.  1.
<mgrwt>
<rscale>  0 0.13121346E+04</rscale>
<asrwt>0</asrwt>
<pdfrwt beam="1">  1        1 0.66235140E+00 0.13121346E+04</pdfrwt>
<pdfrwt beam="2">  1       -2 0.12743367E+00 0.13121346E+04</pdfrwt>
<totfact> 0.20080545E-02</totfact>
</mgrwt>
</event>
<event>
12    3  0.1182097E-007  0.1002601E+04  0.7818608E-02  0.9305697E-01
         -2   -1    0    0    0  501 -0.00000000000E+00  0.00000000000E+00  0.50769402760E+03  0.50769402760E+03  0.00000000000E+00 0.  1.
          1   -1    0    0  501    0  0.00000000000E+00 -0.00000000000E+00 -0.22780164338E+04  0.22780164338E+04  0.00000000000E+00 0. -1.
        -24    2    1    2    0    0  0.41165307391E+03  0.89347631195E+03 -0.96102345011E+03  0.13775817773E+04  0.80045663754E+02 0.  0.
    5000000    2    1    2    0    0 -0.41165307391E+03 -0.89347631195E+03 -0.80929895612E+03  0.14081286841E+04  0.60008617494E+03 0.  0.
        -24    2    4    4    0    0 -0.26740707647E+03 -0.32009370309E+03 -0.29223647165E+02  0.42589415917E+03  0.81026476915E+02 0.  0.
         24    2    4    4    0    0 -0.14424599744E+03 -0.57338260887E+03 -0.78007530895E+03  0.98223452494E+03  0.81808620644E+02 0.  0.
         11    1    3    3    0    0  0.73047827278E+02  0.98126744787E+02 -0.10929996780E+03  0.16404671918E+03  0.00000000000E+00 0. -1.
        -12    1    3    3    0    0  0.33860524663E+03  0.79534956717E+03 -0.85172348231E+03  0.12135350582E+04  0.00000000000E+00 0.  1.
         15    1    5    5    0    0 -0.39516495234E+02 -0.96557064389E+02  0.72395051956E+01  0.10459631085E+03  0.17770000000E+01 0. -1.
        -16    1    5    5    0    0 -0.22789058123E+03 -0.22353663870E+03 -0.36463152361E+02  0.32129784832E+03  0.00000000000E+00 0.  1.
          4    1    6    6  502    0 -0.11232335229E+03 -0.31299470465E+03 -0.39581859313E+03  0.51696671003E+03  0.00000000000E+00 0. -1.
         -3    1    6    6    0  502 -0.31922645145E+02 -0.26038790422E+03 -0.38425671582E+03  0.46526781491E+03  0.00000000000E+00 0.  1.
<mgrwt>
<rscale>  0 0.10026011E+04</rscale>
<asrwt>0</asrwt>
<pdfrwt beam="1">  1        1 0.35046406E+00 0.10026011E+04</pdfrwt>
<pdfrwt beam="2">  1       -2 0.78106775E-01 0.10026011E+04</pdfrwt>
<totfact> 0.24948765E+00</totfact>
</mgrwt>
</event>
<event>
12    3  0.1182097E-007  0.8576172E+03  0.7818608E-02  0.9480170E-01
          1   -1    0    0  501    0  0.00000000000E+00  0.00000000000E+00  0.27003576771E+04  0.27003576771E+04  0.00000000000E+00 0. -1.
         -2   -1    0    0    0  501 -0.00000000000E+00 -0.00000000000E+00 -0.29338851777E+03  0.29338851777E+03  0.00000000000E+00 0.  1.
        -24    2    1    2    0    0  0.77670944181E+03 -0.11150996493E+03  0.97321632695E+03  0.12526691801E+04  0.79486013821E+02 0.  0.
    5000000    2    1    2    0    0 -0.77670944181E+03  0.11150996493E+03  0.14337528323E+04  0.17410770148E+04  0.59999163145E+03 0.  0.
        -24    2    4    4    0    0 -0.28981753910E+03  0.28453559608E+03  0.36701124854E+03  0.55303922010E+03  0.78742688573E+02 0.  0.
         24    2    4    4    0    0 -0.48689190271E+03 -0.17302563116E+03  0.10667415838E+04  0.11880377947E+04  0.80589087207E+02 0.  0.
         11    1    3    3    0    0  0.31630425139E+03 -0.81166632269E+02  0.37689316300E+03  0.49868312379E+03  0.00000000000E+00 0. -1.
        -12    1    3    3    0    0  0.46040519043E+03 -0.30343332658E+02  0.59632316395E+03  0.75398605628E+03  0.00000000000E+00 0.  1.
         15    1    5    5    0    0 -0.14420600436E+03  0.17871640267E+03  0.24367651015E+03  0.33483775714E+03  0.17770000000E+01 0. -1.
        -16    1    5    5    0    0 -0.14561153475E+03  0.10581919341E+03  0.12333473839E+03  0.21820146296E+03  0.00000000000E+00 0.  1.
          4    1    6    6  502    0 -0.22494287162E+03 -0.63758739988E+02  0.56715494741E+03  0.61345676848E+03  0.00000000000E+00 0. -1.
         -3    1    6    6    0  502 -0.26194903108E+03 -0.10926689117E+03  0.49958663639E+03  0.57458102619E+03  0.00000000000E+00 0.  1.
<mgrwt>
<rscale>  0 0.85761720E+03</rscale>
<asrwt>0</asrwt>
<pdfrwt beam="1">  1        1 0.41543963E+00 0.85761720E+03</pdfrwt>
<pdfrwt beam="2">  1       -2 0.45136697E-01 0.85761720E+03</pdfrwt>
<totfact> 0.41724019E+00</totfact>
</mgrwt>
</event>
<event>
12    3  0.1182097E-007  0.9343719E+03  0.7818608E-02  0.9383606E-01
          1   -1    0    0  501    0  0.00000000000E+00  0.00000000000E+00  0.15721510755E+04  0.15721510755E+04  0.00000000000E+00 0. -1.
         -2   -1    0    0    0  501 -0.00000000000E+00 -0.00000000000E+00 -0.73683591032E+03  0.73683591032E+03  0.00000000000E+00 0.  1.
        -24    2    1    2    0    0  0.25414577939E+03 -0.88959903931E+03  0.76615733253E+03  0.12040737123E+04  0.82582798737E+02 0.  0.
    5000000    2    1    2    0    0 -0.25414577939E+03  0.88959903931E+03  0.69157832626E+02  0.11049132734E+04  0.60006167023E+03 0.  0.
        -24    2    4    4    0    0 -0.99125210019E+02  0.27942071442E+03  0.29972719846E+03  0.42967807084E+03  0.82976551831E+02 0.  0.
         24    2    4    4    0    0 -0.15502056938E+03  0.61017832489E+03 -0.23056936584E+03  0.67523520260E+03  0.80195893123E+02 0.  0.
         13    1    3    3    0    0  0.16500333727E+03 -0.67386382316E+03  0.54124522791E+03  0.87992326382E+03  0.00000000000E+00 0. -1.
        -14    1    3    3    0    0  0.89142442123E+02 -0.21573521615E+03  0.22491210463E+03  0.32415044853E+03  0.00000000000E+00 0.  1.
         15    1    5    5    0    0  0.14048875923E+02  0.35247447291E+02  0.47614165114E+02  0.60909932719E+02  0.17770000000E+01 0. -1.
        -16    1    5    5    0    0 -0.11317408594E+03  0.24417326713E+03  0.25211303335E+03  0.36876813812E+03  0.00000000000E+00 0.  1.
          4    1    6    6  502    0 -0.10649275394E+03  0.26084616235E+03 -0.11115502368E+03  0.30288094418E+03  0.00000000000E+00 0. -1.
         -3    1    6    6    0  502 -0.48527815434E+02  0.34933216254E+03 -0.11941434216E+03  0.37235425843E+03  0.00000000000E+00 0.  1.
<mgrwt>
<rscale>  0 0.93437189E+03</rscale>
<asrwt>0</asrwt>
<pdfrwt beam="1">  1        1 0.24186940E+00 0.93437189E+03</pdfrwt>
<pdfrwt beam="2">  1       -2 0.11335937E+00 0.93437189E+03</pdfrwt>
<totfact> 0.31513687E+00</totfact>
</mgrwt>
</event>
<event>
12    3  0.1182097E-007  0.7065878E+03  0.7818608E-02  0.9706032E-01
         -2   -1    0    0    0  501 -0.00000000000E+00  0.00000000000E+00  0.75509699113E+03  0.75509699113E+03  0.00000000000E+00 0.  1.
          1   -1    0    0  501    0  0.00000000000E+00 -0.00000000000E+00 -0.19291639720E+04  0.19291639720E+04  0.00000000000E+00 0. -1.
        -24    2    1    2    0    0 -0.30913202898E+03 -0.52692197610E+03 -0.16096652742E+04  0.17235648717E+04  0.80275724055E+02 0.  0.
    5000000    2    1    2    0    0  0.30913202898E+03  0.52692197610E+03  0.43559829329E+03  0.96069609143E+03  0.59998477208E+03 0.  0.
        -24    2    4    4    0    0 -0.30029562344E+02  0.44326621874E+03  0.87545348061E+02  0.46004331569E+03  0.81172341692E+02 0.  0.
         24    2    4    4    0    0  0.33916159133E+03  0.83655757358E+02  0.34805294523E+03  0.50065277574E+03  0.86507100286E+02 0.  0.
         13    1    3    3    0    0 -0.26721163995E+03 -0.44162131228E+03 -0.12709492911E+04  0.13717665780E+04  0.00000000000E+00 0. -1.
        -14    1    3    3    0    0 -0.41920389031E+02 -0.85300663816E+02 -0.33871598304E+03  0.35179829367E+03  0.00000000000E+00 0.  1.
         15    1    5    5    0    0 -0.46333064244E+02  0.15998853476E+03  0.49409236131E+02  0.17374554510E+03  0.17770000000E+01 0. -1.
        -16    1    5    5    0    0  0.16303501900E+02  0.28327768398E+03  0.38136111931E+02  0.28629777059E+03  0.00000000000E+00 0.  1.
          2    1    6    6  502    0  0.11531578097E+03  0.89632026860E+01  0.66993183578E+02  0.13366433701E+03  0.00000000000E+00 0. -1.
         -1    1    6    6    0  502  0.22384581036E+03  0.74692554672E+02  0.28105976165E+03  0.36698843873E+03  0.00000000000E+00 0.  1.
<mgrwt>
<rscale>  0 0.70658778E+03</rscale>
<asrwt>0</asrwt>
<pdfrwt beam="1">  1        1 0.29679446E+00 0.70658778E+03</pdfrwt>
<pdfrwt beam="2">  1       -2 0.11616877E+00 0.70658778E+03</pdfrwt>
<totfact> 0.17673975E+00</totfact>
</mgrwt>
</event>
<event>
12    3  0.1197341E-007  0.1038430E+04  0.7818608E-02  0.9267371E-01
          1   -1    0    0  501    0  0.00000000000E+00  0.00000000000E+00  0.16429099753E+04  0.16429099753E+04  0.00000000000E+00 0. -1.
         -2   -1    0    0    0  501 -0.00000000000E+00 -0.00000000000E+00 -0.75481577710E+03  0.75481577710E+03  0.00000000000E+00 0.  1.
        -24    2    1    2    0    0  0.99493164883E+03 -0.26259445142E+03  0.48418165320E+03  0.11399553708E+04  0.78876754058E+02 0.  0.
    5000000    2    1    2    0    0 -0.99493164883E+03  0.26259445142E+03  0.40391254504E+03  0.12577703816E+04  0.59999679762E+03 0.  0.
        -24    2    4    4    0    0 -0.40631643529E+03  0.29402705904E+02  0.45862278300E+03  0.61747100689E+03  0.70555103093E+02 0.  0.
         24    2    4    4    0    0 -0.58861521354E+03  0.23319174552E+03 -0.54710237959E+02  0.64029937476E+03  0.78382519643E+02 0.  0.
         11    1    3    3    0    0  0.32125131230E+03 -0.81174190338E+02  0.11586312321E+03  0.35102125028E+03  0.00000000000E+00 0. -1.
        -12    1    3    3    0    0  0.67368033653E+03 -0.18142026108E+03  0.36831852999E+03  0.78893412050E+03  0.00000000000E+00 0.  1.
         15    1    5    5    0    0 -0.31566329232E+03  0.35073562491E+01  0.31733856127E+03  0.44761873940E+03  0.17770000000E+01 0. -1.
        -16    1    5    5    0    0 -0.90653142971E+02  0.25895349655E+02  0.14128422172E+03  0.16985226749E+03  0.00000000000E+00 0.  1.
          4    1    6    6  502    0 -0.34242214614E+03  0.94185033703E+02 -0.25032670432E+02  0.35602019793E+03  0.00000000000E+00 0. -1.
         -3    1    6    6    0  502 -0.24619306740E+03  0.13900671181E+03 -0.29677567527E+02  0.28427917683E+03  0.00000000000E+00 0.  1.
<mgrwt>
<rscale>  0 0.10384304E+04</rscale>
<asrwt>0</asrwt>
<pdfrwt beam="1">  1        1 0.25275538E+00 0.10384304E+04</pdfrwt>
<pdfrwt beam="2">  1       -2 0.11612550E+00 0.10384304E+04</pdfrwt>
<totfact> 0.26245835E+00</totfact>
</mgrwt>
</event>
<event>
12    3  0.1182097E-007  0.5659102E+03  0.7818608E-02  0.9978770E-01
         -2   -1    0    0    0  501 -0.00000000000E+00  0.00000000000E+00  0.64571600050E+03  0.64571600050E+03  0.00000000000E+00 0.  1.
          1   -1    0    0  501    0  0.00000000000E+00 -0.00000000000E+00 -0.68251781731E+03  0.68251781731E+03  0.00000000000E+00 0. -1.
        -24    2    1    2    0    0 -0.41950408527E+03 -0.18635417420E+02  0.29975851430E+03  0.52210535002E+03  0.80049192930E+02 0.  0.
    5000000    2    1    2    0    0  0.41950408527E+03  0.18635417420E+02 -0.33656033110E+03  0.80612846779E+03  0.60019937835E+03 0.  0.
        -24    2    4    4    0    0  0.45984240792E+03 -0.17903634754E+03 -0.31168555011E+03  0.58873081685E+03  0.77117045486E+02 0.  0.
         24    2    4    4    0    0 -0.40338322648E+02  0.19767176496E+03 -0.24874780990E+02  0.21739765094E+03  0.77082274029E+02 0.  0.
         11    1    3    3    0    0 -0.18703532438E+03  0.21031744882E+02  0.16614948009E+03  0.25105815381E+03  0.00000000000E+00 0. -1.
        -12    1    3    3    0    0 -0.23246876089E+03 -0.39667162302E+02  0.13360903420E+03  0.27104719621E+03  0.00000000000E+00 0.  1.
         15    1    5    5    0    0  0.54715652595E+02  0.18588144972E+01 -0.23050188265E+02  0.59428332790E+02  0.17770000000E+01 0. -1.
        -16    1    5    5    0    0  0.40512675532E+03 -0.18089516203E+03 -0.28863536185E+03  0.52930248406E+03  0.00000000000E+00 0.  1.
          2    1    6    6  502    0 -0.23494830579E+02  0.18885571139E+03 -0.57015602964E+01  0.19039693951E+03  0.00000000000E+00 0. -1.
         -1    1    6    6    0  502 -0.16843492069E+02  0.88160535710E+01 -0.19173220694E+02  0.27000711424E+02  0.00000000000E+00 0.  1.
<mgrwt>
<rscale>  0 0.56591017E+03</rscale>
<asrwt>0</asrwt>
<pdfrwt beam="1">  1        1 0.10500274E+00 0.56591017E+03</pdfrwt>
<pdfrwt beam="2">  1       -2 0.99340924E-01 0.56591017E+03</pdfrwt>
<totfact> 0.21628815E+01</totfact>
</mgrwt>
</event>
<event>
12    3  0.1182097E-007  0.9211701E+03  0.7818608E-02  0.9399498E-01
          1   -1    0    0  501    0  0.00000000000E+00  0.00000000000E+00  0.33144669785E+04  0.33144669785E+04  0.00000000000E+00 0. -1.
         -2   -1    0    0    0  501 -0.00000000000E+00 -0.00000000000E+00 -0.36330763761E+03  0.36330763761E+03  0.00000000000E+00 0.  1.
        -24    2    1    2    0    0  0.23128433375E+03 -0.85693864557E+03  0.54693952168E+03  0.10456372909E+04  0.79863749612E+02 0.  0.
    5000000    2    1    2    0    0 -0.23128433375E+03  0.85693864557E+03  0.24042198192E+04  0.26321373252E+04  0.60003139440E+03 0.  0.
        -24    2    4    4    0    0 -0.15764144775E+03  0.82197141048E+03  0.14913258632E+04  0.17120529560E+04  0.81145967876E+02 0.  0.
         24    2    4    4    0    0 -0.73642885997E+02  0.34967235092E+02  0.91289395599E+03  0.92008436920E+03  0.80832477239E+02 0.  0.
         11    1    3    3    0    0  0.31228772472E+02 -0.19240701697E+03  0.15161627680E+03  0.24694775115E+03  0.00000000000E+00 0. -1.
        -12    1    3    3    0    0  0.20005556128E+03 -0.66453162860E+03  0.39532324489E+03  0.79868953978E+03  0.00000000000E+00 0.  1.
         15    1    5    5    0    0 -0.15742631996E+03  0.67249128429E+03  0.11980278989E+04  0.13828599271E+04  0.17770000000E+01 0. -1.
        -16    1    5    5    0    0 -0.21512779632E+00  0.14948012619E+03  0.29329796428E+03  0.32919302887E+03  0.00000000000E+00 0.  1.
          4    1    6    6  502    0 -0.72375863758E+02 -0.56835653978E+01  0.65369902368E+03  0.65771801110E+03  0.00000000000E+00 0. -1.
         -3    1    6    6    0  502 -0.12670222392E+01  0.40650800490E+02  0.25919493231E+03  0.26236635810E+03  0.00000000000E+00 0.  1.
<mgrwt>
<rscale>  0 0.92117009E+03</rscale>
<asrwt>0</asrwt>
<pdfrwt beam="1">  1        1 0.50991798E+00 0.92117009E+03</pdfrwt>
<pdfrwt beam="2">  1       -2 0.55893485E-01 0.92117009E+03</pdfrwt>
<totfact> 0.96158725E-01</totfact>
</mgrwt>
</event>
<event>
12    3  0.1182097E-007  0.4447724E+03  0.7818608E-02  0.1029293E+00
         -4   -1    0    0    0  501 -0.00000000000E+00  0.00000000000E+00  0.20298654091E+03  0.20298654091E+03  0.00000000000E+00 0.  1.
          3   -1    0    0  501    0  0.00000000000E+00 -0.00000000000E+00 -0.17217901651E+04  0.17217901651E+04  0.00000000000E+00 0. -1.
        -24    2    1    2    0    0  0.32293412187E+03 -0.25287925013E+03 -0.80714072483E+03  0.90758045287E+03  0.63180428386E+02 0.  0.
    5000000    2    1    2    0    0 -0.32293412187E+03  0.25287925013E+03 -0.71166289935E+03  0.10171962531E+04  0.59999147732E+03 0.  0.
        -24    2    4    4    0    0 -0.15636209569E+03  0.25004654554E+03 -0.76731566226E+03  0.82605026350E+03  0.81322397743E+02 0.  0.
         24    2    4    4    0    0 -0.16657202619E+03  0.28327045916E+01  0.55652762910E+02  0.19114598963E+03  0.75400896608E+02 0.  0.
         11    1    3    3    0    0  0.19889703251E+03 -0.19334170207E+03 -0.54487981354E+03  0.61142052182E+03  0.00000000000E+00 0. -1.
        -12    1    3    3    0    0  0.12403708936E+03 -0.59537548063E+02 -0.26226091129E+03  0.29615993105E+03  0.00000000000E+00 0.  1.
         15    1    5    5    0    0 -0.95831541437E+02  0.17899875845E+03 -0.42144361346E+03  0.46780564011E+03  0.17770000000E+01 0. -1.
        -16    1    5    5    0    0 -0.60530554250E+02  0.71047787085E+02 -0.34587204880E+03  0.35824462339E+03  0.00000000000E+00 0.  1.
          2    1    6    6  502    0 -0.99004197183E+02  0.32776378211E+02  0.11167390181E+02  0.10488485416E+03  0.00000000000E+00 0. -1.
         -1    1    6    6    0  502 -0.67567829003E+02 -0.29943673620E+02  0.44485372729E+02  0.86261135472E+02  0.00000000000E+00 0.  1.
<mgrwt>
<rscale>  0 0.44477237E+03</rscale>
<asrwt>0</asrwt>
<pdfrwt beam="1">  1        3 0.26489079E+00 0.44477237E+03</pdfrwt>
<pdfrwt beam="2">  1       -4 0.31228699E-01 0.44477237E+03</pdfrwt>
<totfact> 0.14135716E+00</totfact>
</mgrwt>
</event>
<event>
12    3  0.1182097E-007  0.6193313E+03  0.7818608E-02  0.9866092E-01
         -2   -1    0    0    0  501 -0.00000000000E+00  0.00000000000E+00  0.44423082226E+03  0.44423082226E+03  0.00000000000E+00 0.  1.
          1   -1    0    0  501    0  0.00000000000E+00 -0.00000000000E+00 -0.11690771021E+04  0.11690771021E+04  0.00000000000E+00 0. -1.
        -24    2    1    2    0    0 -0.35852753929E+03 -0.45736693373E+03 -0.43209865436E+03  0.72824521997E+03  0.76846241331E+02 0.  0.
    5000000    2    1    2    0    0  0.35852753929E+03  0.45736693373E+03 -0.29274762545E+03  0.88506270437E+03  0.59992358677E+03 0.  0.
        -24    2    4    4    0    0  0.29017560814E+03  0.48830152976E+03 -0.43180355876E+03  0.71804692287E+03  0.80602745347E+02 0.  0.
         24    2    4    4    0    0  0.68351931145E+02 -0.30934596028E+02  0.13905593331E+03  0.16701578150E+03  0.54118231293E+02 0.  0.
         13    1    3    3    0    0 -0.17221948724E+03 -0.15891373177E+03 -0.17663366346E+03  0.29344944538E+03  0.00000000000E+00 0. -1.
        -14    1    3    3    0    0 -0.18630805205E+03 -0.29845320196E+03 -0.25546499091E+03  0.43479577459E+03  0.00000000000E+00 0.  1.
         15    1    5    5    0    0  0.10188510465E+03  0.11562797660E+03 -0.90226424780E+02  0.17858994647E+03  0.17770000000E+01 0. -1.
        -16    1    5    5    0    0  0.18829050350E+03  0.37267355316E+03 -0.34157713398E+03  0.53945697640E+03  0.00000000000E+00 0.  1.
          2    1    6    6  502    0  0.19857526440E+02  0.50006257939E+01  0.79975423387E+02  0.82555411455E+02  0.00000000000E+00 0. -1.
         -1    1    6    6    0  502  0.48494404706E+02 -0.35935221822E+02  0.59080509923E+02  0.84460370044E+02  0.00000000000E+00 0.  1.
<mgrwt>
<rscale>  0 0.61933129E+03</rscale>
<asrwt>0</asrwt>
<pdfrwt beam="1">  1        1 0.17985801E+00 0.61933129E+03</pdfrwt>
<pdfrwt beam="2">  1       -2 0.68343204E-01 0.61933129E+03</pdfrwt>
<totfact> 0.20160402E+01</totfact>
</mgrwt>
</event>
<event>
12    3  0.1182097E-007  0.3987517E+03  0.7818608E-02  0.1044213E+00
         -2   -1    0    0    0  501 -0.00000000000E+00  0.00000000000E+00  0.16368931562E+04  0.16368931562E+04  0.00000000000E+00 0.  1.
          1   -1    0    0  501    0  0.00000000000E+00 -0.00000000000E+00 -0.17136953907E+03  0.17136953907E+03  0.00000000000E+00 0. -1.
        -24    2    1    2    0    0 -0.13304611439E+03  0.14619854323E+03  0.10032456086E+04  0.10256536298E+04  0.79927058285E+02 0.  0.
    5000000    2    1    2    0    0  0.13304611439E+03 -0.14619854323E+03  0.46227800855E+03  0.78260906545E+03  0.59975053943E+03 0.  0.
        -24    2    4    4    0    0  0.44615227733E+01  0.21011964838E+03  0.79678480232E+02  0.23843391780E+03  0.79573243760E+02 0.  0.
         24    2    4    4    0    0  0.12858459162E+03 -0.35631819161E+03  0.38259952832E+03  0.54417514766E+03  0.79041390289E+02 0.  0.
         13    1    3    3    0    0 -0.36730283269E+01  0.29829568118E+02  0.28718615734E+03  0.28875453804E+03  0.00000000000E+00 0. -1.
        -14    1    3    3    0    0 -0.12937308606E+03  0.11636897511E+03  0.71605945121E+03  0.73689909176E+03  0.00000000000E+00 0.  1.
         15    1    5    5    0    0 -0.65737224298E+01  0.27904777426E+02 -0.15418538145E+02  0.32600298730E+02  0.17770000000E+01 0. -1.
        -16    1    5    5    0    0  0.11035245203E+02  0.18221487096E+03  0.95097018377E+02  0.20583361907E+03  0.00000000000E+00 0.  1.
          4    1    6    6  502    0  0.98809201669E+02 -0.32156261734E+03  0.30498529379E+03  0.45407246628E+03  0.00000000000E+00 0. -1.
         -3    1    6    6    0  502  0.29775389946E+02 -0.34755574276E+02  0.77614234528E+02  0.90102681375E+02  0.00000000000E+00 0.  1.
<mgrwt>
<rscale>  0 0.39875171E+03</rscale>
<asrwt>0</asrwt>
<pdfrwt beam="1">  1        1 0.26364546E-01 0.39875171E+03</pdfrwt>
<pdfrwt beam="2">  1       -2 0.25182971E+00 0.39875171E+03</pdfrwt>
<totfact> 0.10732046E+01</totfact>
</mgrwt>
</event>
<event>
12    3  0.1182097E-007  0.4656612E+03  0.7818608E-02  0.1023152E+00
         -2   -1    0    0    0  501 -0.00000000000E+00  0.00000000000E+00  0.23444138775E+04  0.23444138775E+04  0.00000000000E+00 0.  1.
          1   -1    0    0  501    0  0.00000000000E+00 -0.00000000000E+00 -0.42700598769E+03  0.42700598769E+03  0.00000000000E+00 0. -1.
        -24    2    1    2    0    0  0.37775303403E+03 -0.19191483743E+03  0.19874472621E+04  0.20336403188E+04  0.78852185618E+02 0.  0.
    5000000    2    1    2    0    0 -0.37775303403E+03  0.19191483743E+03 -0.70039372261E+02  0.73777954639E+03  0.59990373049E+03 0.  0.
        -24    2    4    4    0    0 -0.10254178645E+03 -0.49429390436E+02  0.22231887299E+03  0.26246128366E+03  0.80635981572E+02 0.  0.
         24    2    4    4    0    0 -0.27521124758E+03  0.24134422786E+03 -0.29235824526E+03  0.47531826273E+03  0.80410448314E+02 0.  0.
         13    1    3    3    0    0  0.10118437794E+03 -0.68080019543E+02  0.73547630150E+03  0.74551898531E+03  0.00000000000E+00 0. -1.
        -14    1    3    3    0    0  0.27656865609E+03 -0.12383481789E+03  0.12519709606E+04  0.12881213335E+04  0.00000000000E+00 0.  1.
         15    1    5    5    0    0  0.10028527578E+02 -0.20164057071E+02  0.27810725659E+02  0.35829523491E+02  0.17770000000E+01 0. -1.
        -16    1    5    5    0    0 -0.11257031403E+03 -0.29265333364E+02  0.19450814734E+03  0.22663176017E+03  0.00000000000E+00 0.  1.
          4    1    6    6  502    0 -0.80924957809E+02  0.52285523167E+02 -0.12074544745E+03  0.15447358288E+03  0.00000000000E+00 0. -1.
         -3    1    6    6    0  502 -0.19428628977E+03  0.18905870470E+03 -0.17161279781E+03  0.32084467984E+03  0.00000000000E+00 0.  1.
<mgrwt>
<rscale>  0 0.46566117E+03</rscale>
<asrwt>0</asrwt>
<pdfrwt beam="1">  1        1 0.65693230E-01 0.46566117E+03</pdfrwt>
<pdfrwt beam="2">  1       -2 0.36067905E+00 0.46566117E+03</pdfrwt>
<totfact> 0.72654954E-01</totfact>
</mgrwt>
</event>
<event>
12    3  0.1182097E-007  0.1034656E+04  0.7818608E-02  0.9271330E-01
          1   -1    0    0  501    0  0.00000000000E+00  0.00000000000E+00  0.22732098807E+04  0.22732098807E+04  0.00000000000E+00 0. -1.
         -2   -1    0    0    0  501 -0.00000000000E+00 -0.00000000000E+00 -0.51149597029E+03  0.51149597029E+03  0.00000000000E+00 0.  1.
        -24    2    1    2    0    0  0.26850934892E+03 -0.95562952832E+03  0.77816852500E+03  0.12639983417E+04  0.82586249479E+02 0.  0.
    5000000    2    1    2    0    0 -0.26850934892E+03  0.95562952832E+03  0.98354538537E+03  0.15207075093E+04  0.59988727095E+03 0.  0.
        -24    2    4    4    0    0 -0.20208897663E+03  0.96339351617E+03  0.67712613963E+03  0.11974793539E+04  0.80560366049E+02 0.  0.
         24    2    4    4    0    0 -0.66420372291E+02 -0.77639878499E+01  0.30641924574E+03  0.32322815538E+03  0.78177624100E+02 0.  0.
         11    1    3    3    0    0  0.15833228818E+03 -0.44510522687E+03  0.33666787020E+03  0.58011467082E+03  0.00000000000E+00 0. -1.
        -12    1    3    3    0    0  0.11017706074E+03 -0.51052430145E+03  0.44150065479E+03  0.68388367086E+03  0.00000000000E+00 0.  1.
         15    1    5    5    0    0 -0.20852032775E+01  0.15923153172E+02  0.25873512025E+02  0.30503954385E+02  0.17770000000E+01 0.  1.
        -16    1    5    5    0    0 -0.20000377335E+03  0.94747036299E+03  0.65125262761E+03  0.11669753995E+04  0.00000000000E+00 0.  1.
          2    1    6    6  502    0 -0.46276024384E+01  0.21311789906E+02  0.22992688230E+02  0.31690232018E+02  0.00000000000E+00 0. -1.
         -1    1    6    6    0  502 -0.61792769853E+02 -0.29075777756E+02  0.28342655751E+03  0.29153792336E+03  0.00000000000E+00 0.  1.
<mgrwt>
<rscale>  0 0.10346562E+04</rscale>
<asrwt>0</asrwt>
<pdfrwt beam="1">  1        1 0.34972459E+00 0.10346562E+04</pdfrwt>
<pdfrwt beam="2">  1       -2 0.78691689E-01 0.10346562E+04</pdfrwt>
<totfact> 0.24615260E+00</totfact>
</mgrwt>
</event>
<event>
12    3  0.1182097E-007  0.2955922E+04  0.7818608E-02  0.8256431E-01
         -4   -1    0    0    0  501 -0.00000000000E+00  0.00000000000E+00  0.23032777497E+04  0.23032777497E+04  0.00000000000E+00 0.  1.
          1   -1    0    0  501    0  0.00000000000E+00 -0.00000000000E+00 -0.39884157911E+04  0.39884157911E+04  0.00000000000E+00 0. -1.
        -24    2    1    2    0    0 -0.17467298462E+04  0.23789089552E+04 -0.27171737244E+03  0.29648295476E+04  0.78172518619E+02 0.  0.
    5000000    2    1    2    0    0  0.17467298462E+04 -0.23789089552E+04 -0.14134206690E+04  0.33268639933E+04  0.59999422442E+03 0.  0.
        -24    2    4    4    0    0  0.11575239902E+04 -0.14382968731E+04 -0.58097209789E+03  0.19371628954E+04  0.80695859430E+02 0.  0.
         24    2    4    4    0    0  0.58920585602E+03 -0.94061208211E+03 -0.83244857110E+03  0.13897010979E+04  0.79899237301E+02 0.  0.
         13    1    3    3    0    0 -0.99129322354E+03  0.14070959525E+04 -0.13973452983E+03  0.17268778224E+04  0.00000000000E+00 0. -1.
        -14    1    3    3    0    0 -0.75543662263E+03  0.97181300277E+03 -0.13198284261E+03  0.12379517252E+04  0.00000000000E+00 0.  1.
         15    1    5    5    0    0  0.53144608740E+03 -0.59765405428E+03 -0.24393418304E+03  0.83614134917E+03  0.17770000000E+01 0. -1.
        -16    1    5    5    0    0  0.62607790276E+03 -0.84064281886E+03 -0.33703791484E+03  0.11010215462E+04  0.00000000000E+00 0.  1.
          2    1    6    6  502    0  0.21538605850E+03 -0.28691004501E+03 -0.24147775895E+03  0.43245813230E+03  0.00000000000E+00 0. -1.
         -1    1    6    6    0  502  0.37381979752E+03 -0.65370203709E+03 -0.59097081214E+03  0.95724296556E+03  0.00000000000E+00 0.  1.
<mgrwt>
<rscale>  0 0.29559222E+04</rscale>
<asrwt>0</asrwt>
<pdfrwt beam="1">  1        1 0.61360243E+00 0.29559222E+04</pdfrwt>
<pdfrwt beam="2">  1       -4 0.35435042E+00 0.29559222E+04</pdfrwt>
<totfact> 0.51883721E-04</totfact>
</mgrwt>
</event>
<event>
12    3  0.1182097E-007  0.9062156E+03  0.7818608E-02  0.9417845E-01
         -2   -1    0    0    0  501 -0.00000000000E+00  0.00000000000E+00  0.12892994991E+04  0.12892994991E+04  0.00000000000E+00 0.  1.
          1   -1    0    0  501    0  0.00000000000E+00 -0.00000000000E+00 -0.72365680455E+03  0.72365680455E+03  0.00000000000E+00 0. -1.
        -24    2    1    2    0    0 -0.55617393492E+03  0.66523668418E+03  0.17271840031E+03  0.88761810237E+03  0.78517246334E+02 0.  0.
    5000000    2    1    2    0    0  0.55617393492E+03 -0.66523668418E+03  0.39292429423E+03  0.11253382013E+04  0.60010605260E+03 0.  0.
        -24    2    4    4    0    0  0.28464906211E+02 -0.29690669625E+03 -0.84285998791E+02  0.32021475951E+03  0.80433360331E+02 0.  0.
         24    2    4    4    0    0  0.52770902871E+03 -0.36832998794E+03  0.47721029302E+03  0.80512344176E+03  0.79688730145E+02 0.  0.
         13    1    3    3    0    0 -0.17763508476E+03  0.18334237935E+03  0.19883243549E+02  0.25605467146E+03  0.00000000000E+00 0. -1.
        -14    1    3    3    0    0 -0.37853885016E+03  0.48189430483E+03  0.15283515676E+03  0.63156343090E+03  0.00000000000E+00 0.  1.
         15    1    5    5    0    0  0.99774239294E+01 -0.20744393442E+03 -0.94714291696E+02  0.22826845971E+03  0.17770000000E+01 0. -1.
        -16    1    5    5    0    0  0.18487482282E+02 -0.89462761827E+02  0.10428292905E+02  0.91946299805E+02  0.00000000000E+00 0.  1.
          2    1    6    6  502    0  0.24661683856E+03 -0.14318073496E+03  0.17183651527E+03  0.33293899727E+03  0.00000000000E+00 0. -1.
         -1    1    6    6    0  502  0.28109219015E+03 -0.22514925298E+03  0.30537377774E+03  0.47218444449E+03  0.00000000000E+00 0.  1.
<mgrwt>
<rscale>  0 0.90621556E+03</rscale>
<asrwt>0</asrwt>
<pdfrwt beam="1">  1        1 0.11133182E+00 0.90621556E+03</pdfrwt>
<pdfrwt beam="2">  1       -2 0.19835377E+00 0.90621556E+03</pdfrwt>
<totfact> 0.31160751E+00</totfact>
</mgrwt>
</event>
<event>
12    3  0.1182097E-007  0.6531594E+03  0.7818608E-02  0.9800869E-01
          1   -1    0    0  501    0  0.00000000000E+00  0.00000000000E+00  0.13544584756E+04  0.13544584756E+04  0.00000000000E+00 0. -1.
         -2   -1    0    0    0  501 -0.00000000000E+00 -0.00000000000E+00 -0.45598368165E+03  0.45598368165E+03  0.00000000000E+00 0.  1.
        -24    2    1    2    0    0 -0.27175166685E+03 -0.44783803864E+03 -0.94189411104E+02  0.53775593481E+03  0.76823973943E+02 0.  0.
    5000000    2    1    2    0    0  0.27175166685E+03  0.44783803864E+03  0.99266420505E+03  0.12726862224E+04  0.59995009749E+03 0.  0.
        -24    2    4    4    0    0 -0.17124035964E+03  0.95456128994E+02  0.16485071890E+03  0.26666955195E+03  0.74173830183E+02 0.  0.
         24    2    4    4    0    0  0.44299202649E+03  0.35238190964E+03  0.82781348616E+03  0.10060166705E+04  0.79871319302E+02 0.  0.
         11    1    3    3    0    0 -0.15140310748E+03 -0.30224302209E+03 -0.85355294337E+02  0.34865351228E+03  0.00000000000E+00 0. -1.
        -12    1    3    3    0    0 -0.12034855937E+03 -0.14559501655E+03 -0.88341167674E+01  0.18910242253E+03  0.00000000000E+00 0.  1.
         15    1    5    5    0    0  0.45928870210E+01 -0.38354992504E+01  0.41488417980E+00  0.62558391580E+01  0.17770000000E+01 0. -1.
        -16    1    5    5    0    0 -0.17583324666E+03  0.99291628244E+02  0.16443583472E+03  0.26041371279E+03  0.00000000000E+00 0.  1.
          4    1    6    6  502    0  0.16496554452E+03  0.85453894325E+02  0.28824826338E+03  0.34293302593E+03  0.00000000000E+00 0. -1.
         -3    1    6    6    0  502  0.27802648198E+03  0.26692801532E+03  0.53956522278E+03  0.66308364455E+03  0.00000000000E+00 0.  1.
<mgrwt>
<rscale>  0 0.65315942E+03</rscale>
<asrwt>0</asrwt>
<pdfrwt beam="1">  1        1 0.20837823E+00 0.65315942E+03</pdfrwt>
<pdfrwt beam="2">  1       -2 0.70151336E-01 0.65315942E+03</pdfrwt>
<totfact> 0.14000461E+01</totfact>
</mgrwt>
</event>
<event>
12    3  0.1182097E-007  0.4635370E+03  0.7818608E-02  0.1023760E+00
          1   -1    0    0  501    0  0.00000000000E+00  0.00000000000E+00  0.22754075797E+04  0.22754075797E+04  0.00000000000E+00 0. -1.
         -2   -1    0    0    0  501 -0.00000000000E+00 -0.00000000000E+00 -0.12071549573E+03  0.12071549573E+03  0.00000000000E+00 0.  1.
        -24    2    1    2    0    0  0.23616375803E+03 -0.13512536219E+03  0.12196126538E+04  0.12523082366E+04  0.82393628865E+02 0.  0.
    5000000    2    1    2    0    0 -0.23616375803E+03  0.13512536219E+03  0.93507943026E+03  0.11438148389E+04  0.59992221219E+03 0.  0.
        -24    2    4    4    0    0 -0.19575951152E+03 -0.21123786872E+03  0.39497846591E+03  0.49587366261E+03  0.83303524586E+02 0.  0.
         24    2    4    4    0    0 -0.40404246503E+02  0.34636323091E+03  0.54010096435E+03  0.64794117629E+03  0.80738623806E+02 0.  0.
         11    1    3    3    0    0  0.15302185245E+03 -0.56379506518E+02  0.84465709695E+03  0.86025574541E+03  0.00000000000E+00 0. -1.
        -12    1    3    3    0    0  0.83141905574E+02 -0.78745855675E+02  0.37495555681E+03  0.39205249116E+03  0.00000000000E+00 0.  1.
         15    1    5    5    0    0 -0.45209184580E+02 -0.10840504776E+03  0.15744527707E+03  0.19643751615E+03  0.17770000000E+01 0. -1.
        -16    1    5    5    0    0 -0.15055032694E+03 -0.10283282096E+03  0.23753318884E+03  0.29943614646E+03  0.00000000000E+00 0.  1.
          2    1    6    6  502    0  0.30010600509E+01  0.58680897713E+02  0.46307872951E+02  0.74812253108E+02  0.00000000000E+00 0. -1.
         -1    1    6    6    0  502 -0.43405306554E+02  0.28768233320E+03  0.49379309140E+03  0.57312892318E+03  0.00000000000E+00 0.  1.
<mgrwt>
<rscale>  0 0.46353699E+03</rscale>
<asrwt>0</asrwt>
<pdfrwt beam="1">  1        1 0.35006267E+00 0.46353699E+03</pdfrwt>
<pdfrwt beam="2">  1       -2 0.18571616E-01 0.46353699E+03</pdfrwt>
<totfact> 0.44825898E+01</totfact>
</mgrwt>
</event>
<event>
12    3  0.1182097E-007  0.1108994E+04  0.7818608E-02  0.9196469E-01
         -2   -1    0    0    0  501 -0.00000000000E+00  0.00000000000E+00  0.84696511930E+03  0.84696511930E+03  0.00000000000E+00 0.  1.
          1   -1    0    0  501    0  0.00000000000E+00 -0.00000000000E+00 -0.15287626388E+04  0.15287626388E+04  0.00000000000E+00 0. -1.
        -24    2    1    2    0    0  0.10112634642E+04  0.22668389245E+03 -0.10066451158E+03  0.10446450468E+04  0.84324070366E+02 0.  0.
    5000000    2    1    2    0    0 -0.10112634642E+04 -0.22668389245E+03 -0.58113300791E+03  0.13310827113E+04  0.60002185812E+03 0.  0.
        -24    2    4    4    0    0 -0.14653352182E+03  0.17239901983E+03 -0.89270154510E+02  0.25617763712E+03  0.80401033705E+02 0.  0.
         24    2    4    4    0    0 -0.86472994238E+03 -0.39908291229E+03 -0.49186285340E+03  0.10749050741E+04  0.80416464285E+02 0.  0.
         11    1    3    3    0    0  0.72842264725E+03  0.17984309381E+03 -0.38455577586E+02  0.75128018932E+03  0.00000000000E+00 0. -1.
        -12    1    3    3    0    0  0.28284081695E+03  0.46840798647E+02 -0.62208933999E+02  0.29336485751E+03  0.00000000000E+00 0.  1.
         15    1    5    5    0    0 -0.16710448453E+02  0.29899108937E+02  0.14517050379E+02  0.37243768384E+02  0.17770000000E+01 0. -1.
        -16    1    5    5    0    0 -0.12982307336E+03  0.14249991090E+03 -0.10378720489E+03  0.21893386874E+03  0.00000000000E+00 0.  1.
          2    1    6    6  502    0 -0.21263884172E+03 -0.12435370048E+03 -0.15662758853E+03  0.29190978284E+03  0.00000000000E+00 0. -1.
         -1    1    6    6    0  502 -0.65209110066E+03 -0.27472921181E+03 -0.33523526487E+03  0.78299529130E+03  0.00000000000E+00 0.  1.
<mgrwt>
<rscale>  0 0.11089943E+04</rscale>
<asrwt>0</asrwt>
<pdfrwt beam="1">  1        1 0.23519425E+00 0.11089943E+04</pdfrwt>
<pdfrwt beam="2">  1       -2 0.13030233E+00 0.11089943E+04</pdfrwt>
<totfact> 0.23353481E+00</totfact>
</mgrwt>
</event>
<event>
12    3  0.1182097E-007  0.6251461E+03  0.7818608E-02  0.9854567E-01
          1   -1    0    0  501    0  0.00000000000E+00  0.00000000000E+00  0.20336939368E+04  0.20336939368E+04  0.00000000000E+00 0. -1.
         -2   -1    0    0    0  501 -0.00000000000E+00 -0.00000000000E+00 -0.25502045200E+03  0.25502045200E+03  0.00000000000E+00 0.  1.
        -24    2    1    2    0    0  0.36582005217E+03  0.32814685495E+03  0.12620465281E+04  0.13568884042E+04  0.82945966518E+02 0.  0.
    5000000    2    1    2    0    0 -0.36582005217E+03 -0.32814685495E+03  0.51662695671E+03  0.93182598461E+03  0.59990964670E+03 0.  0.
        -24    2    4    4    0    0 -0.17773623776E+03 -0.47932526486E+03  0.37555588637E+03  0.63931300224E+03  0.79599066003E+02 0.  0.
         24    2    4    4    0    0 -0.18808381442E+03  0.15117840990E+03  0.14107107035E+03  0.29251298237E+03  0.86211165750E+02 0.  0.
         13    1    3    3    0    0  0.29393951783E+03  0.24375105562E+03  0.88462696750E+03  0.96352472147E+03  0.00000000000E+00 0. -1.
        -14    1    3    3    0    0  0.71880534348E+02  0.84395799329E+02  0.37741956061E+03  0.39336368273E+03  0.00000000000E+00 0.  1.
         15    1    5    5    0    0 -0.20067539787E+01 -0.77991313513E+02  0.41650309411E+02  0.88456645019E+02  0.17770000000E+01 0. -1.
        -16    1    5    5    0    0 -0.17572948378E+03 -0.40133395134E+03  0.33390557696E+03  0.55085635722E+03  0.00000000000E+00 0.  1.
          2    1    6    6  502    0 -0.15700172757E+03  0.12957937819E+03  0.76114366331E+02  0.21733327972E+03  0.00000000000E+00 0. -1.
         -1    1    6    6    0  502 -0.31082086843E+02  0.21599031713E+02  0.64956704017E+02  0.75179702648E+02  0.00000000000E+00 0.  1.
<mgrwt>
<rscale>  0 0.62514611E+03</rscale>
<asrwt>0</asrwt>
<pdfrwt beam="1">  1        1 0.31287598E+00 0.62514611E+03</pdfrwt>
<pdfrwt beam="2">  1       -2 0.39233917E-01 0.62514611E+03</pdfrwt>
<totfact> 0.16158633E+01</totfact>
</mgrwt>
</event>
<event>
12    3  0.1182097E-007  0.4243956E+03  0.7818608E-02  0.1035645E+00
         -2   -1    0    0    0  501 -0.00000000000E+00  0.00000000000E+00  0.82130581944E+02  0.82130581944E+02  0.00000000000E+00 0.  1.
          1   -1    0    0  501    0  0.00000000000E+00 -0.00000000000E+00 -0.33491180076E+04  0.33491180076E+04  0.00000000000E+00 0. -1.
        -24    2    1    2    0    0  0.65122774462E+02  0.33428460185E+03 -0.89088833234E+03  0.95702103052E+03  0.78867365728E+02 0.  0.
    5000000    2    1    2    0    0 -0.65122774462E+02 -0.33428460185E+03 -0.23760990933E+04  0.24742275590E+04  0.59997328421E+03 0.  0.
        -24    2    4    4    0    0 -0.15646060116E+03  0.33893457258E+01 -0.16972150551E+04  0.17063353694E+04  0.80932331324E+02 0.  0.
         24    2    4    4    0    0  0.91337826701E+02 -0.33767394758E+03 -0.67888403820E+03  0.76789218959E+03  0.80053632390E+02 0.  0.
         13    1    3    3    0    0  0.20239092197E+02  0.18754679679E+03 -0.39125103664E+03  0.43435100496E+03  0.00000000000E+00 0. -1.
        -14    1    3    3    0    0  0.44883682264E+02  0.14673780507E+03 -0.49963729569E+03  0.52267002556E+03  0.00000000000E+00 0.  1.
         15    1    5    5    0    0 -0.99108127796E+02 -0.20371330092E+01 -0.64808275031E+03  0.65562258952E+03  0.17770000000E+01 0. -1.
        -16    1    5    5    0    0 -0.57352473366E+02  0.54264787350E+01 -0.10491323048E+04  0.10507127799E+04  0.00000000000E+00 0.  1.
          4    1    6    6  502    0  0.15507090668E+02 -0.73095579778E+02 -0.84010009780E+02  0.11243271493E+03  0.00000000000E+00 0. -1.
         -3    1    6    6    0  502  0.75830736033E+02 -0.26457836780E+03 -0.59487402842E+03  0.65545947466E+03  0.00000000000E+00 0.  1.
<mgrwt>
<rscale>  0 0.42439564E+03</rscale>
<asrwt>0</asrwt>
<pdfrwt beam="1">  1        1 0.51524901E+00 0.42439564E+03</pdfrwt>
<pdfrwt beam="2">  1       -2 0.12635472E-01 0.42439564E+03</pdfrwt>
<totfact> 0.15418876E+01</totfact>
</mgrwt>
</event>
<event>
12    3  0.1182097E-007  0.6767181E+03  0.7818608E-02  0.9757897E-01
          1   -1    0    0  501    0  0.00000000000E+00  0.00000000000E+00  0.14528598712E+04  0.14528598712E+04  0.00000000000E+00 0. -1.
         -2   -1    0    0    0  501 -0.00000000000E+00 -0.00000000000E+00 -0.45743715043E+03  0.45743715043E+03  0.00000000000E+00 0.  1.
        -24    2    1    2    0    0 -0.10762702876E+03 -0.59764034738E+03  0.84476895193E+03  0.10433549292E+04  0.78723338371E+02 0.  0.
    5000000    2    1    2    0    0  0.10762702876E+03  0.59764034738E+03  0.15065376884E+03  0.86694209243E+03  0.60011204906E+03 0.  0.
        -24    2    4    4    0    0  0.21406480074E+03  0.59164996392E+03 -0.37275207554E+02  0.63535617187E+03  0.80091231143E+02 0.  0.
         24    2    4    4    0    0 -0.10643777198E+03  0.59903834526E+01  0.18792897640E+03  0.23158592056E+03  0.83365786952E+02 0.  0.
         11    1    3    3    0    0 -0.37345522374E+02 -0.40759232462E+03  0.58279341779E+03  0.71216175055E+03  0.00000000000E+00 0. -1.
        -12    1    3    3    0    0 -0.70281506381E+02 -0.19004802276E+03  0.26197553414E+03  0.33119317864E+03  0.00000000000E+00 0.  1.
         15    1    5    5    0    0  0.18792333359E+03  0.43219839064E+03 -0.46075654842E+02  0.47353643142E+03  0.17770000000E+01 0. -1.
        -16    1    5    5    0    0  0.26141467143E+02  0.15945157328E+03  0.88004472878E+01  0.16181974045E+03  0.00000000000E+00 0.  1.
          4    1    6    6  502    0 -0.54775251239E+02 -0.73925928894E+01  0.16406590692E+03  0.17312596683E+03  0.00000000000E+00 0. -1.
         -3    1    6    6    0  502 -0.51662520740E+02  0.13382976342E+02  0.23863069477E+02  0.58459953728E+02  0.00000000000E+00 0.  1.
<mgrwt>
<rscale>  0 0.67671806E+03</rscale>
<asrwt>0</asrwt>
<pdfrwt beam="1">  1        1 0.22351690E+00 0.67671806E+03</pdfrwt>
<pdfrwt beam="2">  1       -2 0.70374947E-01 0.67671806E+03</pdfrwt>
<totfact> 0.11846559E+01</totfact>
</mgrwt>
</event>
<event>
12    3  0.1182097E-007  0.5956387E+03  0.7818608E-02  0.9914496E-01
         -2   -1    0    0    0  501 -0.00000000000E+00  0.00000000000E+00  0.23735462580E+03  0.23735462580E+03  0.00000000000E+00 0.  1.
          1   -1    0    0  501    0  0.00000000000E+00 -0.00000000000E+00 -0.21314951700E+04  0.21314951700E+04  0.00000000000E+00 0. -1.
        -24    2    1    2    0    0  0.50946375729E+03  0.26975534192E+02 -0.12460189731E+04  0.13487675657E+04  0.79559194591E+02 0.  0.
    5000000    2    1    2    0    0 -0.50946375729E+03 -0.26975534192E+02 -0.64812157108E+03  0.10200822301E+04  0.60018762554E+03 0.  0.
        -24    2    4    4    0    0 -0.13552328704E+02  0.13618357431E+03  0.29847851263E+02  0.16068767728E+03  0.78740103381E+02 0.  0.
         24    2    4    4    0    0 -0.49591142859E+03 -0.16315910850E+03 -0.67796942235E+03  0.85939455283E+03  0.79796115869E+02 0.  0.
         13    1    3    3    0    0  0.10654773121E+03  0.12447797121E+02 -0.35331151911E+03  0.36923758776E+03  0.00000000000E+00 0. -1.
        -14    1    3    3    0    0  0.40291602608E+03  0.14527737070E+02 -0.89270745401E+03  0.97952997793E+03  0.00000000000E+00 0.  1.
         15    1    5    5    0    0 -0.46262911925E+02  0.69685780183E+02  0.18958318179E+02  0.85784267420E+02  0.17770000000E+01 0. -1.
        -16    1    5    5    0    0  0.32710583221E+02  0.66497794128E+02  0.10889533084E+02  0.74903409865E+02  0.00000000000E+00 0.  1.
          4    1    6    6  502    0 -0.23749019634E+03 -0.95097826107E+02 -0.27235216522E+03  0.37365879059E+03  0.00000000000E+00 0. -1.
         -3    1    6    6    0  502 -0.25842123225E+03 -0.68061282396E+02 -0.40561725713E+03  0.48573576224E+03  0.00000000000E+00 0.  1.
<mgrwt>
<rscale>  0 0.59563866E+03</rscale>
<asrwt>0</asrwt>
<pdfrwt beam="1">  1        1 0.32792233E+00 0.59563866E+03</pdfrwt>
<pdfrwt beam="2">  1       -2 0.36516097E-01 0.59563866E+03</pdfrwt>
<totfact> 0.16050899E+01</totfact>
</mgrwt>
</event>
<event>
12    3  0.1182097E-007  0.9779321E+03  0.7818608E-02  0.9333085E-01
         -2   -1    0    0    0  501 -0.00000000000E+00  0.00000000000E+00  0.14435081080E+04  0.14435081080E+04  0.00000000000E+00 0.  1.
          1   -1    0    0  501    0  0.00000000000E+00 -0.00000000000E+00 -0.81692319685E+03  0.81692319685E+03  0.00000000000E+00 0. -1.
        -24    2    1    2    0    0  0.10049019101E+03 -0.94450599563E+03  0.61975764394E+03  0.11369505958E+04  0.79795148955E+02 0.  0.
    5000000    2    1    2    0    0 -0.10049019101E+03  0.94450599563E+03  0.68272672056E+01  0.11234807090E+04  0.59997703103E+03 0.  0.
        -24    2    4    4    0    0  0.41892004849E+02  0.76846867450E+03 -0.20834943523E+03  0.80134101602E+03  0.80242713296E+02 0.  0.
         24    2    4    4    0    0 -0.14238219586E+03  0.17603732113E+03  0.21517670244E+03  0.32213969303E+03  0.78810788752E+02 0.  0.
         13    1    3    3    0    0  0.42347404532E+02 -0.24434011740E+03  0.19954823706E+03  0.31830000716E+03  0.00000000000E+00 0. -1.
        -14    1    3    3    0    0  0.58142786480E+02 -0.70016587822E+03  0.42020940688E+03  0.81865058864E+03  0.00000000000E+00 0.  1.
         15    1    5    5    0    0  0.26248997825E+02  0.16872091958E+03 -0.76290011747E+02  0.18702695585E+03  0.17770000000E+01 0. -1.
        -16    1    5    5    0    0  0.15643007023E+02  0.59974775491E+03 -0.13205942349E+03  0.61431406017E+03  0.00000000000E+00 0.  1.
          2    1    6    6  502    0 -0.35796226168E+01  0.40280736827E+02  0.65543856026E+02  0.77015248621E+02  0.00000000000E+00 0. -1.
         -1    1    6    6    0  502 -0.13880257324E+03  0.13575658430E+03  0.14963284641E+03  0.24512444441E+03  0.00000000000E+00 0.  1.
<mgrwt>
<rscale>  0 0.97793206E+03</rscale>
<asrwt>0</asrwt>
<pdfrwt beam="1">  1        1 0.12568049E+00 0.97793206E+03</pdfrwt>
<pdfrwt beam="2">  1       -2 0.22207817E+00 0.97793206E+03</pdfrwt>
<totfact> 0.17982544E+00</totfact>
</mgrwt>
</event>
<event>
12    3  0.1182097E-007  0.7262635E+03  0.7818608E-02  0.9673343E-01
         -2   -1    0    0    0  501 -0.00000000000E+00  0.00000000000E+00  0.63052019324E+03  0.63052019324E+03  0.00000000000E+00 0.  1.
          1   -1    0    0  501    0  0.00000000000E+00 -0.00000000000E+00 -0.10015120024E+04  0.10015120024E+04  0.00000000000E+00 0. -1.
        -24    2    1    2    0    0 -0.15860653955E+03 -0.59467095905E+03  0.13443594411E+03  0.63491412321E+03  0.79078042877E+02 0.  0.
    5000000    2    1    2    0    0  0.15860653955E+03  0.59467095905E+03 -0.50542775326E+03  0.99711807241E+03  0.59999804387E+03 0.  0.
        -24    2    4    4    0    0 -0.69153101515E+02  0.59748635993E+03 -0.43057376293E+03  0.74410383301E+03  0.80775288444E+02 0.  0.
         24    2    4    4    0    0  0.22775964106E+03 -0.28154008787E+01 -0.74853990325E+02  0.25301423941E+03  0.80812776818E+02 0.  0.
         11    1    3    3    0    0 -0.16111281229E+03 -0.55103643370E+03  0.10905539719E+03  0.58437279985E+03  0.00000000000E+00 0. -1.
        -12    1    3    3    0    0  0.25062727439E+01 -0.43634525346E+02  0.25380546916E+02  0.50541323360E+02  0.00000000000E+00 0.  1.
         15    1    5    5    0    0 -0.18129758768E+02  0.43121761338E+03 -0.32895782374E+03  0.54267276122E+03  0.17770000000E+01 0. -1.
        -16    1    5    5    0    0 -0.51023342747E+02  0.16626874655E+03 -0.10161593919E+03  0.20143107179E+03  0.00000000000E+00 0.  1.
          2    1    6    6  502    0  0.12810017069E+03 -0.14189864508E+02 -0.17509679949E+01  0.12889558517E+03  0.00000000000E+00 0. -1.
         -1    1    6    6    0  502  0.99659470366E+02  0.11374463629E+02 -0.73103022330E+02  0.12411865424E+03  0.00000000000E+00 0.  1.
<mgrwt>
<rscale>  0 0.72626349E+03</rscale>
<asrwt>0</asrwt>
<pdfrwt beam="1">  1        1 0.15407877E+00 0.72626349E+03</pdfrwt>
<pdfrwt beam="2">  1       -2 0.97003108E-01 0.72626349E+03</pdfrwt>
<totfact> 0.12055689E+01</totfact>
</mgrwt>
</event>
<event>
12    3  0.1182097E-007  0.6925725E+03  0.7818608E-02  0.9730019E-01
         -2   -1    0    0    0  501 -0.00000000000E+00  0.00000000000E+00  0.14582697004E+04  0.14582697004E+04  0.00000000000E+00 0.  1.
          1   -1    0    0  501    0  0.00000000000E+00 -0.00000000000E+00 -0.85401491183E+03  0.85401491183E+03  0.00000000000E+00 0. -1.
        -24    2    1    2    0    0  0.47491244236E+03  0.49573574274E+03 -0.52004371668E+03  0.86478917384E+03  0.78224634164E+02 0.  0.
    5000000    2    1    2    0    0 -0.47491244236E+03 -0.49573574274E+03  0.11242985052E+04  0.14474954384E+04  0.59991679480E+03 0.  0.
        -24    2    4    4    0    0 -0.32687170199E+03 -0.30350703625E+03  0.21066764943E+03  0.49881581786E+03  0.73991425255E+02 0.  0.
         24    2    4    4    0    0 -0.14804074037E+03 -0.19222870649E+03  0.91363085579E+03  0.94867962050E+03  0.80023404606E+02 0.  0.
         11    1    3    3    0    0  0.15984505163E+03  0.19902120224E+03 -0.23172793868E+03  0.34475747568E+03  0.00000000000E+00 0. -1.
        -12    1    3    3    0    0  0.31506739073E+03  0.29671454050E+03 -0.28831577800E+03  0.52003169816E+03  0.00000000000E+00 0.  1.
         15    1    5    5    0    0 -0.23661676705E+03 -0.26123791538E+03  0.16267950221E+03  0.38820164998E+03  0.17770000000E+01 0. -1.
        -16    1    5    5    0    0 -0.90254934945E+02 -0.42269120867E+02  0.47988147217E+02  0.11061416787E+03  0.00000000000E+00 0.  1.
          4    1    6    6  502    0 -0.84061020464E+02 -0.13546111953E+03  0.71248434666E+03  0.73010267381E+03  0.00000000000E+00 0. -1.
         -3    1    6    6    0  502 -0.63979719904E+02 -0.56767586958E+02  0.20114650913E+03  0.21857694669E+03  0.00000000000E+00 0.  1.
<mgrwt>
<rscale>  0 0.69257255E+03</rscale>
<asrwt>0</asrwt>
<pdfrwt beam="1">  1        1 0.13138691E+00 0.69257255E+03</pdfrwt>
<pdfrwt beam="2">  1       -2 0.22434918E+00 0.69257255E+03</pdfrwt>
<totfact> 0.16868534E+00</totfact>
</mgrwt>
</event>
<event>
12    3  0.1182097E-007  0.7048861E+03  0.7818608E-02  0.9708913E-01
          1   -1    0    0  501    0  0.00000000000E+00  0.00000000000E+00  0.72742868043E+03  0.72742868043E+03  0.00000000000E+00 0. -1.
         -2   -1    0    0    0  501 -0.00000000000E+00 -0.00000000000E+00 -0.94438139852E+03  0.94438139852E+03  0.00000000000E+00 0.  1.
        -24    2    1    2    0    0  0.64553737023E+03  0.56555137332E+02  0.21651124332E+03  0.68798426665E+03  0.80797603622E+02 0.  0.
    5000000    2    1    2    0    0 -0.64553737023E+03 -0.56555137332E+02 -0.43346396142E+03  0.98382581231E+03  0.60008769625E+03 0.  0.
        -24    2    4    4    0    0 -0.46783522636E+03  0.13394224301E+03 -0.26089917269E+02  0.49358578848E+03  0.78332134648E+02 0.  0.
         24    2    4    4    0    0 -0.17770214386E+03 -0.19049738034E+03 -0.40737404415E+03  0.49024002383E+03  0.80711617902E+02 0.  0.
         11    1    3    3    0    0  0.57320505594E+03  0.58561842720E+02  0.16561766432E+03  0.59951875392E+03  0.00000000000E+00 0. -1.
        -12    1    3    3    0    0  0.72332314291E+02 -0.20067053884E+01  0.50893579008E+02  0.88465512723E+02  0.00000000000E+00 0.  1.
         15    1    5    5    0    0 -0.29746372235E+03  0.11157763797E+03  0.10583675088E+02  0.31788269427E+03  0.17770000000E+01 0. -1.
        -16    1    5    5    0    0 -0.17037150402E+03  0.22364605031E+02 -0.36673592356E+02  0.17570309421E+03  0.00000000000E+00 0.  1.
          4    1    6    6  502    0 -0.68531192978E+02 -0.24050841083E+02 -0.90621161249E+02  0.11613424230E+03  0.00000000000E+00 0. -1.
         -3    1    6    6    0  502 -0.10917095088E+03 -0.16644653925E+03 -0.31675288290E+03  0.37410578153E+03  0.00000000000E+00 0.  1.
<mgrwt>
<rscale>  0 0.70488607E+03</rscale>
<asrwt>0</asrwt>
<pdfrwt beam="1">  1        1 0.11191211E+00 0.70488607E+03</pdfrwt>
<pdfrwt beam="2">  1       -2 0.14528945E+00 0.70488607E+03</pdfrwt>
<totfact> 0.75348666E+00</totfact>
</mgrwt>
</event>
<event>
12    3  0.1182097E-007  0.4335171E+03  0.7818608E-02  0.1032755E+00
         -2   -1    0    0    0  501 -0.00000000000E+00  0.00000000000E+00  0.39509494807E+03  0.39509494807E+03  0.00000000000E+00 0.  1.
          1   -1    0    0  501    0  0.00000000000E+00 -0.00000000000E+00 -0.58702230631E+03  0.58702230631E+03  0.00000000000E+00 0. -1.
        -24    2    1    2    0    0 -0.22106019091E+03  0.57119777378E+02 -0.23654136584E+03  0.33868297090E+03  0.81388328709E+02 0.  0.
    5000000    2    1    2    0    0  0.22106019091E+03 -0.57119777378E+02  0.44614007603E+02  0.64343428348E+03  0.59990581803E+03 0.  0.
        -24    2    4    4    0    0 -0.12825840823E+03 -0.19884207049E+03 -0.22958444376E+02  0.25240083810E+03  0.84798022535E+02 0.  0.
         24    2    4    4    0    0  0.34931859915E+03  0.14172229311E+03  0.67572451979E+02  0.39103344538E+03  0.78945722278E+02 0.  0.
         11    1    3    3    0    0 -0.95757147857E+02  0.63514839310E+02 -0.91365283720E+02  0.14680320585E+03  0.00000000000E+00 0. -1.
        -12    1    3    3    0    0 -0.12530304306E+03 -0.63950619327E+01 -0.14517608212E+03  0.19187976505E+03  0.00000000000E+00 0.  1.
         15    1    5    5    0    0 -0.46384973445E+02 -0.13591652558E+03  0.10093706408E+02  0.14397884680E+03  0.17770000000E+01 0. -1.
        -16    1    5    5    0    0 -0.81873434788E+02 -0.62925544909E+02 -0.33052150785E+02  0.10842199130E+03  0.00000000000E+00 0.  1.
          2    1    6    6  502    0  0.81814785725E+02  0.54928934881E+02  0.46640153642E+02  0.10902362580E+03  0.00000000000E+00 0. -1.
         -1    1    6    6    0  502  0.26750381342E+03  0.86793358230E+02  0.20932298337E+02  0.28200981958E+03  0.00000000000E+00 0.  1.
<mgrwt>
<rscale>  0 0.43351713E+03</rscale>
<asrwt>0</asrwt>
<pdfrwt beam="1">  1        1 0.90311124E-01 0.43351713E+03</pdfrwt>
<pdfrwt beam="2">  1       -2 0.60783838E-01 0.43351713E+03</pdfrwt>
<totfact> 0.81328476E+01</totfact>
</mgrwt>
</event>
<event>
12    3  0.1182097E-007  0.5549821E+03  0.7818608E-02  0.1000347E+00
         -2   -1    0    0    0  501 -0.00000000000E+00  0.00000000000E+00  0.97003543753E+03  0.97003543753E+03  0.00000000000E+00 0.  1.
          1   -1    0    0  501    0  0.00000000000E+00 -0.00000000000E+00 -0.12517369432E+04  0.12517369432E+04  0.00000000000E+00 0. -1.
        -24    2    1    2    0    0  0.50104423312E+03 -0.13050012480E+03  0.75378824869E+03  0.91785535139E+03  0.78651866438E+02 0.  0.
    5000000    2    1    2    0    0 -0.50104423312E+03  0.13050012480E+03 -0.10354897544E+04  0.13039170294E+04  0.59990414395E+03 0.  0.
        -24    2    4    4    0    0 -0.32112711099E+03  0.20850043677E+03 -0.10167607725E+04  0.10893908650E+04  0.79843188798E+02 0.  0.
         24    2    4    4    0    0 -0.17991712213E+03 -0.78000311975E+02 -0.18728981891E+02  0.21452616433E+03  0.84949872952E+02 0.  0.
         13    1    3    3    0    0  0.13062630465E+03 -0.34723951354E+02  0.14010485821E+03  0.19467499982E+03  0.00000000000E+00 0. -1.
        -14    1    3    3    0    0  0.37041792847E+03 -0.95776173444E+02  0.61368339048E+03  0.72318035156E+03  0.00000000000E+00 0.  1.
         15    1    5    5    0    0 -0.10729246316E+03  0.43094318959E+02 -0.39073402518E+03  0.40748623184E+03  0.17770000000E+01 0. -1.
        -16    1    5    5    0    0 -0.21383464782E+03  0.16540611781E+03 -0.62602674732E+03  0.68190463320E+03  0.00000000000E+00 0.  1.
          4    1    6    6  502    0 -0.66805396663E+01 -0.23778687719E+02 -0.21847912051E+02  0.32975549440E+02  0.00000000000E+00 0. -1.
         -3    1    6    6    0  502 -0.17323658247E+03 -0.54221624256E+02  0.31189301600E+01  0.18155061489E+03  0.00000000000E+00 0.  1.
<mgrwt>
<rscale>  0 0.55498205E+03</rscale>
<asrwt>0</asrwt>
<pdfrwt beam="1">  1        1 0.19257491E+00 0.55498205E+03</pdfrwt>
<pdfrwt beam="2">  1       -2 0.14923622E+00 0.55498205E+03</pdfrwt>
<totfact> 0.27856521E+00</totfact>
</mgrwt>
</event>
<event>
12    3  0.1182097E-007  0.1107157E+04  0.7818608E-02  0.9198244E-01
         -4   -1    0    0    0  501 -0.00000000000E+00  0.00000000000E+00  0.50004557996E+03  0.50004557996E+03  0.00000000000E+00 0.  1.
          3   -1    0    0  501    0  0.00000000000E+00 -0.00000000000E+00 -0.26690281663E+04  0.26690281663E+04  0.00000000000E+00 0. -1.
        -24    2    1    2    0    0  0.98064315684E+03  0.41270867600E+03 -0.12304719446E+04  0.16286902626E+04  0.81125289701E+02 0.  0.
    5000000    2    1    2    0    0 -0.98064315684E+03 -0.41270867600E+03 -0.93851064169E+03  0.15403834837E+04  0.59999133315E+03 0.  0.
        -24    2    4    4    0    0 -0.38436059493E+03 -0.38891770506E+03 -0.70231848371E+03  0.89368042143E+03  0.80146084319E+02 0.  0.
         24    2    4    4    0    0 -0.59628256191E+03 -0.23790970932E+02 -0.23619215797E+03  0.64670306223E+03  0.79493466806E+02 0.  0.
         13    1    3    3    0    0  0.24604590328E+02  0.14391445970E+02 -0.16453170256E+02  0.32912101023E+02  0.00000000000E+00 0. -1.
        -14    1    3    3    0    0  0.95603856652E+03  0.39831723003E+03 -0.12140187744E+04  0.15957781616E+04  0.00000000000E+00 0.  1.
         15    1    5    5    0    0 -0.34113011704E+03 -0.32648868111E+03 -0.56117563254E+03  0.73340702473E+03  0.17770000000E+01 0. -1.
        -16    1    5    5    0    0 -0.43230477895E+02 -0.62429023953E+02 -0.14114285118E+03  0.16027339670E+03  0.00000000000E+00 0.  1.
          2    1    6    6  502    0 -0.54033426575E+02  0.20810957976E+02 -0.20391075638E+02  0.61388135051E+02  0.00000000000E+00 0. -1.
         -1    1    6    6    0  502 -0.54224913534E+03 -0.44601928908E+02 -0.21580108233E+03  0.58531492718E+03  0.00000000000E+00 0.  1.
<mgrwt>
<rscale>  0 0.11071570E+04</rscale>
<asrwt>0</asrwt>
<pdfrwt beam="1">  1        3 0.41061971E+00 0.11071570E+04</pdfrwt>
<pdfrwt beam="2">  1       -4 0.76930090E-01 0.11071570E+04</pdfrwt>
<totfact> 0.33196522E-02</totfact>
</mgrwt>
</event>
<event>
12    3  0.1182097E-007  0.7433058E+03  0.7818608E-02  0.9645911E-01
          1   -1    0    0  501    0  0.00000000000E+00  0.00000000000E+00  0.18919298073E+04  0.18919298073E+04  0.00000000000E+00 0. -1.
         -2   -1    0    0    0  501 -0.00000000000E+00 -0.00000000000E+00 -0.52838813359E+03  0.52838813359E+03  0.00000000000E+00 0.  1.
        -24    2    1    2    0    0  0.25822109030E+03 -0.57435558389E+03  0.14131693933E+04  0.15491825277E+04  0.79726418171E+02 0.  0.
    5000000    2    1    2    0    0 -0.25822109030E+03  0.57435558389E+03 -0.49627719552E+02  0.87113541323E+03  0.59987626175E+03 0.  0.
        -24    2    4    4    0    0 -0.33662278708E+03  0.73070459010E+02  0.93301366733E+01  0.35378683123E+03  0.80149096929E+02 0.  0.
         24    2    4    4    0    0  0.78401696777E+02  0.50128512488E+03 -0.58957856225E+02  0.51734858200E+03  0.82097040158E+02 0.  0.
         11    1    3    3    0    0  0.21432511248E+03 -0.52763891980E+03  0.12399850994E+04  0.13645149799E+04  0.00000000000E+00 0. -1.
        -12    1    3    3    0    0  0.43895977823E+02 -0.46716664087E+02  0.17318429386E+03  0.18466754781E+03  0.00000000000E+00 0.  1.
         15    1    5    5    0    0 -0.23880242042E+03  0.57164193377E+02  0.42647020067E+02  0.24923135247E+03  0.17770000000E+01 0. -1.
        -16    1    5    5    0    0 -0.97820366657E+02  0.15906265633E+02 -0.33316883393E+02  0.10455547876E+03  0.00000000000E+00 0.  1.
          4    1    6    6  502    0  0.28973313637E+02  0.28549665624E+03  0.46971014032E+01  0.28700149196E+03  0.00000000000E+00 0. -1.
         -3    1    6    6    0  502  0.49428383139E+02  0.21578846865E+03 -0.63654957629E+02  0.23034709004E+03  0.00000000000E+00 0.  1.
<mgrwt>
<rscale>  0 0.74330578E+03</rscale>
<asrwt>0</asrwt>
<pdfrwt beam="1">  1        1 0.29106612E+00 0.74330578E+03</pdfrwt>
<pdfrwt beam="2">  1       -2 0.81290483E-01 0.74330578E+03</pdfrwt>
<totfact> 0.43045809E+00</totfact>
</mgrwt>
</event>
<event>
12    3  0.1182097E-007  0.5085549E+03  0.7818608E-02  0.1011570E+00
         -2   -1    0    0    0  501 -0.00000000000E+00  0.00000000000E+00  0.35544495992E+03  0.35544495992E+03  0.00000000000E+00 0.  1.
          1   -1    0    0  501    0  0.00000000000E+00 -0.00000000000E+00 -0.14368853712E+04  0.14368853712E+04  0.00000000000E+00 0. -1.
        -24    2    1    2    0    0  0.46907060780E+03  0.12572233664E+03 -0.36919179462E+02  0.49369865085E+03  0.80882575390E+02 0.  0.
    5000000    2    1    2    0    0 -0.46907060780E+03 -0.12572233664E+03 -0.10445212318E+04  0.12986316803E+04  0.59965514777E+03 0.  0.
        -24    2    4    4    0    0 -0.43412944561E+03 -0.58638962266E+02 -0.27915081492E+03  0.52534426857E+03  0.78450746406E+02 0.  0.
         24    2    4    4    0    0 -0.34941162199E+02 -0.67083374376E+02 -0.76537041691E+03  0.77328741171E+03  0.80377124207E+02 0.  0.
         11    1    3    3    0    0  0.35290820954E+03  0.10310317585E+03 -0.61661720352E+02  0.37279570409E+03  0.00000000000E+00 0. -1.
        -12    1    3    3    0    0  0.11616239826E+03  0.22619160792E+02  0.24742540890E+02  0.12090294676E+03  0.00000000000E+00 0.  1.
         15    1    5    5    0    0 -0.25698032565E+03  0.19867194369E+01 -0.17706664858E+03  0.31208747267E+03  0.17770000000E+01 0. -1.
        -16    1    5    5    0    0 -0.17714911995E+03 -0.60625681703E+02 -0.10208416634E+03  0.21325679590E+03  0.00000000000E+00 0.  1.
          4    1    6    6  502    0 -0.29346027226E+01  0.62261042629E+01 -0.36181514756E+03  0.36188061190E+03  0.00000000000E+00 0. -1.
         -3    1    6    6    0  502 -0.32006559477E+02 -0.73309478639E+02 -0.40355526935E+03  0.41140679981E+03  0.00000000000E+00 0.  1.
<mgrwt>
<rscale>  0 0.50855494E+03</rscale>
<asrwt>0</asrwt>
<pdfrwt beam="1">  1        1 0.22105928E+00 0.50855494E+03</pdfrwt>
<pdfrwt beam="2">  1       -2 0.54683841E-01 0.50855494E+03</pdfrwt>
<totfact> 0.21303691E+01</totfact>
</mgrwt>
</event>
<event>
12    3  0.1182097E-007  0.1945089E+04  0.7818608E-02  0.8632733E-01
         -2   -1    0    0    0  501 -0.00000000000E+00  0.00000000000E+00  0.10919095592E+04  0.10919095592E+04  0.00000000000E+00 0.  1.
          1   -1    0    0  501    0  0.00000000000E+00 -0.00000000000E+00 -0.36131272363E+04  0.36131272363E+04  0.00000000000E+00 0. -1.
        -24    2    1    2    0    0  0.18778331731E+04 -0.47746015728E+03 -0.13491557546E+04  0.23623860712E+04  0.80131588415E+02 0.  0.
    5000000    2    1    2    0    0 -0.18778331731E+04  0.47746015728E+03 -0.11720619225E+04  0.23426507243E+04  0.60004803000E+03 0.  0.
        -24    2    4    4    0    0 -0.16971776110E+04  0.37527762167E+03 -0.81254852741E+03  0.19204023350E+04  0.80404492650E+02 0.  0.
         24    2    4    4    0    0 -0.18065556205E+03  0.10218253561E+03 -0.35951339513E+03  0.42224838927E+03  0.77240651775E+02 0.  0.
         13    1    3    3    0    0  0.93628005485E+02 -0.16167649978E+02 -0.47890249697E+02  0.10640052788E+03  0.00000000000E+00 0. -1.
        -14    1    3    3    0    0  0.17842051676E+04 -0.46129250730E+03 -0.13012655049E+04  0.22559855433E+04  0.00000000000E+00 0.  1.
         15    1    5    5    0    0 -0.47811146925E+03  0.12952129605E+03 -0.26239803807E+03  0.56055528832E+03  0.17770000000E+01 0. -1.
        -16    1    5    5    0    0 -0.12190661418E+04  0.24575632563E+03 -0.55015048934E+03  0.13598470467E+04  0.00000000000E+00 0.  1.
          4    1    6    6  502    0 -0.83046402756E+02  0.75320320067E+02 -0.13173646103E+03  0.17298656245E+03  0.00000000000E+00 0. -1.
         -3    1    6    6    0  502 -0.97609159291E+02  0.26862215540E+02 -0.22777693410E+03  0.24926182682E+03  0.00000000000E+00 0.  1.
<mgrwt>
<rscale>  0 0.19450891E+04</rscale>
<asrwt>0</asrwt>
<pdfrwt beam="1">  1        1 0.55586573E+00 0.19450891E+04</pdfrwt>
<pdfrwt beam="2">  1       -2 0.16798609E+00 0.19450891E+04</pdfrwt>
<totfact> 0.35448150E-02</totfact>
</mgrwt>
</event>
<event>
12    3  0.1182097E-007  0.4578461E+03  0.7818608E-02  0.1025408E+00
         -2   -1    0    0    0  501 -0.00000000000E+00  0.00000000000E+00  0.18783220257E+03  0.18783220257E+03  0.00000000000E+00 0.  1.
          1   -1    0    0  501    0  0.00000000000E+00 -0.00000000000E+00 -0.16489456136E+04  0.16489456136E+04  0.00000000000E+00 0. -1.
        -24    2    1    2    0    0 -0.29086683655E+03  0.22466936151E+03 -0.73456458765E+03  0.82520256371E+03  0.79336619045E+02 0.  0.
    5000000    2    1    2    0    0  0.29086683655E+03 -0.22466936151E+03 -0.72654882341E+03  0.10115752525E+04  0.60027615313E+03 0.  0.
        -24    2    4    4    0    0  0.32988865098E+03 -0.29558961731E+02 -0.10832158397E+03  0.35760235805E+03  0.80284660230E+02 0.  0.
         24    2    4    4    0    0 -0.39021814425E+02 -0.19511039978E+03 -0.61822723944E+03  0.65397289442E+03  0.76712821317E+02 0.  0.
         13    1    3    3    0    0 -0.22264038516E+03  0.13347852273E+03 -0.46466571626E+03  0.53225885150E+03  0.00000000000E+00 0. -1.
        -14    1    3    3    0    0 -0.68226451397E+02  0.91190838780E+02 -0.26989887139E+03  0.29294371221E+03  0.00000000000E+00 0.  1.
         15    1    5    5    0    0  0.21806110806E+03 -0.59728728410E+01 -0.32765227435E+02  0.22059700795E+03  0.17770000000E+01 0. -1.
        -16    1    5    5    0    0  0.11182754292E+03 -0.23586088890E+02 -0.75556356537E+02  0.13700535011E+03  0.00000000000E+00 0.  1.
          2    1    6    6  502    0 -0.41934062518E+02 -0.52742736529E+02 -0.25714789652E+03  0.26582946139E+03  0.00000000000E+00 0. -1.
         -1    1    6    6    0  502  0.29122480932E+01 -0.14236766325E+03 -0.36107934291E+03  0.38814343303E+03  0.00000000000E+00 0.  1.
<mgrwt>
<rscale>  0 0.45784609E+03</rscale>
<asrwt>0</asrwt>
<pdfrwt beam="1">  1        1 0.25368395E+00 0.45784609E+03</pdfrwt>
<pdfrwt beam="2">  1       -2 0.28897261E-01 0.45784609E+03</pdfrwt>
<totfact> 0.53256531E+01</totfact>
</mgrwt>
</event>
<event>
12    3  0.1182097E-007  0.7757885E+03  0.7818608E-02  0.9595739E-01
          3   -1    0    0  501    0  0.00000000000E+00  0.00000000000E+00  0.52432916188E+03  0.52432916188E+03  0.00000000000E+00 0. -1.
         -4   -1    0    0    0  501 -0.00000000000E+00 -0.00000000000E+00 -0.16499878249E+04  0.16499878249E+04  0.00000000000E+00 0.  1.
        -24    2    1    2    0    0  0.58678450555E+03  0.46444267745E+03 -0.92838482315E+03  0.11950683558E+04  0.79163998720E+02 0.  0.
    5000000    2    1    2    0    0 -0.58678450555E+03 -0.46444267745E+03 -0.19727383991E+03  0.97924863098E+03  0.59998988056E+03 0.  0.
        -24    2    4    4    0    0 -0.22528049375E+03 -0.34498361203E+03 -0.36405237951E+03  0.55557641100E+03  0.79787342373E+02 0.  0.
         24    2    4    4    0    0 -0.36150401181E+03 -0.11945906542E+03  0.16677853960E+03  0.42367221998E+03  0.82021032960E+02 0.  0.
         11    1    3    3    0    0  0.13024846063E+03  0.65247584560E+02 -0.16481392570E+03  0.21996713139E+03  0.00000000000E+00 0. -1.
        -12    1    3    3    0    0  0.45653604493E+03  0.39919509289E+03 -0.76357089744E+03  0.97510122445E+03  0.00000000000E+00 0.  1.
         15    1    5    5    0    0 -0.99412704349E+02 -0.19151037579E+03 -0.23385583081E+03  0.31819933556E+03  0.17770000000E+01 0. -1.
        -16    1    5    5    0    0 -0.12586778940E+03 -0.15347323624E+03 -0.13019654871E+03  0.23737707544E+03  0.00000000000E+00 0.  1.
          2    1    6    6  502    0 -0.57524179299E+02  0.26652297268E+01  0.48796341540E+02  0.75479915217E+02  0.00000000000E+00 0. -1.
         -1    1    6    6    0  502 -0.30397983251E+03 -0.12212429515E+03  0.11798219806E+03  0.34819230476E+03  0.00000000000E+00 0.  1.
<mgrwt>
<rscale>  0 0.77578847E+03</rscale>
<asrwt>0</asrwt>
<pdfrwt beam="1">  1        3 0.80666027E-01 0.77578847E+03</pdfrwt>
<pdfrwt beam="2">  1       -4 0.25384427E+00 0.77578847E+03</pdfrwt>
<totfact> 0.19462077E-01</totfact>
</mgrwt>
</event>
<event>
12    3  0.1182097E-007  0.8980716E+03  0.7818608E-02  0.9427995E-01
          1   -1    0    0  501    0  0.00000000000E+00  0.00000000000E+00  0.15675333530E+04  0.15675333530E+04  0.00000000000E+00 0. -1.
         -2   -1    0    0    0  501 -0.00000000000E+00 -0.00000000000E+00 -0.89349173352E+03  0.89349173352E+03  0.00000000000E+00 0.  1.
        -24    2    1    2    0    0  0.65109138496E+03 -0.57577345804E+03  0.10266252564E+04  0.13475551985E+04  0.80687851706E+02 0.  0.
    5000000    2    1    2    0    0 -0.65109138496E+03  0.57577345804E+03 -0.35258363685E+03  0.11134698881E+04  0.60005408432E+03 0.  0.
        -24    2    4    4    0    0 -0.81257171804E+02  0.23021131474E+03  0.12979682994E+03  0.28761729239E+03  0.79224443303E+02 0.  0.
         24    2    4    4    0    0 -0.56983421316E+03  0.34556214330E+03 -0.48238046679E+03  0.82585259568E+03  0.72231362166E+02 0.  0.
         13    1    3    3    0    0  0.35896218543E+03 -0.34369888621E+03  0.53227477756E+03  0.72821646079E+03  0.00000000000E+00 0. -1.
        -14    1    3    3    0    0  0.29212919953E+03 -0.23207457183E+03  0.49435047882E+03  0.61933873770E+03  0.00000000000E+00 0.  1.
         15    1    5    5    0    0  0.87051048272E+01  0.83301061835E+02  0.51983381140E+02  0.98591457017E+02  0.17770000000E+01 0. -1.
        -16    1    5    5    0    0 -0.89962276631E+02  0.14691025290E+03  0.77813448799E+02  0.18902583538E+03  0.00000000000E+00 0.  1.
          2    1    6    6  502    0 -0.42964876559E+03  0.29427196666E+03 -0.36463880278E+03  0.63573226175E+03  0.00000000000E+00 0. -1.
         -1    1    6    6    0  502 -0.14018544757E+03  0.51290176640E+02 -0.11774166401E+03  0.19012033393E+03  0.00000000000E+00 0.  1.
<mgrwt>
<rscale>  0 0.89807157E+03</rscale>
<asrwt>0</asrwt>
<pdfrwt beam="1">  1        1 0.24115898E+00 0.89807157E+03</pdfrwt>
<pdfrwt beam="2">  1       -2 0.13746027E+00 0.89807157E+03</pdfrwt>
<totfact> 0.19657080E+00</totfact>
</mgrwt>
</event>
<event>
12    3  0.1182097E-007  0.1949979E+04  0.7818608E-02  0.8630371E-01
         -2   -1    0    0    0  501 -0.00000000000E+00  0.00000000000E+00  0.24160799707E+04  0.24160799707E+04  0.00000000000E+00 0.  1.
          1   -1    0    0  501    0  0.00000000000E+00 -0.00000000000E+00 -0.17893855585E+04  0.17893855585E+04  0.00000000000E+00 0. -1.
        -24    2    1    2    0    0 -0.19420706193E+04  0.51242085451E+02  0.92022874465E+03  0.21511394585E+04  0.79473176185E+02 0.  0.
    5000000    2    1    2    0    0  0.19420706193E+04 -0.51242085451E+02 -0.29353433240E+03  0.20543260707E+04  0.59985761556E+03 0.  0.
        -24    2    4    4    0    0  0.14143977468E+04  0.50609807556E+02 -0.45435919987E+03  0.14886358066E+04  0.80696614272E+02 0.  0.
         24    2    4    4    0    0  0.52767287251E+03 -0.10185189301E+03  0.16082486747E+03  0.56569026410E+03  0.72995673913E+02 0.  0.
         13    1    3    3    0    0 -0.13490305365E+04  0.71833321222E+02  0.64508037237E+03  0.14970544751E+04  0.00000000000E+00 0. -1.
        -14    1    3    3    0    0 -0.59304008276E+03 -0.20591235771E+02  0.27514837228E+03  0.65408498340E+03  0.00000000000E+00 0.  1.
         15    1    5    5    0    0  0.28430203955E+03  0.28780196770E+02 -0.11979005049E+03  0.30985280916E+03  0.17770000000E+01 0. -1.
        -16    1    5    5    0    0  0.11300957072E+04  0.21829610786E+02 -0.33456914937E+03  0.11787829975E+04  0.00000000000E+00 0.  1.
          4    1    6    6  502    0  0.17593045226E+03 -0.57149156194E+02  0.28152019141E+02  0.18710982408E+03  0.00000000000E+00 0. -1.
         -3    1    6    6    0  502  0.35174242025E+03 -0.44702736813E+02  0.13267284833E+03  0.37858044002E+03  0.00000000000E+00 0.  1.
<mgrwt>
<rscale>  0 0.19499789E+04</rscale>
<asrwt>0</asrwt>
<pdfrwt beam="1">  1        1 0.27529009E+00 0.19499789E+04</pdfrwt>
<pdfrwt beam="2">  1       -2 0.37170461E+00 0.19499789E+04</pdfrwt>
<totfact> 0.36794482E-02</totfact>
</mgrwt>
</event>
<event>
12    3  0.1182097E-007  0.8120229E+03  0.7818608E-02  0.9542776E-01
          1   -1    0    0  501    0  0.00000000000E+00  0.00000000000E+00  0.23881398698E+04  0.23881398698E+04  0.00000000000E+00 0. -1.
         -2   -1    0    0    0  501 -0.00000000000E+00 -0.00000000000E+00 -0.11792184555E+04  0.11792184555E+04  0.00000000000E+00 0.  1.
        -24    2    1    2    0    0 -0.30491850242E+03  0.70502802344E+03 -0.93472191795E+03  0.12125255349E+04  0.80456833073E+02 0.  0.
    5000000    2    1    2    0    0  0.30491850242E+03 -0.70502802344E+03  0.21436433322E+04  0.23548327904E+04  0.59999243996E+03 0.  0.
        -24    2    4    4    0    0  0.31107689100E+03 -0.71820514037E+03  0.13905085007E+04  0.15975597243E+04  0.78075132372E+02 0.  0.
         24    2    4    4    0    0 -0.61583885786E+01  0.13177116926E+02  0.75313483149E+03  0.75727306612E+03  0.77710102921E+02 0.  0.
         11    1    3    3    0    0 -0.18207860595E+03  0.48335765454E+03 -0.67093606657E+03  0.84672453985E+03  0.00000000000E+00 0. -1.
        -12    1    3    3    0    0 -0.12283989647E+03  0.22167036890E+03 -0.26378585138E+03  0.36580099508E+03  0.00000000000E+00 0.  1.
         15    1    5    5    0    0  0.86399409055E+02 -0.28913166321E+03  0.50753713090E+03  0.59047360104E+03  0.17770000000E+01 0. -1.
        -16    1    5    5    0    0  0.22467748195E+03 -0.42907347716E+03  0.88297136984E+03  0.10070861233E+04  0.00000000000E+00 0.  1.
          4    1    6    6  502    0 -0.30291823222E+02  0.26654936640E+02  0.23791803961E+03  0.24131529950E+03  0.00000000000E+00 0. -1.
         -3    1    6    6    0  502  0.24133434643E+02 -0.13477819714E+02  0.51521679188E+03  0.51595776661E+03  0.00000000000E+00 0.  1.
<mgrwt>
<rscale>  0 0.81202293E+03</rscale>
<asrwt>0</asrwt>
<pdfrwt beam="1">  1        1 0.36740613E+00 0.81202293E+03</pdfrwt>
<pdfrwt beam="2">  1       -2 0.18141822E+00 0.81202293E+03</pdfrwt>
<totfact> 0.26339624E-01</totfact>
</mgrwt>
</event>
<event>
12    3  0.1182097E-007  0.2235026E+04  0.7818608E-02  0.8503989E-01
         -2   -1    0    0    0  501 -0.00000000000E+00  0.00000000000E+00  0.21318033615E+04  0.21318033615E+04  0.00000000000E+00 0.  1.
          1   -1    0    0  501    0  0.00000000000E+00 -0.00000000000E+00 -0.25836579188E+04  0.25836579188E+04  0.00000000000E+00 0. -1.
        -24    2    1    2    0    0 -0.16336384202E+04  0.15013364387E+04 -0.86040090788E+03  0.23810036034E+04  0.78120720749E+02 0.  0.
    5000000    2    1    2    0    0  0.16336384202E+04 -0.15013364387E+04  0.40854635057E+03  0.23344576769E+04  0.59999744554E+03 0.  0.
        -24    2    4    4    0    0  0.19909073923E+03 -0.36549738593E+03 -0.96369922808E+02  0.43464492277E+03  0.80022404968E+02 0.  0.
         24    2    4    4    0    0  0.14345476809E+04 -0.11358390527E+04  0.50491627338E+03  0.18998127541E+04  0.79313649239E+02 0.  0.
         13    1    3    3    0    0 -0.13801672694E+04  0.13054792029E+04 -0.73907618597E+03  0.20384727737E+04  0.00000000000E+00 0. -1.
        -14    1    3    3    0    0 -0.25347115080E+03  0.19585723580E+03 -0.12132472191E+03  0.34253082963E+03  0.00000000000E+00 0.  1.
         15    1    5    5    0    0  0.13365533950E+02 -0.66050290365E+02 -0.38277084992E+02  0.77521424907E+02  0.17770000000E+01 0. -1.
        -16    1    5    5    0    0  0.18572520528E+03 -0.29944709556E+03 -0.58092837815E+02  0.35712349786E+03  0.00000000000E+00 0.  1.
          4    1    6    6  502    0  0.90128360651E+03 -0.73724632513E+03  0.28654052654E+03  0.11991454276E+04  0.00000000000E+00 0. -1.
         -3    1    6    6    0  502  0.53326407444E+03 -0.39859272762E+03  0.21837574684E+03  0.70066732649E+03  0.00000000000E+00 0.  1.
<mgrwt>
<rscale>  0 0.22350259E+04</rscale>
<asrwt>0</asrwt>
<pdfrwt beam="1">  1        1 0.39748583E+00 0.22350259E+04</pdfrwt>
<pdfrwt beam="2">  1       -2 0.32796975E+00 0.22350259E+04</pdfrwt>
<totfact> 0.19182385E-02</totfact>
</mgrwt>
</event>
<event>
12    3  0.1182097E-007  0.7730539E+03  0.7818608E-02  0.9599861E-01
         -2   -1    0    0    0  501 -0.00000000000E+00  0.00000000000E+00  0.52494707820E+03  0.52494707820E+03  0.00000000000E+00 0.  1.
          1   -1    0    0  501    0  0.00000000000E+00 -0.00000000000E+00 -0.21802878543E+04  0.21802878543E+04  0.00000000000E+00 0. -1.
        -24    2    1    2    0    0  0.32577255730E+03  0.69223927867E+03 -0.15455561189E+04  0.17265415135E+04  0.82939153277E+02 0.  0.
    5000000    2    1    2    0    0 -0.32577255730E+03 -0.69223927867E+03 -0.10978465718E+03  0.97869341898E+03  0.60038750768E+03 0.  0.
        -24    2    4    4    0    0 -0.14396078140E+03 -0.37513164937E+03  0.23327134524E+03  0.47083915619E+03  0.76325156760E+02 0.  0.
         24    2    4    4    0    0 -0.18181177590E+03 -0.31710762931E+03 -0.34305600241E+03  0.50785426279E+03  0.81337328595E+02 0.  0.
         11    1    3    3    0    0  0.22377887256E+03  0.38255635991E+03 -0.91420216614E+03  0.10159684803E+04  0.00000000000E+00 0. -1.
        -12    1    3    3    0    0  0.10199368474E+03  0.30968291876E+03 -0.63135395278E+03  0.71057303325E+03  0.00000000000E+00 0.  1.
         15    1    5    5    0    0 -0.80869630674E+01 -0.10015923174E+03  0.77030668336E+02  0.12662603313E+03  0.17770000000E+01 0. -1.
        -16    1    5    5    0    0 -0.13587381833E+03 -0.27497241763E+03  0.15624067690E+03  0.34421312306E+03  0.00000000000E+00 0.  1.
          4    1    6    6  502    0 -0.76941839606E+02 -0.18920102215E+03 -0.22948969338E+03  0.30721750086E+03  0.00000000000E+00 0. -1.
         -3    1    6    6    0  502 -0.10486993630E+03 -0.12790660715E+03 -0.11356630904E+03  0.20063676194E+03  0.00000000000E+00 0.  1.
<mgrwt>
<rscale>  0 0.77305385E+03</rscale>
<asrwt>0</asrwt>
<pdfrwt beam="1">  1        1 0.33542890E+00 0.77305385E+03</pdfrwt>
<pdfrwt beam="2">  1       -2 0.80761090E-01 0.77305385E+03</pdfrwt>
<totfact> 0.27875744E+00</totfact>
</mgrwt>
</event>
<event>
12    3  0.1182097E-007  0.5203634E+03  0.7818608E-02  0.1008596E+00
          1   -1    0    0  501    0  0.00000000000E+00  0.00000000000E+00  0.14342389768E+04  0.14342389768E+04  0.00000000000E+00 0. -1.
         -4   -1    0    0    0  501 -0.00000000000E+00 -0.00000000000E+00 -0.21570765111E+03  0.21570765111E+03  0.00000000000E+00 0.  1.
        -24    2    1    2    0    0  0.34162897731E+03  0.71430704348E+02  0.18042409250E+03  0.40105370598E+03  0.80489243140E+02 0.  0.
    5000000    2    1    2    0    0 -0.34162897731E+03 -0.71430704348E+02  0.10381072331E+04  0.12488929219E+04  0.60021179527E+03 0.  0.
        -24    2    4    4    0    0 -0.34637824643E+03  0.20003324620E+03  0.67342333119E+03  0.78729469482E+03  0.79641473595E+02 0.  0.
         24    2    4    4    0    0  0.47492691150E+01 -0.27146395055E+03  0.36468390196E+03  0.46159822708E+03  0.79770564046E+02 0.  0.
         11    1    3    3    0    0  0.23961481440E+03  0.34520522439E+02  0.16127822344E+03  0.29089102961E+03  0.00000000000E+00 0. -1.
        -12    1    3    3    0    0  0.10201416292E+03  0.36910181909E+02  0.19145869060E+02  0.11016267637E+03  0.00000000000E+00 0.  1.
         15    1    5    5    0    0 -0.20944092388E+03  0.76751067610E+02  0.38842616577E+03  0.44792217065E+03  0.17770000000E+01 0. -1.
        -16    1    5    5    0    0 -0.13693732255E+03  0.12328217859E+03  0.28499716541E+03  0.33937252417E+03  0.00000000000E+00 0.  1.
          2    1    6    6  502    0 -0.34979782238E+02 -0.17572558929E+03  0.23831175951E+03  0.29815358897E+03  0.00000000000E+00 0. -1.
         -1    1    6    6    0  502  0.39729051353E+02 -0.95738361256E+02  0.12637214245E+03  0.16344463810E+03  0.00000000000E+00 0.  1.
<mgrwt>
<rscale>  0 0.52036339E+03</rscale>
<asrwt>0</asrwt>
<pdfrwt beam="1">  1        1 0.22065214E+00 0.52036339E+03</pdfrwt>
<pdfrwt beam="2">  1       -4 0.33185793E-01 0.52036339E+03</pdfrwt>
<totfact> 0.32353532E+01</totfact>
</mgrwt>
</event>
<event>
12    3  0.1182097E-007  0.4634919E+03  0.7818608E-02  0.1023773E+00
          1   -1    0    0  501    0  0.00000000000E+00  0.00000000000E+00  0.21786722645E+04  0.21786722645E+04  0.00000000000E+00 0. -1.
         -2   -1    0    0    0  501 -0.00000000000E+00 -0.00000000000E+00 -0.16977620062E+03  0.16977620062E+03  0.00000000000E+00 0.  1.
        -24    2    1    2    0    0 -0.24889179478E+03 -0.33469157418E+03  0.40844016518E+03  0.58905383018E+03  0.78711314222E+02 0.  0.
    5000000    2    1    2    0    0  0.24889179478E+03  0.33469157418E+03  0.16004558987E+04  0.17593946349E+04  0.60003735087E+03 0.  0.
        -24    2    4    4    0    0  0.15449701821E+03  0.35600767111E+03  0.15840772632E+04  0.16328763876E+04  0.79835650093E+02 0.  0.
         24    2    4    4    0    0  0.94394776564E+02 -0.21316096930E+02  0.16378635504E+02  0.12651824730E+03  0.79836441351E+02 0.  0.
         11    1    3    3    0    0 -0.77280777224E+02 -0.54435927916E+02  0.11116100713E+03  0.14591901275E+03  0.00000000000E+00 0. -1.
        -12    1    3    3    0    0 -0.17161101755E+03 -0.28025564626E+03  0.29727915805E+03  0.44313481743E+03  0.00000000000E+00 0.  1.
         15    1    5    5    0    0  0.65169477844E+02  0.11449650674E+03  0.40065297712E+03  0.42176116073E+03  0.17770000000E+01 0. -1.
        -16    1    5    5    0    0  0.89327540368E+02  0.24151116437E+03  0.11834242861E+04  0.12111152269E+04  0.00000000000E+00 0.  1.
          4    1    6    6  502    0  0.62841439634E+02  0.16842855365E+02 -0.16452898888E+02  0.67107571808E+02  0.00000000000E+00 0. -1.
         -3    1    6    6    0  502  0.31553336930E+02 -0.38158952295E+02  0.32831534392E+02  0.59410675491E+02  0.00000000000E+00 0.  1.
<mgrwt>
<rscale>  0 0.46349195E+03</rscale>
<asrwt>0</asrwt>
<pdfrwt beam="1">  1        1 0.33518033E+00 0.46349195E+03</pdfrwt>
<pdfrwt beam="2">  1       -2 0.26119417E-01 0.46349195E+03</pdfrwt>
<totfact> 0.28529936E+01</totfact>
</mgrwt>
</event>
<event>
12    3  0.1182097E-007  0.6564137E+03  0.7818608E-02  0.9794818E-01
         -2   -1    0    0    0  501 -0.00000000000E+00  0.00000000000E+00  0.39539546991E+03  0.39539546991E+03  0.00000000000E+00 0.  1.
          1   -1    0    0  501    0  0.00000000000E+00 -0.00000000000E+00 -0.14252409779E+04  0.14252409779E+04  0.00000000000E+00 0. -1.
        -24    2    1    2    0    0  0.23757032843E+02 -0.60786035408E+03 -0.24518140944E+03  0.66057655680E+03  0.78669290027E+02 0.  0.
    5000000    2    1    2    0    0 -0.23757032843E+02  0.60786035408E+03 -0.78466409859E+03  0.11600598910E+04  0.59998549693E+03 0.  0.
        -24    2    4    4    0    0 -0.15119719766E+03  0.15301529905E+03 -0.60704425048E+03  0.64905413715E+03  0.80587074600E+02 0.  0.
         24    2    4    4    0    0  0.12744016481E+03  0.45484505503E+03 -0.17761984811E+03  0.51100575389E+03  0.80330880574E+02 0.  0.
         11    1    3    3    0    0  0.52315914778E+02 -0.43933979933E+03 -0.17428275177E+03  0.47553221949E+03  0.00000000000E+00 0. -1.
        -12    1    3    3    0    0 -0.28558881935E+02 -0.16852055475E+03 -0.70898657673E+02  0.18504433731E+03  0.00000000000E+00 0.  1.
         15    1    5    5    0    0 -0.13470734409E+03  0.90299964829E+02 -0.38582435075E+03  0.41852567371E+03  0.17770000000E+01 0. -1.
        -16    1    5    5    0    0 -0.16489853563E+02  0.62715334219E+02 -0.22121989973E+03  0.23052846344E+03  0.00000000000E+00 0.  1.
          4    1    6    6  502    0  0.17512161341E+02  0.73506261189E+02  0.15255770425E+01  0.75578923082E+02  0.00000000000E+00 0. -1.
         -3    1    6    6    0  502  0.10992800347E+03  0.38133879384E+03 -0.17914542515E+03  0.43542683081E+03  0.00000000000E+00 0.  1.
<mgrwt>
<rscale>  0 0.65641375E+03</rscale>
<asrwt>0</asrwt>
<pdfrwt beam="1">  1        1 0.21926784E+00 0.65641375E+03</pdfrwt>
<pdfrwt beam="2">  1       -2 0.60830072E-01 0.65641375E+03</pdfrwt>
<totfact> 0.16974621E+01</totfact>
</mgrwt>
</event>
<event>
12    3  0.1182097E-007  0.1508837E+04  0.7818608E-02  0.8878598E-01
          1   -1    0    0  501    0  0.00000000000E+00  0.00000000000E+00  0.16489250890E+04  0.16489250890E+04  0.00000000000E+00 0. -1.
         -2   -1    0    0    0  501 -0.00000000000E+00 -0.00000000000E+00 -0.14285113731E+04  0.14285113731E+04  0.00000000000E+00 0.  1.
        -24    2    1    2    0    0 -0.18618274274E+03 -0.14523893060E+04  0.28394341004E+03  0.14937701238E+04  0.81404009474E+02 0.  0.
    5000000    2    1    2    0    0  0.18618274274E+03  0.14523893060E+04 -0.63529694151E+02  0.15836663383E+04  0.59988693876E+03 0.  0.
        -24    2    4    4    0    0  0.17603964118E+03  0.13523500876E+03  0.95210146644E+02  0.25454738946E+03  0.80317735221E+02 0.  0.
         24    2    4    4    0    0  0.10143101559E+02  0.13171542972E+04 -0.15873984080E+03  0.13291189489E+04  0.79752855798E+02 0.  0.
         13    1    3    3    0    0 -0.90979221474E+02 -0.75275859141E+03  0.18806831485E+03  0.78121213939E+03  0.00000000000E+00 0. -1.
        -14    1    3    3    0    0 -0.95203521268E+02 -0.69963071459E+03  0.95875095191E+02  0.71255798440E+03  0.00000000000E+00 0.  1.
         15    1    5    5    0    0  0.18406584194E+03  0.12394430662E+03  0.86454391960E+02  0.23815949473E+03  0.17770000000E+01 0. -1.
        -16    1    5    5    0    0 -0.80262007536E+01  0.11290702147E+02  0.87557546842E+01  0.16387894727E+02  0.00000000000E+00 0.  1.
          4    1    6    6  502    0  0.20413903987E+02  0.11060461224E+04 -0.16007989188E+03  0.11177568269E+04  0.00000000000E+00 0. -1.
         -3    1    6    6    0  502 -0.10270802428E+02  0.21110817481E+03  0.13400510863E+01  0.21136212194E+03  0.00000000000E+00 0.  1.
<mgrwt>
<rscale>  0 0.15088368E+04</rscale>
<asrwt>0</asrwt>
<pdfrwt beam="1">  1        1 0.25368078E+00 0.15088368E+04</pdfrwt>
<pdfrwt beam="2">  1       -2 0.21977098E+00 0.15088368E+04</pdfrwt>
<totfact> 0.42275628E-01</totfact>
</mgrwt>
</event>
<event>
12    3  0.1182097E-007  0.2131392E+04  0.7818608E-02  0.8547540E-01
          1   -1    0    0  501    0  0.00000000000E+00  0.00000000000E+00  0.18821440777E+04  0.18821440777E+04  0.00000000000E+00 0. -1.
         -2   -1    0    0    0  501 -0.00000000000E+00 -0.00000000000E+00 -0.26080314096E+04  0.26080314096E+04  0.00000000000E+00 0.  1.
        -24    2    1    2    0    0 -0.20761181751E+04  0.47754101968E+03  0.84008739484E+02  0.21334613107E+04  0.79294349375E+02 0.  0.
    5000000    2    1    2    0    0  0.20761181751E+04 -0.47754101968E+03 -0.80989607134E+03  0.23567141766E+04  0.59988162275E+03 0.  0.
        -24    2    4    4    0    0  0.92101763756E+03 -0.22672334638E+03 -0.58018192745E+02  0.95358195633E+03  0.79217878351E+02 0.  0.
         24    2    4    4    0    0  0.11551005375E+04 -0.25081767330E+03 -0.75187787860E+03  0.14031322202E+04  0.79327965734E+02 0.  0.
         13    1    3    3    0    0 -0.13106628454E+04  0.29012901843E+03  0.89600110385E+02  0.13453773157E+04  0.00000000000E+00 0. -1.
        -14    1    3    3    0    0 -0.76545532964E+03  0.18741200125E+03 -0.55913709005E+01  0.78808399509E+03  0.00000000000E+00 0.  1.
         15    1    5    5    0    0  0.32264615790E+03 -0.10738078559E+03 -0.47356960083E+02  0.34333222354E+03  0.17770000000E+01 0. -1.
        -16    1    5    5    0    0  0.59837147966E+03 -0.11934256079E+03 -0.10661232662E+02  0.61024973279E+03  0.00000000000E+00 0.  1.
          2    1    6    6  502    0  0.19151561849E+03 -0.47579346072E+02 -0.92190316202E+02  0.21780973509E+03  0.00000000000E+00 0. -1.
         -1    1    6    6    0  502  0.96358491901E+03 -0.20323832723E+03 -0.65968756240E+03  0.11853224851E+04  0.00000000000E+00 0.  1.
<mgrwt>
<rscale>  0 0.21313920E+04</rscale>
<asrwt>0</asrwt>
<pdfrwt beam="1">  1        1 0.28956063E+00 0.21313920E+04</pdfrwt>
<pdfrwt beam="2">  1       -2 0.40123560E+00 0.21313920E+04</pdfrwt>
<totfact> 0.20049436E-02</totfact>
</mgrwt>
</event>
<event>
12    3  0.1182097E-007  0.5347381E+03  0.7818608E-02  0.1005090E+00
         -2   -1    0    0    0  501 -0.00000000000E+00  0.00000000000E+00  0.62773440404E+03  0.62773440404E+03  0.00000000000E+00 0.  1.
          1   -1    0    0  501    0  0.00000000000E+00 -0.00000000000E+00 -0.59929385376E+03  0.59929385376E+03  0.00000000000E+00 0. -1.
        -24    2    1    2    0    0  0.46141370931E+03 -0.28071242440E+02  0.24716373875E+02  0.46954286446E+03  0.78542960406E+02 0.  0.
    5000000    2    1    2    0    0 -0.46141370931E+03  0.28071242440E+02  0.37241764054E+01  0.75748539334E+03  0.60006636786E+03 0.  0.
        -24    2    4    4    0    0 -0.98901863091E+02  0.18038375247E+03 -0.20839575889E+03  0.30362238887E+03  0.80236438232E+02 0.  0.
         24    2    4    4    0    0 -0.36251184622E+03 -0.15231251003E+03  0.21211993530E+03  0.45386300447E+03  0.79892556050E+02 0.  0.
         13    1    3    3    0    0  0.31355091645E+03  0.17499995794E+02  0.21694038984E+02  0.31478732247E+03  0.00000000000E+00 0. -1.
        -14    1    3    3    0    0  0.14786279287E+03 -0.45571238235E+02  0.30223348911E+01  0.15475554199E+03  0.00000000000E+00 0.  1.
         15    1    5    5    0    0 -0.45730211924E+02  0.57402778705E+02 -0.27242670127E+02  0.78304866325E+02  0.17770000000E+01 0. -1.
        -16    1    5    5    0    0 -0.53171651167E+02  0.12298097377E+03 -0.18115308876E+03  0.22531752254E+03  0.00000000000E+00 0.  1.
          2    1    6    6  502    0 -0.19945171424E+03 -0.88697691839E+02  0.72637292090E+02  0.23005313093E+03  0.00000000000E+00 0. -1.
         -1    1    6    6    0  502 -0.16306013198E+03 -0.63614818194E+02  0.13948264321E+03  0.22380987354E+03  0.00000000000E+00 0.  1.
<mgrwt>
<rscale>  0 0.53473806E+03</rscale>
<asrwt>0</asrwt>
<pdfrwt beam="1">  1        1 0.92199054E-01 0.53473806E+03</pdfrwt>
<pdfrwt beam="2">  1       -2 0.96574524E-01 0.53473806E+03</pdfrwt>
<totfact> 0.28022878E+01</totfact>
</mgrwt>
</event>
<event>
12    3  0.1182097E-007  0.4039912E+03  0.7818608E-02  0.1042406E+00
         -4   -1    0    0    0  501 -0.00000000000E+00  0.00000000000E+00  0.13847613617E+03  0.13847613617E+03  0.00000000000E+00 0.  1.
          3   -1    0    0  501    0  0.00000000000E+00 -0.00000000000E+00 -0.24542337309E+04  0.24542337309E+04  0.00000000000E+00 0. -1.
        -24    2    1    2    0    0 -0.12806115114E+03  0.13489441170E+03 -0.11384690775E+02  0.20423602696E+03  0.83585780995E+02 0.  0.
    5000000    2    1    2    0    0  0.12806115114E+03 -0.13489441170E+03 -0.23043729040E+04  0.23884738401E+04  0.60006386632E+03 0.  0.
        -24    2    4    4    0    0  0.78429652295E+02  0.22630544848E+03 -0.10018475693E+04  0.10335233096E+04  0.84300136065E+02 0.  0.
         24    2    4    4    0    0  0.49631498844E+02 -0.36119986018E+03 -0.13025253347E+04  0.13549505306E+04  0.79937901628E+02 0.  0.
         13    1    3    3    0    0 -0.60654258239E+02  0.11957434208E+03  0.59619716733E+00  0.13407952035E+03  0.00000000000E+00 0. -1.
        -14    1    3    3    0    0 -0.67406892899E+02  0.15320069621E+02 -0.11980887943E+02  0.70156506608E+02  0.00000000000E+00 0.  1.
         15    1    5    5    0    0  0.56909955890E+02  0.13794693714E+03 -0.77289244529E+03  0.78716833667E+03  0.17770000000E+01 0. -1.
        -16    1    5    5    0    0  0.21519696405E+02  0.88358511346E+02 -0.22895512400E+03  0.24635497288E+03  0.00000000000E+00 0.  1.
          4    1    6    6  502    0  0.22571400166E+02 -0.17289736063E+03 -0.76910740512E+03  0.78862485760E+03  0.00000000000E+00 0. -1.
         -3    1    6    6    0  502  0.27060098678E+02 -0.18830249955E+03 -0.53341792955E+03  0.56632567295E+03  0.00000000000E+00 0.  1.
<mgrwt>
<rscale>  0 0.40399119E+03</rscale>
<asrwt>0</asrwt>
<pdfrwt beam="1">  1        3 0.37757441E+00 0.40399119E+03</pdfrwt>
<pdfrwt beam="2">  1       -4 0.21304021E-01 0.40399119E+03</pdfrwt>
<totfact> 0.73289259E-01</totfact>
</mgrwt>
</event>
<event>
12    3  0.1182097E-007  0.1066499E+04  0.7818608E-02  0.9238473E-01
          1   -1    0    0  501    0  0.00000000000E+00  0.00000000000E+00  0.98398325817E+03  0.98398325817E+03  0.00000000000E+00 0. -1.
         -2   -1    0    0    0  501 -0.00000000000E+00 -0.00000000000E+00 -0.12834570617E+04  0.12834570617E+04  0.00000000000E+00 0.  1.
        -24    2    1    2    0    0  0.97698995824E+03 -0.32419196218E+03  0.24010221791E+02  0.10328792833E+04  0.81567863390E+02 0.  0.
    5000000    2    1    2    0    0 -0.97698995824E+03  0.32419196218E+03 -0.32348402533E+03  0.12345610366E+04  0.59990768582E+03 0.  0.
        -24    2    4    4    0    0 -0.25420099602E+03  0.27131186192E+03 -0.33426300764E+03  0.50550431056E+03  0.74663089421E+02 0.  0.
         24    2    4    4    0    0 -0.72278896221E+03  0.52880100261E+02  0.10778982313E+02  0.72905672599E+03  0.78659610693E+02 0.  0.
         11    1    3    3    0    0  0.90337532333E+03 -0.29964312739E+03  0.43850172440E+02  0.95278319476E+03  0.00000000000E+00 0. -1.
        -12    1    3    3    0    0  0.73614634908E+02 -0.24548834790E+02 -0.19839950649E+02  0.80096088568E+02  0.00000000000E+00 0.  1.
         15    1    5    5    0    0 -0.92882697568E+02  0.68049420554E+02 -0.68148375661E+02  0.13381060488E+03  0.17770000000E+01 0. -1.
        -16    1    5    5    0    0 -0.16131829846E+03  0.20326244137E+03 -0.26611463198E+03  0.37169370568E+03  0.00000000000E+00 0.  1.
          4    1    6    6  502    0 -0.17805710815E+03 -0.20841791144E+02  0.39733555025E+01  0.17931676323E+03  0.00000000000E+00 0. -1.
         -3    1    6    6    0  502 -0.54473185406E+03  0.73721891405E+02  0.68056268106E+01  0.54973996277E+03  0.00000000000E+00 0.  1.
<mgrwt>
<rscale>  0 0.10664995E+04</rscale>
<asrwt>0</asrwt>
<pdfrwt beam="1">  1        1 0.15138204E+00 0.10664995E+04</pdfrwt>
<pdfrwt beam="2">  1       -2 0.19745493E+00 0.10664995E+04</pdfrwt>
<totfact> 0.18671452E+00</totfact>
</mgrwt>
</event>
<event>
12    3  0.1182097E-007  0.5652284E+03  0.7818608E-02  0.9980294E-01
          1   -1    0    0  501    0  0.00000000000E+00  0.00000000000E+00  0.23669291402E+04  0.23669291402E+04  0.00000000000E+00 0. -1.
         -2   -1    0    0    0  501 -0.00000000000E+00 -0.00000000000E+00 -0.20357531024E+03  0.20357531024E+03  0.00000000000E+00 0.  1.
        -24    2    1    2    0    0  0.28749943708E+03  0.29229165807E+03  0.15922869949E+04  0.16461990157E+04  0.80641089755E+02 0.  0.
    5000000    2    1    2    0    0 -0.28749943708E+03 -0.29229165807E+03  0.57106683501E+03  0.92430543472E+03  0.60011071222E+03 0.  0.
        -24    2    4    4    0    0 -0.24306090585E+03 -0.46294642881E+03  0.45728865178E+03  0.69916921835E+03  0.79540461080E+02 0.  0.
         24    2    4    4    0    0 -0.44438531228E+02  0.17065477074E+03  0.11377818324E+03  0.22513621637E+03  0.81504644713E+02 0.  0.
         11    1    3    3    0    0  0.13789686618E+03  0.18756595049E+03  0.80327124158E+03  0.83632602437E+03  0.00000000000E+00 0. -1.
        -12    1    3    3    0    0  0.14960257090E+03  0.10472570758E+03  0.78901575335E+03  0.80987299132E+03  0.00000000000E+00 0.  1.
         15    1    5    5    0    0 -0.27580623330E+02 -0.70453793470E+02  0.10505108713E+03  0.12947322670E+03  0.17770000000E+01 0. -1.
        -16    1    5    5    0    0 -0.21548028252E+03 -0.39249263534E+03  0.35223756465E+03  0.56969599165E+03  0.00000000000E+00 0.  1.
          2    1    6    6  502    0 -0.34414450566E+02  0.18404534019E+02  0.39165115067E+02  0.55290030914E+02  0.00000000000E+00 0. -1.
         -1    1    6    6    0  502 -0.10024080662E+02  0.15225023672E+03  0.74613068168E+02  0.16984618546E+03  0.00000000000E+00 0.  1.
<mgrwt>
<rscale>  0 0.56522835E+03</rscale>
<asrwt>0</asrwt>
<pdfrwt beam="1">  1        1 0.36414293E+00 0.56522835E+03</pdfrwt>
<pdfrwt beam="2">  1       -2 0.31319280E-01 0.56522835E+03</pdfrwt>
<totfact> 0.15007322E+01</totfact>
</mgrwt>
</event>
<event>
12    3  0.1182097E-007  0.7399816E+03  0.7818608E-02  0.9651200E-01
         -4   -1    0    0    0  501 -0.00000000000E+00  0.00000000000E+00  0.22867822301E+03  0.22867822301E+03  0.00000000000E+00 0.  1.
          3   -1    0    0  501    0  0.00000000000E+00 -0.00000000000E+00 -0.24837900886E+04  0.24837900886E+04  0.00000000000E+00 0. -1.
        -24    2    1    2    0    0  0.75517999725E+02 -0.62094912607E+03 -0.79462215666E+03  0.10141511048E+04  0.76140042282E+02 0.  0.
    5000000    2    1    2    0    0 -0.75517999725E+02  0.62094912607E+03 -0.14604897090E+04  0.16983172069E+04  0.59997529924E+03 0.  0.
        -24    2    4    4    0    0  0.21000552796E+03  0.81453642185E+02 -0.40580954326E+03  0.47714064907E+03  0.11065620628E+03 0.  0.
         24    2    4    4    0    0 -0.28552352768E+03  0.53949548388E+03 -0.10546801657E+04  0.12211765578E+04  0.79642145917E+02 0.  0.
         11    1    3    3    0    0  0.12939015955E+02 -0.48481078778E+02 -0.99783981663E+02  0.11169008967E+03  0.00000000000E+00 0. -1.
        -12    1    3    3    0    0  0.62578983770E+02 -0.57246804729E+03 -0.69483817500E+03  0.90246101512E+03  0.00000000000E+00 0.  1.
         15    1    5    5    0    0  0.38270937135E+02  0.57556712302E+02 -0.65674815345E+02  0.95361306932E+02  0.17770000000E+01 0. -1.
        -16    1    5    5    0    0  0.17173459082E+03  0.23896929883E+02 -0.34013472792E+03  0.38177934213E+03  0.00000000000E+00 0.  1.
          2    1    6    6  502    0 -0.11073753914E+03  0.24602976092E+03 -0.39563512904E+03  0.47887430623E+03  0.00000000000E+00 0. -1.
         -1    1    6    6    0  502 -0.17478598854E+03  0.29346572297E+03 -0.65904503665E+03  0.74230225157E+03  0.00000000000E+00 0.  1.
<mgrwt>
<rscale>  0 0.73998162E+03</rscale>
<asrwt>0</asrwt>
<pdfrwt beam="1">  1        3 0.38212154E+00 0.73998162E+03</pdfrwt>
<pdfrwt beam="2">  1       -4 0.35181266E-01 0.73998162E+03</pdfrwt>
<totfact> 0.25642004E-01</totfact>
</mgrwt>
</event>
<event>
12    3  0.1182097E-007  0.6919359E+03  0.7818608E-02  0.9731123E-01
         -2   -1    0    0    0  501 -0.00000000000E+00  0.00000000000E+00  0.13943819635E+04  0.13943819635E+04  0.00000000000E+00 0.  1.
          1   -1    0    0  501    0  0.00000000000E+00 -0.00000000000E+00 -0.43700388561E+03  0.43700388561E+03  0.00000000000E+00 0. -1.
        -24    2    1    2    0    0  0.51858538204E+03  0.40048419034E+03  0.29500952881E+03  0.72300498638E+03  0.79919979150E+02 0.  0.
    5000000    2    1    2    0    0 -0.51858538204E+03 -0.40048419034E+03  0.66236854905E+03  0.11083808627E+04  0.60038125958E+03 0.  0.
        -24    2    4    4    0    0 -0.48495090302E+03 -0.41869614797E+03  0.74598859579E+03  0.98651493679E+03  0.78923334947E+02 0.  0.
         24    2    4    4    0    0 -0.33634479024E+02  0.18211957637E+02 -0.83620046739E+02  0.12186592591E+03  0.79975234298E+02 0.  0.
         13    1    3    3    0    0  0.34413493810E+03  0.22006615874E+03  0.19803019537E+03  0.45395366297E+03  0.00000000000E+00 0. -1.
        -14    1    3    3    0    0  0.17445044394E+03  0.18041803159E+03  0.96979333445E+02  0.26905132341E+03  0.00000000000E+00 0.  1.
         15    1    5    5    0    0 -0.16757824497E+03 -0.11411745514E+03  0.28004672091E+03  0.34573774075E+03  0.17770000000E+01 0. -1.
        -16    1    5    5    0    0 -0.31737265805E+03 -0.30457869284E+03  0.46594187488E+03  0.64077719605E+03  0.00000000000E+00 0.  1.
          2    1    6    6  502    0  0.19467530107E+02 -0.97564961683E+01 -0.46370631569E+02  0.51228990016E+02  0.00000000000E+00 0. -1.
         -1    1    6    6    0  502 -0.53102009131E+02  0.27968453806E+02 -0.37249415169E+02  0.70636935894E+02  0.00000000000E+00 0.  1.
<mgrwt>
<rscale>  0 0.69193588E+03</rscale>
<asrwt>0</asrwt>
<pdfrwt beam="1">  1        1 0.67231368E-01 0.69193588E+03</pdfrwt>
<pdfrwt beam="2">  1       -2 0.21452030E+00 0.69193588E+03</pdfrwt>
<totfact> 0.51625555E+00</totfact>
</mgrwt>
</event>
<event>
12    3  0.1182097E-007  0.6882674E+03  0.7818608E-02  0.9737510E-01
          1   -1    0    0  501    0  0.00000000000E+00  0.00000000000E+00  0.15993959181E+04  0.15993959181E+04  0.00000000000E+00 0. -1.
         -2   -1    0    0    0  501 -0.00000000000E+00 -0.00000000000E+00 -0.39853621412E+03  0.39853621412E+03  0.00000000000E+00 0.  1.
        -24    2    1    2    0    0 -0.34288130326E+03  0.46238730289E+03  0.97699099408E+03  0.11368342510E+04  0.80691422379E+02 0.  0.
    5000000    2    1    2    0    0  0.34288130326E+03 -0.46238730289E+03  0.22386870991E+03  0.86109788127E+03  0.60000229655E+03 0.  0.
        -24    2    4    4    0    0 -0.12724355211E+03 -0.22736704271E+03 -0.27225608650E+02  0.27390789921E+03  0.79985059978E+02 0.  0.
         24    2    4    4    0    0  0.47012485536E+03 -0.23502026018E+03  0.25109431856E+03  0.58718998206E+03  0.74106787103E+02 0.  0.
         13    1    3    3    0    0 -0.27515288529E+03  0.31501903258E+03  0.67625594006E+03  0.79515293978E+03  0.00000000000E+00 0. -1.
        -14    1    3    3    0    0 -0.67728417963E+02  0.14736827031E+03  0.30073505401E+03  0.34168131118E+03  0.00000000000E+00 0.  1.
         15    1    5    5    0    0 -0.63489869290E+02 -0.57304669025E+02 -0.34263802058E+02  0.92151801149E+02  0.17770000000E+01 0. -1.
        -16    1    5    5    0    0 -0.63753682820E+02 -0.17006237368E+03  0.70381934084E+01  0.18175609806E+03  0.00000000000E+00 0.  1.
          4    1    6    6  502    0  0.60387814527E+02 -0.92370286228E+01  0.13830334419E+02  0.62636163606E+02  0.00000000000E+00 0. -1.
         -3    1    6    6    0  502  0.40973704084E+03 -0.22578323156E+03  0.23726398414E+03  0.52455381846E+03  0.00000000000E+00 0.  1.
<mgrwt>
<rscale>  0 0.68826737E+03</rscale>
<asrwt>0</asrwt>
<pdfrwt beam="1">  1        1 0.24606091E+00 0.68826737E+03</pdfrwt>
<pdfrwt beam="2">  1       -2 0.61313264E-01 0.68826737E+03</pdfrwt>
<totfact> 0.12640619E+01</totfact>
</mgrwt>
</event>
<event>
12    3  0.1182097E-007  0.9258321E+03  0.7818608E-02  0.9393854E-01
          1   -1    0    0  501    0  0.00000000000E+00  0.00000000000E+00  0.12588122138E+04  0.12588122138E+04  0.00000000000E+00 0. -1.
         -2   -1    0    0    0  501 -0.00000000000E+00 -0.00000000000E+00 -0.80458114531E+03  0.80458114531E+03  0.00000000000E+00 0.  1.
        -24    2    1    2    0    0  0.86347193926E+02  0.87984631995E+03 -0.36414883864E+02  0.88769969285E+03  0.71409497203E+02 0.  0.
    5000000    2    1    2    0    0 -0.86347193926E+02 -0.87984631995E+03  0.49064595232E+03  0.11756936662E+04  0.59994729903E+03 0.  0.
        -24    2    4    4    0    0 -0.20882555386E+03 -0.30903239673E+03  0.44298628816E+03  0.58487223504E+03  0.82033807994E+02 0.  0.
         24    2    4    4    0    0  0.12247835993E+03 -0.57081392323E+03  0.47659664156E+02  0.59082143117E+03  0.77259538836E+02 0.  0.
         13    1    3    3    0    0  0.37471170554E+01  0.27091570008E+03  0.12649436638E+02  0.27123673366E+03  0.00000000000E+00 0. -1.
        -14    1    3    3    0    0  0.82600076871E+02  0.60893061987E+03 -0.49064320503E+02  0.61646295920E+03  0.00000000000E+00 0.  1.
         15    1    5    5    0    0 -0.22563075821E+01 -0.51350246372E+02  0.66306891428E+02  0.83914839606E+02  0.17770000000E+01 0. -1.
        -16    1    5    5    0    0 -0.20656924628E+03 -0.25768215036E+03  0.37667939673E+03  0.50095739544E+03  0.00000000000E+00 0.  1.
          4    1    6    6  502    0  0.65359580120E+02 -0.37078483124E+03  0.65017529438E+02  0.38207400451E+03  0.00000000000E+00 0. -1.
         -3    1    6    6    0  502  0.57118779814E+02 -0.20002909198E+03 -0.17357865282E+02  0.20874742665E+03  0.00000000000E+00 0.  1.
<mgrwt>
<rscale>  0 0.92583210E+03</rscale>
<asrwt>0</asrwt>
<pdfrwt beam="1">  1        1 0.19366342E+00 0.92583210E+03</pdfrwt>
<pdfrwt beam="2">  1       -2 0.12378171E+00 0.92583210E+03</pdfrwt>
<totfact> 0.41987622E+00</totfact>
</mgrwt>
</event>
<event>
12    3  0.1182097E-007  0.6856671E+03  0.7818608E-02  0.9742062E-01
          1   -1    0    0  501    0  0.00000000000E+00  0.00000000000E+00  0.16460055739E+04  0.16460055739E+04  0.00000000000E+00 0. -1.
         -2   -1    0    0    0  501 -0.00000000000E+00 -0.00000000000E+00 -0.58479250681E+03  0.58479250681E+03  0.00000000000E+00 0.  1.
        -24    2    1    2    0    0 -0.50433064954E+03 -0.29342567001E+03  0.12420363616E+04  0.13745198545E+04  0.78755818110E+02 0.  0.
    5000000    2    1    2    0    0  0.50433064954E+03  0.29342567001E+03 -0.18082329450E+03  0.85627822626E+03  0.60005608824E+03 0.  0.
        -24    2    4    4    0    0 -0.11069152792E+03  0.66572753753E+02 -0.11887897871E+03  0.19291356809E+03  0.79993045187E+02 0.  0.
         24    2    4    4    0    0  0.61502217746E+03  0.22685291626E+03 -0.61944315781E+02  0.66336465816E+03  0.80629070800E+02 0.  0.
         13    1    3    3    0    0 -0.37448919697E+03 -0.21693214739E+03  0.99655042698E+03  0.10864688071E+04  0.00000000000E+00 0. -1.
        -14    1    3    3    0    0 -0.12984145258E+03 -0.76493522626E+02  0.24548593465E+03  0.28805104743E+03  0.00000000000E+00 0.  1.
         15    1    5    5    0    0 -0.27956445093E+02  0.30552320257E+02 -0.88456844293E+02  0.97687144122E+02  0.17770000000E+01 0. -1.
        -16    1    5    5    0    0 -0.82735082824E+02  0.36020433497E+02 -0.30422134421E+02  0.95226423969E+02  0.00000000000E+00 0.  1.
          4    1    6    6  502    0  0.25689710404E+03  0.79583592101E+02 -0.62642446826E+02  0.27614080890E+03  0.00000000000E+00 0. -1.
         -3    1    6    6    0  502  0.35812507343E+03  0.14726932416E+03  0.69813104530E+00  0.38722384927E+03  0.00000000000E+00 0.  1.
<mgrwt>
<rscale>  0 0.68566708E+03</rscale>
<asrwt>0</asrwt>
<pdfrwt beam="1">  1        1 0.25323162E+00 0.68566708E+03</pdfrwt>
<pdfrwt beam="2">  1       -2 0.89968079E-01 0.68566708E+03</pdfrwt>
<totfact> 0.50409034E+00</totfact>
</mgrwt>
</event>
<event>
12    3  0.1182097E-007  0.6796981E+03  0.7818608E-02  0.9752595E-01
         -2   -1    0    0    0  501 -0.00000000000E+00  0.00000000000E+00  0.19921272038E+04  0.19921272038E+04  0.00000000000E+00 0.  1.
          1   -1    0    0  501    0  0.00000000000E+00 -0.00000000000E+00 -0.33091915001E+03  0.33091915001E+03  0.00000000000E+00 0. -1.
        -24    2    1    2    0    0 -0.16310413022E+03 -0.64564197085E+03  0.10192810148E+04  0.12204717854E+04  0.84623164702E+02 0.  0.
    5000000    2    1    2    0    0  0.16310413022E+03  0.64564197085E+03  0.64192703903E+03  0.11025745684E+04  0.60011985778E+03 0.  0.
        -24    2    4    4    0    0  0.13868672489E+03  0.37430408599E+03  0.69375773355E+01  0.40705290724E+03  0.79412737423E+02 0.  0.
         24    2    4    4    0    0  0.24417405329E+02  0.27133788487E+03  0.63498946169E+03  0.69552166119E+03  0.79487780702E+02 0.  0.
         13    1    3    3    0    0 -0.15650227874E+03 -0.47304071847E+03  0.74083867091E+03  0.89280592566E+03  0.00000000000E+00 0. -1.
        -14    1    3    3    0    0 -0.66018514785E+01 -0.17260125238E+03  0.27844234385E+03  0.32766585971E+03  0.00000000000E+00 0.  1.
         15    1    5    5    0    0  0.14179372977E+03  0.29559419346E+03  0.12490740136E+02  0.32808621630E+03  0.17770000000E+01 0. -1.
        -16    1    5    5    0    0 -0.31070048726E+01  0.78709892525E+02 -0.55531628007E+01  0.78966690938E+02  0.00000000000E+00 0.  1.
          4    1    6    6  502    0  0.41739582292E+02  0.85458796073E+02  0.25479126009E+03  0.27196320482E+03  0.00000000000E+00 0. -1.
         -3    1    6    6    0  502 -0.17322176962E+02  0.18587908879E+03  0.38019820160E+03  0.42355845637E+03  0.00000000000E+00 0.  1.
<mgrwt>
<rscale>  0 0.67969812E+03</rscale>
<asrwt>0</asrwt>
<pdfrwt beam="1">  1        1 0.50910640E-01 0.67969812E+03</pdfrwt>
<pdfrwt beam="2">  1       -2 0.30648110E+00 0.67969812E+03</pdfrwt>
<totfact> 0.20682936E+00</totfact>
</mgrwt>
</event>
<event>
12    3  0.1182097E-007  0.9332502E+03  0.7818608E-02  0.9384946E-01
          1   -1    0    0  501    0  0.00000000000E+00  0.00000000000E+00  0.20747823347E+04  0.20747823347E+04  0.00000000000E+00 0. -1.
         -2   -1    0    0    0  501 -0.00000000000E+00 -0.00000000000E+00 -0.71866389243E+03  0.71866389243E+03  0.00000000000E+00 0.  1.
        -24    2    1    2    0    0  0.34291053175E+03  0.82406295584E+03  0.14598558197E+04  0.17129596518E+04  0.79902229936E+02 0.  0.
    5000000    2    1    2    0    0 -0.34291053175E+03 -0.82406295584E+03 -0.10373737740E+03  0.10804865754E+04  0.60001867312E+03 0.  0.
        -24    2    4    4    0    0  0.51405104063E+02 -0.32429223506E+03 -0.25298506935E+03  0.42187320703E+03  0.78534190332E+02 0.  0.
         24    2    4    4    0    0 -0.39431563582E+03 -0.49977072078E+03  0.14924769195E+03  0.65861336834E+03  0.79000641767E+02 0.  0.
         13    1    3    3    0    0  0.24043012602E+03  0.50979089969E+03  0.97361707397E+03  0.11249993838E+04  0.00000000000E+00 0. -1.
        -14    1    3    3    0    0  0.10248040573E+03  0.31427205615E+03  0.48623874574E+03  0.58796026796E+03  0.00000000000E+00 0.  1.
         15    1    5    5    0    0  0.13231220106E+02 -0.21668810700E+03 -0.12561633526E+03  0.25082149492E+03  0.17770000000E+01 0. -1.
        -16    1    5    5    0    0  0.38173883957E+02 -0.10760412806E+03 -0.12736873409E+03  0.17105171211E+03  0.00000000000E+00 0.  1.
          2    1    6    6  502    0 -0.16119468392E+03 -0.26498604413E+03  0.59818482618E+02  0.31587906004E+03  0.00000000000E+00 0. -1.
         -1    1    6    6    0  502 -0.23312095190E+03 -0.23478467665E+03  0.89429209329E+02  0.34273430830E+03  0.00000000000E+00 0.  1.
<mgrwt>
<rscale>  0 0.93325018E+03</rscale>
<asrwt>0</asrwt>
<pdfrwt beam="1">  1        1 0.31919728E+00 0.93325018E+03</pdfrwt>
<pdfrwt beam="2">  1       -2 0.11056368E+00 0.93325018E+03</pdfrwt>
<totfact> 0.15336780E+00</totfact>
</mgrwt>
</event>
<event>
12    3  0.1182097E-007  0.5669662E+03  0.7818608E-02  0.9976414E-01
         -2   -1    0    0    0  501 -0.00000000000E+00  0.00000000000E+00  0.70576270133E+03  0.70576270133E+03  0.00000000000E+00 0.  1.
          1   -1    0    0  501    0  0.00000000000E+00 -0.00000000000E+00 -0.11723671192E+04  0.11723671192E+04  0.00000000000E+00 0. -1.
        -24    2    1    2    0    0 -0.45380839837E+03  0.22268382162E+03  0.44294006694E+03  0.67697428158E+03  0.81043989107E+02 0.  0.
    5000000    2    1    2    0    0  0.45380839837E+03 -0.22268382162E+03 -0.90954448477E+03  0.12011555389E+04  0.59997775963E+03 0.  0.
        -24    2    4    4    0    0  0.34173854539E+03 -0.30563799773E+03 -0.26296189628E+03  0.53471168570E+03  0.81042019132E+02 0.  0.
         24    2    4    4    0    0  0.11206985298E+03  0.82954176105E+02 -0.64658258849E+03  0.66644385322E+03  0.81469739637E+02 0.  0.
         13    1    3    3    0    0 -0.24771782106E+03  0.15043254197E+03  0.21165238711E+03  0.35887435340E+03  0.00000000000E+00 0. -1.
        -14    1    3    3    0    0 -0.20609057730E+03  0.72251279652E+02  0.23128767984E+03  0.31809992818E+03  0.00000000000E+00 0.  1.
         15    1    5    5    0    0  0.20917754889E+03 -0.23319755719E+03 -0.15883064773E+03  0.35123593214E+03  0.17770000000E+01 0. -1.
        -16    1    5    5    0    0  0.13256099650E+03 -0.72440440536E+02 -0.10413124855E+03  0.18347575355E+03  0.00000000000E+00 0.  1.
          2    1    6    6  502    0  0.88216490468E+02  0.15142583124E+02 -0.34708818008E+03  0.35844337316E+03  0.00000000000E+00 0. -1.
         -1    1    6    6    0  502  0.23853362510E+02  0.67811592982E+02 -0.29949440841E+03  0.30800048006E+03  0.00000000000E+00 0.  1.
<mgrwt>
<rscale>  0 0.56696622E+03</rscale>
<asrwt>0</asrwt>
<pdfrwt beam="1">  1        1 0.18036417E+00 0.56696622E+03</pdfrwt>
<pdfrwt beam="2">  1       -2 0.10857888E+00 0.56696622E+03</pdfrwt>
<totfact> 0.70318552E+00</totfact>
</mgrwt>
</event>
<event>
12    3  0.1182097E-007  0.1091253E+04  0.7818608E-02  0.9213760E-01
         -2   -1    0    0    0  501 -0.00000000000E+00  0.00000000000E+00  0.12036130687E+04  0.12036130687E+04  0.00000000000E+00 0.  1.
          1   -1    0    0  501    0  0.00000000000E+00 -0.00000000000E+00 -0.10408774034E+04  0.10408774034E+04  0.00000000000E+00 0. -1.
        -24    2    1    2    0    0 -0.80099101916E+03 -0.64409051398E+03  0.21559708314E+03  0.10530985684E+04  0.78072335759E+02 0.  0.
    5000000    2    1    2    0    0  0.80099101916E+03  0.64409051398E+03 -0.52861417829E+02  0.11913919037E+04  0.60015092745E+03 0.  0.
        -24    2    4    4    0    0  0.98835208482E+02  0.38470874329E+03  0.11329605888E+03  0.42053896868E+03  0.79043099780E+02 0.  0.
         24    2    4    4    0    0  0.70215581067E+03  0.25938177069E+03 -0.16615747671E+03  0.77085293501E+03  0.79399338266E+02 0.  0.
         11    1    3    3    0    0 -0.35168342099E+03 -0.29541001782E+03  0.13474656277E+03  0.47864908169E+03  0.00000000000E+00 0. -1.
        -12    1    3    3    0    0 -0.44930759817E+03 -0.34868049616E+03  0.80850520369E+02  0.57444948674E+03  0.00000000000E+00 0.  1.
         15    1    5    5    0    0  0.93788952431E+02  0.22270796419E+03  0.51537497584E+02  0.24709204014E+03  0.17770000000E+01 0. -1.
        -16    1    5    5    0    0  0.50462560514E+01  0.16200077910E+03  0.61758561296E+02  0.17344692854E+03  0.00000000000E+00 0.  1.
          4    1    6    6  502    0  0.65928098842E+02  0.70387134853E+01  0.93224873695E+00  0.66309326585E+02  0.00000000000E+00 0. -1.
         -3    1    6    6    0  502  0.63622771183E+03  0.25234305720E+03 -0.16708972545E+03  0.70454360842E+03  0.00000000000E+00 0.  1.
<mgrwt>
<rscale>  0 0.10912528E+04</rscale>
<asrwt>0</asrwt>
<pdfrwt beam="1">  1        1 0.16013499E+00 0.10912528E+04</pdfrwt>
<pdfrwt beam="2">  1       -2 0.18517124E+00 0.10912528E+04</pdfrwt>
<totfact> 0.20320384E+00</totfact>
</mgrwt>
</event>
<event>
12    3  0.1182097E-007  0.5208460E+03  0.7818608E-02  0.1008477E+00
         -2   -1    0    0    0  501 -0.00000000000E+00  0.00000000000E+00  0.13269170106E+03  0.13269170106E+03  0.00000000000E+00 0.  1.
          1   -1    0    0  501    0  0.00000000000E+00 -0.00000000000E+00 -0.21272117992E+04  0.21272117992E+04  0.00000000000E+00 0. -1.
        -24    2    1    2    0    0 -0.33114519010E+03 -0.13016296853E+03 -0.73444828367E+03  0.81959831050E+03  0.75680736544E+02 0.  0.
    5000000    2    1    2    0    0  0.33114519010E+03  0.13016296853E+03 -0.12600718144E+04  0.14403051897E+04  0.60008209999E+03 0.  0.
        -24    2    4    4    0    0  0.32817341647E+03 -0.17017931045E+03 -0.80292761579E+03  0.88758470327E+03  0.80343389837E+02 0.  0.
         24    2    4    4    0    0  0.29717736369E+01  0.30034227898E+03 -0.45714419863E+03  0.55272048645E+03  0.79402782183E+02 0.  0.
         11    1    3    3    0    0 -0.21013737935E+03 -0.43289080109E+02 -0.41829571356E+03  0.47010952622E+03  0.00000000000E+00 0. -1.
        -12    1    3    3    0    0 -0.12100781075E+03 -0.86873888426E+02 -0.31615257010E+03  0.34948878428E+03  0.00000000000E+00 0.  1.
         15    1    5    5    0    0  0.37371377562E+02 -0.25704079279E+02 -0.17343672743E+03  0.17927848645E+03  0.17770000000E+01 0. -1.
        -16    1    5    5    0    0  0.29080203891E+03 -0.14447523117E+03 -0.62949088837E+03  0.70830621682E+03  0.00000000000E+00 0.  1.
          2    1    6    6  502    0 -0.31383852101E+02  0.18777975035E+03 -0.31631173259E+03  0.36918734132E+03  0.00000000000E+00 0. -1.
         -1    1    6    6    0  502  0.34355625738E+02  0.11256252863E+03 -0.14083246604E+03  0.18353314513E+03  0.00000000000E+00 0.  1.
<mgrwt>
<rscale>  0 0.52084597E+03</rscale>
<asrwt>0</asrwt>
<pdfrwt beam="1">  1        1 0.32726331E+00 0.52084597E+03</pdfrwt>
<pdfrwt beam="2">  1       -2 0.20414110E-01 0.52084597E+03</pdfrwt>
<totfact> 0.47236031E+01</totfact>
</mgrwt>
</event>
<event>
12    3  0.1182097E-007  0.3251592E+03  0.7818608E-02  0.1073299E+00
         -2   -1    0    0    0  501 -0.00000000000E+00  0.00000000000E+00  0.62024715315E+03  0.62024715315E+03  0.00000000000E+00 0.  1.
          1   -1    0    0  501    0  0.00000000000E+00 -0.00000000000E+00 -0.42950226453E+03  0.42950226453E+03  0.00000000000E+00 0. -1.
        -24    2    1    2    0    0  0.14229432753E+03 -0.25011458223E+03  0.23943805518E+03  0.38251545041E+03  0.78628923678E+02 0.  0.
    5000000    2    1    2    0    0 -0.14229432753E+03  0.25011458223E+03 -0.48693166554E+02  0.66723396727E+03  0.60002096857E+03 0.  0.
        -24    2    4    4    0    0 -0.97534253923E+02  0.27651478230E+02 -0.29571737874E+03  0.32262311055E+03  0.79745648362E+02 0.  0.
         24    2    4    4    0    0 -0.44760073610E+02  0.22246310400E+03  0.24702421219E+03  0.34461085672E+03  0.79008761121E+02 0.  0.
         11    1    3    3    0    0  0.11175345100E+03 -0.13430202642E+03  0.11150236161E+03  0.20726467320E+03  0.00000000000E+00 0. -1.
        -12    1    3    3    0    0  0.30540876530E+02 -0.11581255581E+03  0.12793569357E+03  0.17525077721E+03  0.00000000000E+00 0.  1.
         15    1    5    5    0    0 -0.10186048287E+02  0.39413886953E+02 -0.99480665267E+02  0.10750242116E+03  0.17770000000E+01 0. -1.
        -16    1    5    5    0    0 -0.87348205636E+02 -0.11762408723E+02 -0.19623671347E+03  0.21512068939E+03  0.00000000000E+00 0.  1.
          4    1    6    6  502    0 -0.47784232138E+01  0.29448485913E+02  0.82935102665E+02  0.88137834697E+02  0.00000000000E+00 0. -1.
         -1    1    6    6    0  502 -0.39981650397E+02  0.19301461809E+03  0.16408910952E+03  0.25647302203E+03  0.00000000000E+00 0.  1.
<mgrwt>
<rscale>  0 0.32515917E+03</rscale>
<asrwt>0</asrwt>
<pdfrwt beam="1">  1        1 0.66077271E-01 0.32515917E+03</pdfrwt>
<pdfrwt beam="2">  1       -2 0.95422639E-01 0.32515917E+03</pdfrwt>
<totfact> 0.46580686E+01</totfact>
</mgrwt>
</event>
<event>
12    3  0.1182097E-007  0.8439207E+03  0.7818608E-02  0.9498533E-01
         -2   -1    0    0    0  501 -0.00000000000E+00  0.00000000000E+00  0.59066595265E+03  0.59066595265E+03  0.00000000000E+00 0.  1.
          1   -1    0    0  501    0  0.00000000000E+00 -0.00000000000E+00 -0.18884127375E+04  0.18884127375E+04  0.00000000000E+00 0. -1.
        -24    2    1    2    0    0 -0.77277176160E+03  0.91985521987E+02 -0.12757406644E+04  0.14961734661E+04  0.73370744367E+02 0.  0.
    5000000    2    1    2    0    0  0.77277176160E+03 -0.91985521987E+02 -0.22006120509E+02  0.98290522409E+03  0.59998406514E+03 0.  0.
        -24    2    4    4    0    0  0.76017174208E+03 -0.20425196880E+03 -0.13736537032E+03  0.80292928654E+03  0.79033220831E+02 0.  0.
         24    2    4    4    0    0  0.12600019511E+02  0.11226644682E+03  0.11535924981E+03  0.17997593755E+03  0.79505131967E+02 0.  0.
         13    1    3    3    0    0 -0.42580404019E+03  0.86616601837E+02 -0.72356325311E+03  0.84401143216E+03  0.00000000000E+00 0. -1.
        -14    1    3    3    0    0 -0.34696772141E+03  0.53689201493E+01 -0.55217741126E+03  0.65216203394E+03  0.00000000000E+00 0.  1.
         15    1    5    5    0    0  0.70437848115E+03 -0.20729399853E+03 -0.13770923524E+03  0.74705209840E+03  0.17770000000E+01 0. -1.
        -16    1    5    5    0    0  0.55793260938E+02  0.30420297260E+01  0.34386491952E+00  0.55877188136E+02  0.00000000000E+00 0.  1.
          4    1    6    6  502    0 -0.15593110410E+01  0.88522748518E+02  0.12276103484E+03  0.15135712779E+03  0.00000000000E+00 0. -1.
         -3    1    6    6    0  502  0.14159330552E+02  0.23743698297E+02 -0.74017850375E+01  0.28618809763E+02  0.00000000000E+00 0.  1.
<mgrwt>
<rscale>  0 0.84392068E+03</rscale>
<asrwt>0</asrwt>
<pdfrwt beam="1">  1        1 0.29052504E+00 0.84392068E+03</pdfrwt>
<pdfrwt beam="2">  1       -2 0.90871683E-01 0.84392068E+03</pdfrwt>
<totfact> 0.33034359E+00</totfact>
</mgrwt>
</event>
<event>
12    3  0.1182097E-007  0.7942710E+03  0.7818608E-02  0.9568347E-01
         -2   -1    0    0    0  501 -0.00000000000E+00  0.00000000000E+00  0.55646447498E+03  0.55646447498E+03  0.00000000000E+00 0.  1.
          1   -1    0    0  501    0  0.00000000000E+00 -0.00000000000E+00 -0.16715062997E+04  0.16715062997E+04  0.00000000000E+00 0. -1.
        -24    2    1    2    0    0 -0.63311428263E+03  0.27126290451E+03 -0.11162627609E+04  0.13142275105E+04  0.82061804333E+02 0.  0.
    5000000    2    1    2    0    0  0.63311428263E+03 -0.27126290451E+03  0.12209362352E+01  0.91374326414E+03  0.60042318729E+03 0.  0.
        -24    2    4    4    0    0 -0.89827474912E+02 -0.11399621061E+03  0.33368797412E+02  0.16900150308E+03  0.79899437531E+02 0.  0.
         24    2    4    4    0    0  0.72294175754E+03 -0.15726669390E+03 -0.32147861177E+02  0.74474176106E+03  0.78925331042E+02 0.  0.
         13    1    3    3    0    0 -0.34557832598E+03  0.10360539234E+03 -0.57442464058E+03  0.67832302366E+03  0.00000000000E+00 0. -1.
        -14    1    3    3    0    0 -0.28753595665E+03  0.16765751217E+03 -0.54183812035E+03  0.63590448687E+03  0.00000000000E+00 0.  1.
         15    1    5    5    0    0  0.18943822850E+01 -0.25843761296E+02  0.32730716077E+02  0.41784520890E+02  0.17770000000E+01 0. -1.
        -16    1    5    5    0    0 -0.91721857197E+02 -0.88152449319E+02  0.63808133501E+00  0.12721698219E+03  0.00000000000E+00 0.  1.
          2    1    6    6  502    0  0.37011808650E+03 -0.10752030461E+03 -0.46029007590E+02  0.38815806497E+03  0.00000000000E+00 0. -1.
         -1    1    6    6    0  502  0.35282367104E+03 -0.49746389291E+02  0.13881146414E+02  0.35658369610E+03  0.00000000000E+00 0.  1.
<mgrwt>
<rscale>  0 0.79427104E+03</rscale>
<asrwt>0</asrwt>
<pdfrwt beam="1">  1        1 0.25715481E+00 0.79427104E+03</pdfrwt>
<pdfrwt beam="2">  1       -2 0.85609921E-01 0.79427104E+03</pdfrwt>
<totfact> 0.53396340E+00</totfact>
</mgrwt>
</event>
<event>
12    3  0.1182097E-007  0.6280640E+03  0.7818608E-02  0.9848834E-01
         -2   -1    0    0    0  501 -0.00000000000E+00  0.00000000000E+00  0.80751231646E+03  0.80751231646E+03  0.00000000000E+00 0.  1.
          1   -1    0    0  501    0  0.00000000000E+00 -0.00000000000E+00 -0.80194345149E+03  0.80194345149E+03  0.00000000000E+00 0. -1.
        -24    2    1    2    0    0 -0.45826688488E+02 -0.48697831383E+03 -0.48471609404E+03  0.69313234839E+03  0.78960731044E+02 0.  0.
    5000000    2    1    2    0    0  0.45826688488E+02  0.48697831383E+03  0.49028495900E+03  0.91632341956E+03  0.60001775364E+03 0.  0.
        -24    2    4    4    0    0 -0.11889102901E+03  0.55979366892E+03  0.32919334253E+03  0.66292059060E+03  0.59928491944E+02 0.  0.
         24    2    4    4    0    0  0.16471771750E+03 -0.72815355083E+02  0.16109161648E+03  0.25340282895E+03  0.76344498355E+02 0.  0.
         13    1    3    3    0    0 -0.85464705074E+01 -0.30484732821E+03 -0.34573216099E+03  0.46101590300E+03  0.00000000000E+00 0. -1.
        -14    1    3    3    0    0 -0.37280217981E+02 -0.18213098562E+03 -0.13898393305E+03  0.23211644539E+03  0.00000000000E+00 0.  1.
         15    1    5    5    0    0 -0.19377714917E+02  0.18498280480E+03  0.13023225214E+03  0.22706327562E+03  0.17770000000E+01 0. -1.
        -16    1    5    5    0    0 -0.99513314093E+02  0.37481086411E+03  0.19896109038E+03  0.43585731499E+03  0.00000000000E+00 0.  1.
          2    1    6    6  502    0  0.80664560022E+02 -0.64389539017E+00  0.94070966148E+02  0.12392147722E+03  0.00000000000E+00 0. -1.
         -1    1    6    6    0  502  0.84053157477E+02 -0.72171459693E+02  0.67020650329E+02  0.12948135173E+03  0.00000000000E+00 0.  1.
<mgrwt>
<rscale>  0 0.62806397E+03</rscale>
<asrwt>0</asrwt>
<pdfrwt beam="1">  1        1 0.12337592E+00 0.62806397E+03</pdfrwt>
<pdfrwt beam="2">  1       -2 0.12423266E+00 0.62806397E+03</pdfrwt>
<totfact> 0.97472783E+00</totfact>
</mgrwt>
</event>
<event>
12    3  0.1182097E-007  0.5805352E+03  0.7818608E-02  0.9946633E-01
          1   -1    0    0  501    0  0.00000000000E+00  0.00000000000E+00  0.40435053198E+03  0.40435053198E+03  0.00000000000E+00 0. -1.
         -4   -1    0    0    0  501 -0.00000000000E+00 -0.00000000000E+00 -0.12669741451E+04  0.12669741451E+04  0.00000000000E+00 0.  1.
        -24    2    1    2    0    0  0.96787764506E+01  0.45562193306E+03  0.74808544270E+02  0.46864235367E+03  0.79651194344E+02 0.  0.
    5000000    2    1    2    0    0 -0.96787764506E+01 -0.45562193306E+03 -0.93743215740E+03  0.12026823234E+04  0.59998391373E+03 0.  0.
        -24    2    4    4    0    0 -0.24278487349E+03 -0.37186003693E+03 -0.39032827468E+03  0.59664888070E+03  0.80058372292E+02 0.  0.
         24    2    4    4    0    0  0.23310609704E+03 -0.83761896130E+02 -0.54710388272E+03  0.60603344271E+03  0.81236491037E+02 0.  0.
         11    1    3    3    0    0 -0.13418231511E+02  0.98139583937E+02  0.46132715331E+02  0.10926872515E+03  0.00000000000E+00 0. -1.
        -12    1    3    3    0    0  0.23097007962E+02  0.35748234912E+03  0.28675828939E+02  0.35937362852E+03  0.00000000000E+00 0.  1.
         15    1    5    5    0    0 -0.21767223107E+03 -0.27315171506E+03 -0.29625695420E+03  0.45800043696E+03  0.17770000000E+01 0. -1.
        -16    1    5    5    0    0 -0.25112642422E+02 -0.98708321869E+02 -0.94071320475E+02  0.13864844374E+03  0.00000000000E+00 0.  1.
          4    1    6    6  502    0  0.12936847202E+03 -0.20037774277E+02 -0.35741984845E+03  0.38063980614E+03  0.00000000000E+00 0. -1.
         -3    1    6    6    0  502  0.10373762502E+03 -0.63724121853E+02 -0.18968403427E+03  0.22539363657E+03  0.00000000000E+00 0.  1.
<mgrwt>
<rscale>  0 0.58053523E+03</rscale>
<asrwt>0</asrwt>
<pdfrwt beam="1">  1        1 0.62207775E-01 0.58053523E+03</pdfrwt>
<pdfrwt beam="2">  1       -4 0.19491910E+00 0.58053523E+03</pdfrwt>
<totfact> 0.41031755E+00</totfact>
</mgrwt>
</event>
<event>
12    3  0.1182097E-007  0.3791175E+03  0.7818608E-02  0.1051260E+00
          3   -1    0    0  501    0  0.00000000000E+00  0.00000000000E+00  0.30404867034E+03  0.30404867034E+03  0.00000000000E+00 0. -1.
         -4   -1    0    0    0  501 -0.00000000000E+00 -0.00000000000E+00 -0.68130830741E+03  0.68130830741E+03  0.00000000000E+00 0.  1.
        -24    2    1    2    0    0 -0.41384853253E+02 -0.19327385686E+03 -0.27051867906E+03  0.34468264812E+03  0.80983222756E+02 0.  0.
    5000000    2    1    2    0    0  0.41384853253E+02  0.19327385686E+03 -0.10674095801E+03  0.64067432963E+03  0.60000206225E+03 0.  0.
        -24    2    4    4    0    0 -0.22494141098E+03  0.15659006648E+03 -0.19649694922E+03  0.34627090013E+03  0.78570973830E+02 0.  0.
         24    2    4    4    0    0  0.26632626424E+03  0.36683790389E+02  0.89755991206E+02  0.29440342950E+03  0.79635807561E+02 0.  0.
         11    1    3    3    0    0  0.12978887655E+01 -0.94713043541E+02 -0.18328505292E+03  0.20631445843E+03  0.00000000000E+00 0. -1.
        -12    1    3    3    0    0 -0.42682742019E+02 -0.98560813322E+02 -0.87233626141E+02  0.13836818969E+03  0.00000000000E+00 0.  1.
         15    1    5    5    0    0 -0.12449017506E+03  0.11546572297E+03 -0.82224156086E+02  0.18866400409E+03  0.17770000000E+01 0. -1.
        -16    1    5    5    0    0 -0.10045123592E+03  0.41124343508E+02 -0.11427279313E+03  0.15760689604E+03  0.00000000000E+00 0.  1.
          2    1    6    6  502    0  0.40905984248E+02  0.32592189418E+02  0.33236856017E+02  0.61969661579E+02  0.00000000000E+00 0. -1.
         -1    1    6    6    0  502  0.22542027999E+03  0.40916009711E+01  0.56519135189E+02  0.23243376792E+03  0.00000000000E+00 0.  1.
<mgrwt>
<rscale>  0 0.37911745E+03</rscale>
<asrwt>0</asrwt>
<pdfrwt beam="1">  1        3 0.46776719E-01 0.37911745E+03</pdfrwt>
<pdfrwt beam="2">  1       -4 0.10481666E+00 0.37911745E+03</pdfrwt>
<totfact> 0.74911358E+00</totfact>
</mgrwt>
</event>
<event>
12    3  0.1182097E-007  0.3980119E+03  0.7818608E-02  0.1044470E+00
          1   -1    0    0  501    0  0.00000000000E+00  0.00000000000E+00  0.22477958445E+04  0.22477958445E+04  0.00000000000E+00 0. -1.
         -2   -1    0    0    0  501 -0.00000000000E+00 -0.00000000000E+00 -0.10850878474E+03  0.10850878474E+03  0.00000000000E+00 0.  1.
        -24    2    1    2    0    0 -0.11054851081E+03  0.28075231229E+03  0.77078449724E+03  0.83187173521E+03  0.82819131532E+02 0.  0.
    5000000    2    1    2    0    0  0.11054851081E+03 -0.28075231229E+03  0.13685025625E+04  0.15244328941E+04  0.60004462392E+03 0.  0.
        -24    2    4    4    0    0 -0.58232537150E+02 -0.30365252679E+03  0.29730307842E+03  0.43662950031E+03  0.81610751061E+02 0.  0.
         24    2    4    4    0    0  0.16878104796E+03  0.22900214503E+02  0.10711994841E+04  0.10878033937E+04  0.82682686796E+02 0.  0.
         11    1    3    3    0    0 -0.11595790583E+03  0.22052476545E+03  0.56752723912E+03  0.61981011225E+03  0.00000000000E+00 0. -1.
        -12    1    3    3    0    0  0.54093950155E+01  0.60227546840E+02  0.20325725812E+03  0.21206162296E+03  0.00000000000E+00 0.  1.
         15    1    5    5    0    0  0.12989972968E+02 -0.49669883371E+02  0.23685757147E+02  0.56568626750E+02  0.17770000000E+01 0. -1.
        -16    1    5    5    0    0 -0.71222510118E+02 -0.25398264342E+03  0.27361732128E+03  0.38006087356E+03  0.00000000000E+00 0.  1.
          2    1    6    6  502    0  0.47438929532E+02  0.14550840689E+02  0.13680288973E+03  0.14552391432E+03  0.00000000000E+00 0. -1.
         -1    1    6    6    0  502  0.12134211843E+03  0.83493738139E+01  0.93439659439E+03  0.94227947943E+03  0.00000000000E+00 0.  1.
<mgrwt>
<rscale>  0 0.39801189E+03</rscale>
<asrwt>0</asrwt>
<pdfrwt beam="1">  1        1 0.34581471E+00 0.39801189E+03</pdfrwt>
<pdfrwt beam="2">  1       -2 0.16693661E-01 0.39801189E+03</pdfrwt>
<totfact> 0.56850131E+01</totfact>
</mgrwt>
</event>
<event>
12    3  0.1182097E-007  0.2197763E+04  0.7818608E-02  0.8519360E-01
         -2   -1    0    0    0  501 -0.00000000000E+00  0.00000000000E+00  0.17065887812E+04  0.17065887812E+04  0.00000000000E+00 0.  1.
          1   -1    0    0  501    0  0.00000000000E+00 -0.00000000000E+00 -0.29725119995E+04  0.29725119995E+04  0.00000000000E+00 0. -1.
        -24    2    1    2    0    0  0.19956204486E+04  0.83548796735E+03 -0.14499793809E+03  0.21697431181E+04  0.78864933634E+02 0.  0.
    5000000    2    1    2    0    0 -0.19956204486E+04 -0.83548796735E+03 -0.11209252802E+04  0.25093576626E+04  0.59988438608E+03 0.  0.
        -24    2    4    4    0    0 -0.18679554511E+04 -0.61079651266E+03 -0.91437650968E+03  0.21690045247E+04  0.78525660094E+02 0.  0.
         24    2    4    4    0    0 -0.12766499752E+03 -0.22469145469E+03 -0.20654877054E+03  0.34035313799E+03  0.79957879709E+02 0.  0.
         13    1    3    3    0    0  0.79006062142E+03  0.37254030803E+03 -0.61999589582E+02  0.87568602577E+03  0.00000000000E+00 0. -1.
        -14    1    3    3    0    0  0.12055598272E+04  0.46294765932E+03 -0.82998348510E+02  0.12940570923E+04  0.00000000000E+00 0.  1.
         15    1    5    5    0    0 -0.91881863952E+03 -0.25935583769E+03 -0.43977340806E+03  0.10511407855E+04  0.17770000000E+01 0. -1.
        -16    1    5    5    0    0 -0.94913681160E+03 -0.35144067497E+03 -0.47460310161E+03  0.11178637391E+04  0.00000000000E+00 0.  1.
          4    1    6    6  502    0 -0.30613448671E+02 -0.10684070662E+03 -0.50605058168E+02  0.12211876081E+03  0.00000000000E+00 0. -1.
         -3    1    6    6    0  502 -0.97051548844E+02 -0.11785074807E+03 -0.15594371237E+03  0.21823437717E+03  0.00000000000E+00 0.  1.
<mgrwt>
<rscale>  0 0.21977628E+04</rscale>
<asrwt>0</asrwt>
<pdfrwt beam="1">  1        1 0.45730953E+00 0.21977628E+04</pdfrwt>
<pdfrwt beam="2">  1       -2 0.26255212E+00 0.21977628E+04</pdfrwt>
<totfact> 0.25700612E-02</totfact>
</mgrwt>
</event>
<event>
12    3  0.1182097E-007  0.1995357E+04  0.7818608E-02  0.8608794E-01
          1   -1    0    0  501    0  0.00000000000E+00  0.00000000000E+00  0.25352483125E+04  0.25352483125E+04  0.00000000000E+00 0. -1.
         -2   -1    0    0    0  501 -0.00000000000E+00 -0.00000000000E+00 -0.19807414816E+04  0.19807414816E+04  0.00000000000E+00 0.  1.
        -24    2    1    2    0    0 -0.18525369062E+04 -0.71073057022E+03 -0.68509515059E+03  0.21006959531E+04  0.80852890665E+02 0.  0.
    5000000    2    1    2    0    0  0.18525369062E+04  0.71073057022E+03  0.12396019815E+04  0.24152938409E+04  0.60000027774E+03 0.  0.
        -24    2    4    4    0    0  0.19622626927E+03  0.14302523875E+03  0.39368821987E+03  0.46916444032E+03  0.78510444674E+02 0.  0.
         24    2    4    4    0    0  0.16563106369E+04  0.56770533147E+03  0.84591376159E+03  0.19461294006E+04  0.78710116730E+02 0.  0.
         11    1    3    3    0    0 -0.82064966823E+03 -0.28731954195E+03 -0.26757007292E+03  0.90973190616E+03  0.00000000000E+00 0. -1.
        -12    1    3    3    0    0 -0.10318872379E+04 -0.42341102828E+03 -0.41752507767E+03  0.11909640470E+04  0.00000000000E+00 0.  1.
         15    1    5    5    0    0  0.12411088877E+03  0.13301901851E+03  0.26823662061E+03  0.32411666782E+03  0.17770000000E+01 0. -1.
        -16    1    5    5    0    0  0.72115380497E+02  0.10006220240E+02  0.12545159927E+03  0.14504777250E+03  0.00000000000E+00 0.  1.
          4    1    6    6  502    0  0.41746654562E+03  0.13099208800E+03  0.17609011231E+03  0.47164072288E+03  0.00000000000E+00 0. -1.
         -3    1    6    6    0  502  0.12388440913E+04  0.43671324347E+03  0.66982364929E+03  0.14744886777E+04  0.00000000000E+00 0.  1.
<mgrwt>
<rscale>  0 0.19953570E+04</rscale>
<asrwt>0</asrwt>
<pdfrwt beam="1">  1        1 0.39003820E+00 0.19953570E+04</pdfrwt>
<pdfrwt beam="2">  1       -2 0.30472946E+00 0.19953570E+04</pdfrwt>
<totfact> 0.29600305E-02</totfact>
</mgrwt>
</event>
<event>
12    3  0.1182097E-007  0.3924930E+03  0.7818608E-02  0.1046411E+00
          1   -1    0    0  501    0  0.00000000000E+00  0.00000000000E+00  0.16332515102E+04  0.16332515102E+04  0.00000000000E+00 0. -1.
         -2   -1    0    0    0  501 -0.00000000000E+00 -0.00000000000E+00 -0.10766089627E+03  0.10766089627E+03  0.00000000000E+00 0.  1.
        -24    2    1    2    0    0  0.16707341007E+03  0.80007369585E+02  0.28138190865E+03  0.34709138747E+03  0.83558058862E+02 0.  0.
    5000000    2    1    2    0    0 -0.16707341007E+03 -0.80007369585E+02  0.12442087052E+04  0.13938210190E+04  0.60030577803E+03 0.  0.
        -24    2    4    4    0    0  0.15656206420E+03 -0.18529427650E+03  0.71657916304E+03  0.76102455060E+03  0.82625788129E+02 0.  0.
         24    2    4    4    0    0 -0.32363547427E+03  0.10528690692E+03  0.52762954221E+03  0.63279646836E+03  0.78823750114E+02 0.  0.
         13    1    3    3    0    0  0.12039703987E+03  0.69030797401E+02  0.25972282145E+03  0.29447689583E+03  0.00000000000E+00 0. -1.
        -14    1    3    3    0    0  0.46676370201E+02  0.10976572184E+02  0.21659087206E+02  0.52614491641E+02  0.00000000000E+00 0.  1.
         15    1    5    5    0    0  0.14525140934E+03 -0.18788430620E+03  0.62304426568E+03  0.66677267427E+03  0.17770000000E+01 0. -1.
        -16    1    5    5    0    0  0.11310654856E+02  0.25900296978E+01  0.93534897360E+02  0.94251876328E+02  0.00000000000E+00 0.  1.
          2    1    6    6  502    0 -0.18214325917E+03  0.18284028804E+02  0.28676703691E+03  0.34021435306E+03  0.00000000000E+00 0. -1.
         -1    1    6    6    0  502 -0.14149221510E+03  0.87002878111E+02  0.24086250530E+03  0.29258211530E+03  0.00000000000E+00 0.  1.
<mgrwt>
<rscale>  0 0.39249298E+03</rscale>
<asrwt>0</asrwt>
<pdfrwt beam="1">  1        1 0.25126944E+00 0.39249298E+03</pdfrwt>
<pdfrwt beam="2">  1       -2 0.16563216E-01 0.39249298E+03</pdfrwt>
<totfact> 0.14648551E+02</totfact>
</mgrwt>
</event>
<event>
12    3  0.1182097E-007  0.1194789E+04  0.7818608E-02  0.9117430E-01
          1   -1    0    0  501    0  0.00000000000E+00  0.00000000000E+00  0.14714756271E+04  0.14714756271E+04  0.00000000000E+00 0. -1.
         -2   -1    0    0    0  501 -0.00000000000E+00 -0.00000000000E+00 -0.13690738762E+04  0.13690738762E+04  0.00000000000E+00 0.  1.
        -24    2    1    2    0    0  0.56561848904E+03  0.10328058041E+04  0.71936124706E+03  0.13821252416E+04  0.78596918406E+02 0.  0.
    5000000    2    1    2    0    0 -0.56561848904E+03 -0.10328058041E+04 -0.61695949607E+03  0.14584242617E+04  0.59979179976E+03 0.  0.
        -24    2    4    4    0    0 -0.36861975883E+03 -0.87788483912E+03 -0.21766073190E+03  0.97996622601E+03  0.79970573076E+02 0.  0.
         24    2    4    4    0    0 -0.19699873021E+03 -0.15492096501E+03 -0.39929876417E+03  0.47845803566E+03  0.81692005216E+02 0.  0.
         13    1    3    3    0    0  0.17446364587E+03  0.37913506757E+03  0.22694216551E+03  0.47506179564E+03  0.00000000000E+00 0. -1.
        -14    1    3    3    0    0  0.39115484316E+03  0.65367073656E+03  0.49241908155E+03  0.90706344598E+03  0.00000000000E+00 0.  1.
         15    1    5    5    0    0 -0.27872975949E+03 -0.62365141951E+03 -0.12245187092E+03  0.69399494977E+03  0.17770000000E+01 0. -1.
        -16    1    5    5    0    0 -0.89889999338E+02 -0.25423341961E+03 -0.95208860981E+02  0.28597127624E+03  0.00000000000E+00 0.  1.
          2    1    6    6  502    0 -0.62193001995E+02 -0.86459961872E+02 -0.21614988082E+03  0.24096486359E+03  0.00000000000E+00 0. -1.
         -1    1    6    6    0  502 -0.13480572821E+03 -0.68461003137E+02 -0.18314888335E+03  0.23749317207E+03  0.00000000000E+00 0.  1.
<mgrwt>
<rscale>  0 0.11947889E+04</rscale>
<asrwt>0</asrwt>
<pdfrwt beam="1">  1        1 0.22638087E+00 0.11947889E+04</pdfrwt>
<pdfrwt beam="2">  1       -2 0.21062675E+00 0.11947889E+04</pdfrwt>
<totfact> 0.66398781E-01</totfact>
</mgrwt>
</event>
<event>
12    3  0.1182097E-007  0.4716252E+03  0.7818608E-02  0.1021463E+00
          1   -1    0    0  501    0  0.00000000000E+00  0.00000000000E+00  0.13558841536E+04  0.13558841536E+04  0.00000000000E+00 0. -1.
         -2   -1    0    0    0  501 -0.00000000000E+00 -0.00000000000E+00 -0.19861255235E+03  0.19861255235E+03  0.00000000000E+00 0.  1.
        -24    2    1    2    0    0 -0.20462227286E+03  0.20768839939E+03  0.64748884371E+03  0.71485551077E+03  0.82291267785E+02 0.  0.
    5000000    2    1    2    0    0  0.20462227286E+03 -0.20768839939E+03  0.50978275750E+03  0.83964119515E+03  0.60009510159E+03 0.  0.
        -24    2    4    4    0    0 -0.16720968397E+03  0.45184875305E+02  0.59419949431E+02  0.19835364329E+03  0.76240973535E+02 0.  0.
         24    2    4    4    0    0  0.37183195683E+03 -0.25287327470E+03  0.45036280807E+03  0.64128755186E+03  0.78861702408E+02 0.  0.
         13    1    3    3    0    0 -0.15051607834E+03  0.95137822127E+02  0.38227291623E+03  0.42170947051E+03  0.00000000000E+00 0. -1.
        -14    1    3    3    0    0 -0.54106194525E+02  0.11255057726E+03  0.26521592748E+03  0.29314604026E+03  0.00000000000E+00 0.  1.
         15    1    5    5    0    0 -0.37099397659E+02  0.45912227720E+02  0.15930619990E+02  0.61165679454E+02  0.17770000000E+01 0. -1.
        -16    1    5    5    0    0 -0.13011028631E+03 -0.72735241510E+00  0.43489329441E+02  0.13718796383E+03  0.00000000000E+00 0.  1.
          4    1    6    6  502    0  0.27755095844E+03 -0.16902243203E+03  0.36631373095E+03  0.48968241396E+03  0.00000000000E+00 0. -1.
         -3    1    6    6    0  502  0.94280998393E+02 -0.83850842670E+02  0.84049077117E+02  0.15160513790E+03  0.00000000000E+00 0.  1.
<mgrwt>
<rscale>  0 0.47162516E+03</rscale>
<asrwt>0</asrwt>
<pdfrwt beam="1">  1        1 0.20859756E+00 0.47162516E+03</pdfrwt>
<pdfrwt beam="2">  1       -2 0.30555778E-01 0.47162516E+03</pdfrwt>
<totfact> 0.75682044E+01</totfact>
</mgrwt>
</event>
<event>
12    3  0.1182097E-007  0.1024716E+04  0.7818608E-02  0.9281845E-01
         -2   -1    0    0    0  501 -0.00000000000E+00  0.00000000000E+00  0.12279632360E+04  0.12279632360E+04  0.00000000000E+00 0.  1.
          1   -1    0    0  501    0  0.00000000000E+00 -0.00000000000E+00 -0.10113253157E+04  0.10113253157E+04  0.00000000000E+00 0. -1.
        -24    2    1    2    0    0  0.49286265546E+03 -0.88830076768E+03 -0.82244606672E+02  0.10222585665E+04  0.79098358847E+02 0.  0.
    5000000    2    1    2    0    0 -0.49286265546E+03  0.88830076768E+03  0.29888252692E+03  0.12170299853E+04  0.59986612603E+03 0.  0.
        -24    2    4    4    0    0 -0.17362119237E+03  0.16344892567E+03  0.33245942052E+03  0.42032926643E+03  0.96371967817E+02 0.  0.
         24    2    4    4    0    0 -0.31924146309E+03  0.72485184200E+03 -0.33576893599E+02  0.79670071884E+03  0.79242179519E+02 0.  0.
         13    1    3    3    0    0  0.22392444078E+03 -0.36753127546E+03 -0.69916880177E+02  0.43601578383E+03  0.00000000000E+00 0. -1.
        -14    1    3    3    0    0  0.26893821468E+03 -0.52076949222E+03 -0.12327726495E+02  0.58624278263E+03  0.00000000000E+00 0.  1.
         15    1    5    5    0    0 -0.12095068559E+03  0.12283305365E+03  0.15887539330E+03  0.23443885288E+03  0.17770000000E+01 0. -1.
        -16    1    5    5    0    0 -0.52670506786E+02  0.40615872022E+02  0.17358402722E+03  0.18589041355E+03  0.00000000000E+00 0.  1.
          2    1    6    6  502    0 -0.14860960094E+03  0.26937581494E+03 -0.40217888867E+02  0.31026701686E+03  0.00000000000E+00 0. -1.
         -1    1    6    6    0  502 -0.17063186215E+03  0.45547602706E+03  0.66409952680E+01  0.48643370198E+03  0.00000000000E+00 0.  1.
<mgrwt>
<rscale>  0 0.10247159E+04</rscale>
<asrwt>0</asrwt>
<pdfrwt beam="1">  1        1 0.15558851E+00 0.10247159E+04</pdfrwt>
<pdfrwt beam="2">  1       -2 0.18891742E+00 0.10247159E+04</pdfrwt>
<totfact> 0.20353714E+00</totfact>
</mgrwt>
</event>
<event>
12    3  0.1182097E-007  0.9133142E+03  0.7818608E-02  0.9409089E-01
          1   -1    0    0  501    0  0.00000000000E+00  0.00000000000E+00  0.55100763185E+03  0.55100763185E+03  0.00000000000E+00 0. -1.
         -2   -1    0    0    0  501 -0.00000000000E+00 -0.00000000000E+00 -0.16859384136E+04  0.16859384136E+04  0.00000000000E+00 0.  1.
        -24    2    1    2    0    0 -0.78455658720E+03 -0.31721150759E+03 -0.73990316380E+03  0.11269747960E+04  0.80394775070E+02 0.  0.
    5000000    2    1    2    0    0  0.78455658720E+03  0.31721150759E+03 -0.39502761793E+03  0.11099712495E+04  0.59986429855E+03 0.  0.
        -24    2    4    4    0    0  0.65993711294E+03  0.39161303779E+02 -0.90153791678E+02  0.67198390346E+03  0.79900310454E+02 0.  0.
         24    2    4    4    0    0  0.12461947426E+03  0.27805020381E+03 -0.30487382625E+03  0.43798734601E+03  0.77736324418E+02 0.  0.
         13    1    3    3    0    0 -0.23897933041E+03 -0.13625737714E+03 -0.25007847119E+03  0.37177470993E+03  0.00000000000E+00 0. -1.
        -14    1    3    3    0    0 -0.54557725679E+03 -0.18095413045E+03 -0.48982469261E+03  0.75520008603E+03  0.00000000000E+00 0.  1.
         15    1    5    5    0    0  0.35893308515E+02 -0.15416996449E+02 -0.54166887875E-02  0.39104617809E+02  0.17770000000E+01 0. -1.
        -16    1    5    5    0    0  0.62404380443E+03  0.54578300228E+02 -0.90148374989E+02  0.63287928566E+03  0.00000000000E+00 0.  1.
          4    1    6    6  502    0 -0.47723348084E+01  0.39761698521E+02 -0.62897321123E+02  0.74564340360E+02  0.00000000000E+00 0. -1.
         -3    1    6    6    0  502  0.12939180907E+03  0.23828850529E+03 -0.24197650513E+03  0.36342300565E+03  0.00000000000E+00 0.  1.
<mgrwt>
<rscale>  0 0.91331418E+03</rscale>
<asrwt>0</asrwt>
<pdfrwt beam="1">  1        1 0.84770406E-01 0.91331418E+03</pdfrwt>
<pdfrwt beam="2">  1       -2 0.25937514E+00 0.91331418E+03</pdfrwt>
<totfact> 0.19343661E+00</totfact>
</mgrwt>
</event>
<event>
12    3  0.1182097E-007  0.4481236E+03  0.7818608E-02  0.1028283E+00
          3   -1    0    0  501    0  0.00000000000E+00  0.00000000000E+00  0.92534616550E+02  0.92534616550E+02  0.00000000000E+00 0. -1.
         -4   -1    0    0    0  501 -0.00000000000E+00 -0.00000000000E+00 -0.22767502179E+04  0.22767502179E+04  0.00000000000E+00 0.  1.
        -24    2    1    2    0    0  0.11589420304E+02 -0.24890787605E+03 -0.51001227738E+03  0.57330401509E+03  0.80470648135E+02 0.  0.
    5000000    2    1    2    0    0 -0.11589420304E+02  0.24890787605E+03 -0.16742033239E+04  0.17959808193E+04  0.60041726167E+03 0.  0.
        -24    2    4    4    0    0 -0.55930652885E+02  0.43205799569E+03 -0.11967636675E+04  0.12765170085E+04  0.86313658162E+02 0.  0.
         24    2    4    4    0    0  0.44341232581E+02 -0.18315011964E+03 -0.47743965648E+03  0.51946381087E+03  0.79899399204E+02 0.  0.
         13    1    3    3    0    0 -0.15533543113E+02 -0.49701406946E+02 -0.54392962930E+02  0.75300167532E+02  0.00000000000E+00 0. -1.
        -14    1    3    3    0    0  0.27122963418E+02 -0.19920646910E+03 -0.45561931445E+03  0.49800384755E+03  0.00000000000E+00 0.  1.
         15    1    5    5    0    0  0.35674484471E+01  0.15726954562E+03 -0.53116216397E+03  0.55397007034E+03  0.17770000000E+01 0. -1.
        -16    1    5    5    0    0 -0.59498101332E+02  0.27478845006E+03 -0.66560150349E+03  0.72254693813E+03  0.00000000000E+00 0.  1.
          2    1    6    6  502    0  0.66239314265E+02 -0.11107715458E+03 -0.29770955906E+03  0.32458706471E+03  0.00000000000E+00 0. -1.
         -1    1    6    6    0  502 -0.21898081684E+02 -0.72072965055E+02 -0.17973009742E+03  0.19487674616E+03  0.00000000000E+00 0.  1.
<mgrwt>
<rscale>  0 0.44812360E+03</rscale>
<asrwt>0</asrwt>
<pdfrwt beam="1">  1        3 0.14236094E-01 0.44812360E+03</pdfrwt>
<pdfrwt beam="2">  1       -4 0.35026927E+00 0.44812360E+03</pdfrwt>
<totfact> 0.15155756E+00</totfact>
</mgrwt>
</event>
<event>
12    3  0.1182097E-007  0.5245229E+03  0.7818608E-02  0.1007569E+00
          1   -1    0    0  501    0  0.00000000000E+00  0.00000000000E+00  0.20183239566E+04  0.20183239566E+04  0.00000000000E+00 0. -1.
         -2   -1    0    0    0  501 -0.00000000000E+00 -0.00000000000E+00 -0.25062691344E+03  0.25062691344E+03  0.00000000000E+00 0.  1.
        -24    2    1    2    0    0  0.44540785518E+03  0.11944881858E+03  0.12947136767E+04  0.13765031729E+04  0.76297460933E+02 0.  0.
    5000000    2    1    2    0    0 -0.44540785518E+03 -0.11944881858E+03  0.47298336647E+03  0.89244769719E+03  0.60007786958E+03 0.  0.
        -24    2    4    4    0    0 -0.35997188476E+03 -0.23819180324E+03  0.56294309104E+02  0.44354658897E+03  0.85143610409E+02 0.  0.
         24    2    4    4    0    0 -0.85435970415E+02  0.11874298466E+03  0.41668905736E+03  0.44890110823E+03  0.80518525776E+02 0.  0.
         11    1    3    3    0    0  0.37608456020E+03  0.93005573710E+02  0.11560386759E+04  0.12192272361E+04  0.00000000000E+00 0. -1.
        -12    1    3    3    0    0  0.69323294980E+02  0.26443244869E+02  0.13867500084E+03  0.15727593676E+03  0.00000000000E+00 0.  1.
         15    1    5    5    0    0 -0.19944620871E+03 -0.16533906702E+03  0.19652695414E+01  0.25908071573E+03  0.17770000000E+01 0. -1.
        -16    1    5    5    0    0 -0.16052567606E+03 -0.72852736227E+02  0.54329039562E+02  0.18446587324E+03  0.00000000000E+00 0.  1.
          2    1    6    6  502    0 -0.89529975987E+02  0.10629743822E+03  0.29048803002E+03  0.32202182776E+03  0.00000000000E+00 0. -1.
         -1    1    6    6    0  502  0.40940055721E+01  0.12445546446E+02  0.12620102735E+03  0.12687928047E+03  0.00000000000E+00 0.  1.
<mgrwt>
<rscale>  0 0.52452291E+03</rscale>
<asrwt>0</asrwt>
<pdfrwt beam="1">  1        1 0.31051137E+00 0.52452291E+03</pdfrwt>
<pdfrwt beam="2">  1       -2 0.38557988E-01 0.52452291E+03</pdfrwt>
<totfact> 0.17424525E+01</totfact>
</mgrwt>
</event>
<event>
12    3  0.1182097E-007  0.9148009E+03  0.7818608E-02  0.9407266E-01
         -2   -1    0    0    0  501 -0.00000000000E+00  0.00000000000E+00  0.49740733248E+03  0.49740733248E+03  0.00000000000E+00 0.  1.
          1   -1    0    0  501    0  0.00000000000E+00 -0.00000000000E+00 -0.20694072720E+04  0.20694072720E+04  0.00000000000E+00 0. -1.
        -24    2    1    2    0    0 -0.87857138432E+03  0.21056472696E+03 -0.96327214893E+03  0.13228883415E+04  0.76910010455E+02 0.  0.
    5000000    2    1    2    0    0  0.87857138432E+03 -0.21056472696E+03 -0.60872779055E+03  0.12439262629E+04  0.60048134274E+03 0.  0.
        -24    2    4    4    0    0  0.51986794312E+02 -0.31217170396E+02  0.96283098731E+02  0.13960568335E+03  0.80883701778E+02 0.  0.
         24    2    4    4    0    0  0.82658459000E+03 -0.17934755656E+03 -0.70501088928E+03  0.11043205796E+04  0.84118713361E+02 0.  0.
         13    1    3    3    0    0 -0.60029615606E+03  0.15844801583E+03 -0.70827413170E+03  0.94186702583E+03  0.00000000000E+00 0. -1.
        -14    1    3    3    0    0 -0.27827522826E+03  0.52116711125E+02 -0.25499801722E+03  0.38102131571E+03  0.00000000000E+00 0.  1.
         15    1    5    5    0    0  0.52404707028E+02 -0.40346983434E+01  0.99185906320E+02  0.11226546152E+03  0.17770000000E+01 0. -1.
        -16    1    5    5    0    0 -0.41791271525E+00 -0.27182472052E+02 -0.29028075891E+01  0.27340221832E+02  0.00000000000E+00 0.  1.
          2    1    6    6  502    0  0.70604941941E+03 -0.15615085137E+03 -0.56177789189E+03  0.91568732155E+03  0.00000000000E+00 0. -1.
         -1    1    6    6    0  502  0.12053517059E+03 -0.23196705190E+02 -0.14323299739E+03  0.18863325800E+03  0.00000000000E+00 0.  1.
<mgrwt>
<rscale>  0 0.91480089E+03</rscale>
<asrwt>0</asrwt>
<pdfrwt beam="1">  1        1 0.31837036E+00 0.91480089E+03</pdfrwt>
<pdfrwt beam="2">  1       -2 0.76524203E-01 0.91480089E+03</pdfrwt>
<totfact> 0.36547639E+00</totfact>
</mgrwt>
</event>
<event>
12    3  0.1182097E-007  0.5259321E+03  0.7818608E-02  0.1007223E+00
          1   -1    0    0  501    0  0.00000000000E+00  0.00000000000E+00  0.81340085834E+03  0.81340085834E+03  0.00000000000E+00 0. -1.
         -2   -1    0    0    0  501 -0.00000000000E+00 -0.00000000000E+00 -0.42836569071E+03  0.42836569071E+03  0.00000000000E+00 0.  1.
        -24    2    1    2    0    0  0.41547060444E+03 -0.11678864485E+03  0.18273923273E+03  0.47541740592E+03  0.79829017013E+02 0.  0.
    5000000    2    1    2    0    0 -0.41547060444E+03  0.11678864485E+03  0.20229593490E+03  0.76634914313E+03  0.60009328707E+03 0.  0.
        -24    2    4    4    0    0 -0.71878808319E+02  0.23944569802E+03  0.28116421140E+03  0.38472461574E+03  0.80367349053E+02 0.  0.
         24    2    4    4    0    0 -0.34359179612E+03 -0.12265705317E+03 -0.78868276506E+02  0.38162452740E+03  0.79479555986E+02 0.  0.
         11    1    3    3    0    0  0.16040839185E+03 -0.62224610393E+02  0.11152231073E+03  0.20503653358E+03  0.00000000000E+00 0. -1.
        -12    1    3    3    0    0  0.25506221259E+03 -0.54564034455E+02  0.71216922002E+02  0.27038087234E+03  0.00000000000E+00 0.  1.
         15    1    5    5    0    0 -0.54051254817E+02  0.14989468808E+03  0.11996304987E+03  0.19945988751E+03  0.17770000000E+01 0. -1.
        -16    1    5    5    0    0 -0.17827553502E+02  0.89551009939E+02  0.16120116154E+03  0.18526472823E+03  0.00000000000E+00 0.  1.
          4    1    6    6  502    0 -0.34458753583E+03 -0.11904827695E+03 -0.68966015128E+02  0.37103823703E+03  0.00000000000E+00 0. -1.
         -3    1    6    6    0  502  0.99573971143E+00 -0.36087762226E+01 -0.99022613783E+01  0.10586290370E+02  0.00000000000E+00 0.  1.
<mgrwt>
<rscale>  0 0.52593213E+03</rscale>
<asrwt>0</asrwt>
<pdfrwt beam="1">  1        1 0.12513859E+00 0.52593213E+03</pdfrwt>
<pdfrwt beam="2">  1       -2 0.65902414E-01 0.52593213E+03</pdfrwt>
<totfact> 0.41704255E+01</totfact>
</mgrwt>
</event>
<event>
12    3  0.1182097E-007  0.2770381E+04  0.7818608E-02  0.8312523E-01
          1   -1    0    0  501    0  0.00000000000E+00  0.00000000000E+00  0.32442714750E+04  0.32442714750E+04  0.00000000000E+00 0. -1.
         -2   -1    0    0    0  501 -0.00000000000E+00 -0.00000000000E+00 -0.23851662770E+04  0.23851662770E+04  0.00000000000E+00 0.  1.
        -24    2    1    2    0    0 -0.25860439505E+04  0.93137625550E+03  0.39769302240E+03  0.27784868605E+04  0.82124606477E+02 0.  0.
    5000000    2    1    2    0    0  0.25860439505E+04 -0.93137625550E+03  0.46141217564E+03  0.28509508915E+04  0.59994561986E+03 0.  0.
        -24    2    4    4    0    0  0.19746425524E+04 -0.92080411362E+03  0.48257343158E+03  0.22330497693E+04  0.80874777523E+02 0.  0.
         24    2    4    4    0    0  0.61140139803E+03 -0.10572141881E+02 -0.21161255943E+02  0.61790112222E+03  0.86200686653E+02 0.  0.
         13    1    3    3    0    0 -0.21138571084E+04  0.77378528777E+03  0.35525874522E+03  0.22788910291E+04  0.00000000000E+00 0. -1.
        -14    1    3    3    0    0 -0.47218684206E+03  0.15759096773E+03  0.42434277175E+02  0.49959583145E+03  0.00000000000E+00 0.  1.
         15    1    5    5    0    0  0.55917739746E+03 -0.30122709295E+03  0.14207177982E+03  0.65084919276E+03  0.17770000000E+01 0. -1.
        -16    1    5    5    0    0  0.14154651550E+04 -0.61957702067E+03  0.34050165176E+03  0.15822005765E+04  0.00000000000E+00 0.  1.
          4    1    6    6  502    0  0.29379041075E+03 -0.12242312712E+02 -0.52674965615E+02  0.29872618177E+03  0.00000000000E+00 0. -1.
         -3    1    6    6    0  502  0.31761098728E+03  0.16701708304E+01  0.31513709672E+02  0.31917494045E+03  0.00000000000E+00 0.  1.
<mgrwt>
<rscale>  0 0.27703809E+04</rscale>
<asrwt>0</asrwt>
<pdfrwt beam="1">  1        1 0.49911869E+00 0.27703809E+04</pdfrwt>
<pdfrwt beam="2">  1       -2 0.36694866E+00 0.27703809E+04</pdfrwt>
<totfact> 0.34130119E-03</totfact>
</mgrwt>
</event>
<event>
12    3  0.1182097E-007  0.1297257E+04  0.7818608E-02  0.9031743E-01
         -2   -1    0    0    0  501 -0.00000000000E+00  0.00000000000E+00  0.61158335779E+03  0.61158335779E+03  0.00000000000E+00 0.  1.
          1   -1    0    0  501    0  0.00000000000E+00 -0.00000000000E+00 -0.45454109051E+04  0.45454109051E+04  0.00000000000E+00 0. -1.
        -24    2    1    2    0    0  0.12423690112E+04  0.19201943488E+03 -0.34304660175E+03  0.13054997270E+04  0.79349497911E+02 0.  0.
    5000000    2    1    2    0    0 -0.12423690112E+04 -0.19201943488E+03 -0.35907809456E+04  0.38514945359E+04  0.59995844668E+03 0.  0.
        -24    2    4    4    0    0 -0.12715149199E+04 -0.19907518831E+03 -0.31594976448E+04  0.34124616155E+04  0.78024278886E+02 0.  0.
         24    2    4    4    0    0  0.29145908672E+02  0.70557534265E+01 -0.43128330082E+03  0.43903292041E+03  0.76454901628E+02 0.  0.
         13    1    3    3    0    0  0.48272138307E+03  0.95705089536E+02 -0.10049401248E+03  0.50227327659E+03  0.00000000000E+00 0. -1.
        -14    1    3    3    0    0  0.75964762813E+03  0.96314345347E+02 -0.24255258927E+03  0.80322645038E+03  0.00000000000E+00 0.  1.
         15    1    5    5    0    0 -0.95987224308E+03 -0.18296169177E+03 -0.23720061689E+04  0.25653939516E+04  0.17770000000E+01 0. -1.
        -16    1    5    5    0    0 -0.31164267679E+03 -0.16113496542E+02 -0.78749147582E+03  0.84706766391E+03  0.00000000000E+00 0.  1.
          4    1    6    6  502    0 -0.11873717665E+01 -0.11719071084E+02 -0.79767422877E+01  0.14225853096E+02  0.00000000000E+00 0. -1.
         -3    1    6    6    0  502  0.30333280439E+02  0.18774824511E+02 -0.42330655853E+03  0.42480706731E+03  0.00000000000E+00 0.  1.
<mgrwt>
<rscale>  0 0.12972567E+04</rscale>
<asrwt>0</asrwt>
<pdfrwt beam="1">  1        1 0.69929396E+00 0.12972567E+04</pdfrwt>
<pdfrwt beam="2">  1       -2 0.94089750E-01 0.12972567E+04</pdfrwt>
<totfact> 0.24433323E-02</totfact>
</mgrwt>
</event>
<event>
12    3  0.1182097E-007  0.1035945E+04  0.7818608E-02  0.9269976E-01
         -4   -1    0    0    0  501 -0.00000000000E+00  0.00000000000E+00  0.12380892674E+04  0.12380892674E+04  0.00000000000E+00 0.  1.
          3   -1    0    0  501    0  0.00000000000E+00 -0.00000000000E+00 -0.88207672948E+03  0.88207672948E+03  0.00000000000E+00 0. -1.
        -24    2    1    2    0    0 -0.71410068487E+03  0.63259160287E+03  0.24265782186E+03  0.98749395189E+03  0.78419145279E+02 0.  0.
    5000000    2    1    2    0    0  0.71410068487E+03 -0.63259160287E+03  0.11335471605E+03  0.11326720450E+04  0.59998728794E+03 0.  0.
        -24    2    4    4    0    0  0.73417456857E+03 -0.32271644153E+03  0.38579629385E+02  0.80676227030E+03  0.78859204945E+02 0.  0.
         24    2    4    4    0    0 -0.20073883700E+02 -0.30987516134E+03  0.74775086666E+02  0.32590977469E+03  0.64809653807E+02 0.  0.
         13    1    3    3    0    0 -0.21575340577E+03  0.23707035759E+03  0.67245323819E+02  0.32752682352E+03  0.00000000000E+00 0. -1.
        -14    1    3    3    0    0 -0.49834727911E+03  0.39552124528E+03  0.17541249804E+03  0.65996712837E+03  0.00000000000E+00 0.  1.
         15    1    5    5    0    0  0.24815996611E+03 -0.76389776106E+02 -0.90179611162E+01  0.25981387189E+03  0.17770000000E+01 0. -1.
        -16    1    5    5    0    0  0.48601460246E+03 -0.24632666542E+03  0.47597590501E+02  0.54694839841E+03  0.00000000000E+00 0.  1.
          4    1    6    6  502    0 -0.14280635683E+01 -0.57796511905E+02 -0.11262289996E+02  0.58900894135E+02  0.00000000000E+00 0. -1.
         -3    1    6    6    0  502 -0.18645820131E+02 -0.25207864944E+03  0.86037376662E+02  0.26700888055E+03  0.00000000000E+00 0.  1.
<mgrwt>
<rscale>  0 0.10359452E+04</rscale>
<asrwt>0</asrwt>
<pdfrwt beam="1">  1        3 0.13570411E+00 0.10359452E+04</pdfrwt>
<pdfrwt beam="2">  1       -4 0.19047527E+00 0.10359452E+04</pdfrwt>
<totfact> 0.14050266E-01</totfact>
</mgrwt>
</event>
<event>
12    3  0.1182097E-007  0.8048578E+03  0.7818608E-02  0.9553012E-01
         -2   -1    0    0    0  501 -0.00000000000E+00  0.00000000000E+00  0.53601421575E+03  0.53601421575E+03  0.00000000000E+00 0.  1.
          1   -1    0    0  501    0  0.00000000000E+00 -0.00000000000E+00 -0.15333516449E+04  0.15333516449E+04  0.00000000000E+00 0. -1.
        -24    2    1    2    0    0 -0.57797381578E+03  0.51737069075E+03 -0.69130706659E+03  0.10421544850E+04  0.80338949971E+02 0.  0.
    5000000    2    1    2    0    0  0.57797381578E+03 -0.51737069075E+03 -0.30603036257E+03  0.10272113757E+04  0.59981869272E+03 0.  0.
        -24    2    4    4    0    0  0.18146264645E+03 -0.87701354524E+01 -0.32376375921E+03  0.37985214996E+03  0.80368381300E+02 0.  0.
         24    2    4    4    0    0  0.39651116933E+03 -0.50860055529E+03  0.17733396643E+02  0.64735922572E+03  0.53515058875E+02 0.  0.
         11    1    3    3    0    0 -0.97848792936E+02  0.10825549849E+03 -0.16824004013E+03  0.22270687088E+03  0.00000000000E+00 0. -1.
        -12    1    3    3    0    0 -0.48012502284E+03  0.40911519225E+03 -0.52306702645E+03  0.81944761410E+03  0.00000000000E+00 0.  1.
         15    1    5    5    0    0  0.15107149020E+03 -0.22339363747E+02 -0.30630484960E+03  0.34226811266E+03  0.17770000000E+01 0. -1.
        -16    1    5    5    0    0  0.30391156248E+02  0.13569228294E+02 -0.17458909611E+02  0.37584037295E+02  0.00000000000E+00 0.  1.
          2    1    6    6  502    0  0.29217761869E+03 -0.40989196883E+03  0.18995342453E+02  0.50372612600E+03  0.00000000000E+00 0. -1.
         -1    1    6    6    0  502  0.10433355064E+03 -0.98708586459E+02 -0.12619458098E+01  0.14363309973E+03  0.00000000000E+00 0.  1.
<mgrwt>
<rscale>  0 0.80485781E+03</rscale>
<asrwt>0</asrwt>
<pdfrwt beam="1">  1        1 0.23590025E+00 0.80485781E+03</pdfrwt>
<pdfrwt beam="2">  1       -2 0.82463726E-01 0.80485781E+03</pdfrwt>
<totfact> 0.72056055E+00</totfact>
</mgrwt>
</event>
<event>
12    3  0.1182097E-007  0.7193229E+03  0.7818608E-02  0.9684746E-01
          1   -1    0    0  501    0  0.00000000000E+00  0.00000000000E+00  0.10079592574E+04  0.10079592574E+04  0.00000000000E+00 0. -1.
         -2   -1    0    0    0  501 -0.00000000000E+00 -0.00000000000E+00 -0.54404059457E+03  0.54404059457E+03  0.00000000000E+00 0.  1.
        -24    2    1    2    0    0 -0.49038496488E+03  0.34435313680E+03  0.34437899822E+03  0.69559094739E+03  0.78697999248E+02 0.  0.
    5000000    2    1    2    0    0  0.49038496488E+03 -0.34435313680E+03  0.11953966462E+03  0.85640890458E+03  0.60007498183E+03 0.  0.
        -24    2    4    4    0    0  0.52462657892E+03 -0.40470818113E+02  0.70069086353E+02  0.53658942232E+03  0.78406612294E+02 0.  0.
         24    2    4    4    0    0 -0.34241614041E+02 -0.30388231868E+03  0.49470578266E+02  0.31981948226E+03  0.79499757111E+02 0.  0.
         13    1    3    3    0    0 -0.95756641082E+02  0.82241140850E+02  0.10812400579E+03  0.16620391147E+03  0.00000000000E+00 0. -1.
        -14    1    3    3    0    0 -0.39462832380E+03  0.26211199594E+03  0.23625499243E+03  0.52938703593E+03  0.00000000000E+00 0.  1.
         15    1    5    5    0    0  0.16234210600E+03  0.23649647548E+02  0.19779208629E+02  0.16525326027E+03  0.17770000000E+01 0. -1.
        -16    1    5    5    0    0  0.36228447292E+03 -0.64120465661E+02  0.50289877724E+02  0.37133616204E+03  0.00000000000E+00 0.  1.
          2    1    6    6  502    0 -0.27039937280E+02 -0.13621826914E+03 -0.15763461213E+02  0.13976788531E+03  0.00000000000E+00 0. -1.
         -1    1    6    6    0  502 -0.72016767606E+01 -0.16766404954E+03  0.65234039478E+02  0.18005159695E+03  0.00000000000E+00 0.  1.
<mgrwt>
<rscale>  0 0.71932286E+03</rscale>
<asrwt>0</asrwt>
<pdfrwt beam="1">  1        1 0.15507066E+00 0.71932286E+03</pdfrwt>
<pdfrwt beam="2">  1       -2 0.83698553E-01 0.71932286E+03</pdfrwt>
<totfact> 0.16763823E+01</totfact>
</mgrwt>
</event>
<event>
12    3  0.1182097E-007  0.2563507E+03  0.7818608E-02  0.1109356E+00
          1   -1    0    0  501    0  0.00000000000E+00  0.00000000000E+00  0.11912764988E+04  0.11912764988E+04  0.00000000000E+00 0. -1.
         -2   -1    0    0    0  501 -0.00000000000E+00 -0.00000000000E+00 -0.18952873762E+03  0.18952873762E+03  0.00000000000E+00 0.  1.
        -24    2    1    2    0    0  0.21669239589E+03  0.45568186090E+02  0.54943365734E+03  0.59747231084E+03  0.77870176520E+02 0.  0.
    5000000    2    1    2    0    0 -0.21669239589E+03 -0.45568186090E+02  0.45231410383E+03  0.78333292556E+03  0.59999197471E+03 0.  0.
        -24    2    4    4    0    0 -0.22115865942E+03 -0.42784489816E+02  0.58327259402E+03  0.63006191556E+03  0.77649425595E+02 0.  0.
         24    2    4    4    0    0  0.44662635339E+01 -0.27836962742E+01 -0.13095849018E+03  0.15327101001E+03  0.79461813990E+02 0.  0.
         11    1    3    3    0    0  0.81147310437E+02  0.27193473444E+02  0.31129487928E+03  0.32284496722E+03  0.00000000000E+00 0. -1.
        -12    1    3    3    0    0  0.13554508545E+03  0.18374712646E+02  0.23813877805E+03  0.27462734363E+03  0.00000000000E+00 0.  1.
         15    1    5    5    0    0 -0.18883238938E+03 -0.16379851912E+02  0.52661407737E+03  0.55968876623E+03  0.17770000000E+01 0. -1.
        -16    1    5    5    0    0 -0.32326270044E+02 -0.26404637904E+02  0.56658516649E+02  0.70373149331E+02  0.00000000000E+00 0.  1.
          2    1    6    6  502    0  0.20674291241E+02  0.21513667249E+02 -0.14440305215E+02  0.33147950336E+02  0.00000000000E+00 0. -1.
         -1    1    6    6    0  502 -0.16208027707E+02 -0.24297363523E+02 -0.11651818497E+03  0.12012305967E+03  0.00000000000E+00 0.  1.
<mgrwt>
<rscale>  0 0.25635066E+03</rscale>
<asrwt>0</asrwt>
<pdfrwt beam="1">  1        1 0.18327330E+00 0.25635066E+03</pdfrwt>
<pdfrwt beam="2">  1       -2 0.29158268E-01 0.25635066E+03</pdfrwt>
<totfact> 0.11147436E+02</totfact>
</mgrwt>
</event>
<event>
12    3  0.1182097E-007  0.5489160E+03  0.7818608E-02  0.1001745E+00
         -2   -1    0    0    0  501 -0.00000000000E+00  0.00000000000E+00  0.19507981329E+04  0.19507981329E+04  0.00000000000E+00 0.  1.
          1   -1    0    0  501    0  0.00000000000E+00 -0.00000000000E+00 -0.23251657380E+03  0.23251657380E+03  0.00000000000E+00 0. -1.
        -24    2    1    2    0    0 -0.49617598792E+03  0.16748332790E+03  0.50450942975E+03  0.73158429227E+03  0.80277866687E+02 0.  0.
    5000000    2    1    2    0    0  0.49617598792E+03 -0.16748332790E+03  0.12137721294E+04  0.14517304145E+04  0.60003094763E+03 0.  0.
        -24    2    4    4    0    0  0.12257578082E+03 -0.12567792722E+03  0.15992286683E+02  0.19392134421E+03  0.80808236426E+02 0.  0.
         24    2    4    4    0    0  0.37360020709E+03 -0.41805400682E+02  0.11977798427E+04  0.12578090703E+04  0.77989097773E+02 0.  0.
         11    1    3    3    0    0 -0.15027438520E+02  0.12100742616E+02  0.31695388799E+01  0.19552438647E+02  0.00000000000E+00 0. -1.
        -12    1    3    3    0    0 -0.48114854940E+03  0.15538258528E+03  0.50133989087E+03  0.71203185362E+03  0.00000000000E+00 0.  1.
         15    1    5    5    0    0  0.30904206387E+02 -0.82677075458E+02 -0.11427335591E+02  0.89018596408E+02  0.17770000000E+01 0. -1.
        -16    1    5    5    0    0  0.91671574435E+02 -0.43000851760E+02  0.27419622274E+02  0.10490274781E+03  0.00000000000E+00 0.  1.
          2    1    6    6  502    0  0.19991036891E+03  0.15434895124E+02  0.66003146137E+03  0.68981441097E+03  0.00000000000E+00 0. -1.
         -1    1    6    6    0  502  0.17368983818E+03 -0.57240295806E+02  0.53774838133E+03  0.56799465928E+03  0.00000000000E+00 0.  1.
<mgrwt>
<rscale>  0 0.54891597E+03</rscale>
<asrwt>0</asrwt>
<pdfrwt beam="1">  1        1 0.35771782E-01 0.54891597E+03</pdfrwt>
<pdfrwt beam="2">  1       -2 0.30012278E+00 0.54891597E+03</pdfrwt>
<totfact> 0.36428284E+00</totfact>
</mgrwt>
</event>
<event>
12    3  0.1182097E-007  0.8356075E+03  0.7818608E-02  0.9509860E-01
         -2   -1    0    0    0  501 -0.00000000000E+00  0.00000000000E+00  0.33946653236E+03  0.33946653236E+03  0.00000000000E+00 0.  1.
          1   -1    0    0  501    0  0.00000000000E+00 -0.00000000000E+00 -0.24366848236E+04  0.24366848236E+04  0.00000000000E+00 0. -1.
        -24    2    1    2    0    0  0.22778784657E+03  0.77533700515E+03 -0.97328739753E+03  0.12675122902E+04  0.79147160503E+02 0.  0.
    5000000    2    1    2    0    0 -0.22778784657E+03 -0.77533700515E+03 -0.11239308937E+04  0.15086390657E+04  0.59978029498E+03 0.  0.
        -24    2    4    4    0    0 -0.21625520097E+03 -0.74222618791E+03 -0.61349416731E+03  0.99074166911E+03  0.86763676792E+02 0.  0.
         24    2    4    4    0    0 -0.11532645603E+02 -0.33110817242E+02 -0.51043672635E+03  0.51789739660E+03  0.80266641060E+02 0.  0.
         13    1    3    3    0    0  0.12629655430E+03  0.52214629605E+03 -0.68670581547E+03  0.87186722103E+03  0.00000000000E+00 0. -1.
        -14    1    3    3    0    0  0.10149129228E+03  0.25319070910E+03 -0.28658158206E+03  0.39564506917E+03  0.00000000000E+00 0.  1.
         15    1    5    5    0    0 -0.13747049236E+03 -0.52021886270E+03 -0.37750094023E+03  0.65729439294E+03  0.17770000000E+01 0. -1.
        -16    1    5    5    0    0 -0.78784708607E+02 -0.22200732521E+03 -0.23599322708E+03  0.33344727617E+03  0.00000000000E+00 0.  1.
          2    1    6    6  502    0 -0.51462114150E+01 -0.59861926179E+02 -0.34765260843E+03  0.35280627807E+03  0.00000000000E+00 0. -1.
         -1    1    6    6    0  502 -0.63864341882E+01  0.26751108937E+02 -0.16278411792E+03  0.16509111854E+03  0.00000000000E+00 0.  1.
<mgrwt>
<rscale>  0 0.83560747E+03</rscale>
<asrwt>0</asrwt>
<pdfrwt beam="1">  1        1 0.37487458E+00 0.83560747E+03</pdfrwt>
<pdfrwt beam="2">  1       -2 0.52225622E-01 0.83560747E+03</pdfrwt>
<totfact> 0.47306848E+00</totfact>
</mgrwt>
</event>
<event>
12    3  0.1182097E-007  0.1183487E+04  0.7818608E-02  0.9127434E-01
         -2   -1    0    0    0  501 -0.00000000000E+00  0.00000000000E+00  0.12640854002E+04  0.12640854002E+04  0.00000000000E+00 0.  1.
          1   -1    0    0  501    0  0.00000000000E+00 -0.00000000000E+00 -0.22424559451E+04  0.22424559451E+04  0.00000000000E+00 0. -1.
        -24    2    1    2    0    0  0.10297650229E+04  0.43372215363E+03  0.76102144966E+03  0.13538424910E+04  0.72145232839E+02 0.  0.
    5000000    2    1    2    0    0 -0.10297650229E+04 -0.43372215363E+03 -0.17393919946E+04  0.21526988543E+04  0.60008077580E+03 0.  0.
        -24    2    4    4    0    0 -0.38603681472E+03  0.11467537911E+03 -0.68352854423E+03  0.79722117169E+03  0.78584100990E+02 0.  0.
         24    2    4    4    0    0 -0.64372820820E+03 -0.54839753274E+03 -0.10558634504E+04  0.13554776826E+04  0.85710339443E+02 0.  0.
         11    1    3    3    0    0  0.77430030093E+03  0.32276503855E+03  0.53297187249E+03  0.99386983202E+03  0.00000000000E+00 0. -1.
        -12    1    3    3    0    0  0.25546472198E+03  0.11095711508E+03  0.22804957717E+03  0.35997265898E+03  0.00000000000E+00 0.  1.
         15    1    5    5    0    0 -0.59186106835E+02  0.10119429694E+02 -0.16334285056E+03  0.17403862404E+03  0.17770000000E+01 0. -1.
        -16    1    5    5    0    0 -0.32685070788E+03  0.10455594942E+03 -0.52018569367E+03  0.62318254765E+03  0.00000000000E+00 0.  1.
          4    1    6    6  502    0 -0.34369679238E+03 -0.31505731362E+03 -0.64360690436E+03  0.79474426283E+03  0.00000000000E+00 0. -1.
         -3    1    6    6    0  502 -0.30003141581E+03 -0.23334021912E+03 -0.41225654604E+03  0.56073341980E+03  0.00000000000E+00 0.  1.
<mgrwt>
<rscale>  0 0.11834873E+04</rscale>
<asrwt>0</asrwt>
<pdfrwt beam="1">  1        1 0.34499322E+00 0.11834873E+04</pdfrwt>
<pdfrwt beam="2">  1       -2 0.19447468E+00 0.11834873E+04</pdfrwt>
<totfact> 0.25333907E-01</totfact>
</mgrwt>
</event>
<event>
12    3  0.1182097E-007  0.4941884E+03  0.7818608E-02  0.1015307E+00
          1   -1    0    0  501    0  0.00000000000E+00  0.00000000000E+00  0.85145917768E+03  0.85145917768E+03  0.00000000000E+00 0. -1.
         -2   -1    0    0    0  501 -0.00000000000E+00 -0.00000000000E+00 -0.56806516352E+03  0.56806516352E+03  0.00000000000E+00 0.  1.
        -24    2    1    2    0    0  0.43131949029E+03 -0.18390996516E+03 -0.20176213167E+03  0.51663046303E+03  0.79622230384E+02 0.  0.
    5000000    2    1    2    0    0 -0.43131949029E+03  0.18390996516E+03  0.48515614583E+03  0.90289387816E+03  0.59998457597E+03 0.  0.
        -24    2    4    4    0    0 -0.33602089255E+03  0.19771897625E+03 -0.38869720563E+01  0.39818718636E+03  0.80839922294E+02 0.  0.
         24    2    4    4    0    0 -0.95298597741E+02 -0.13809011088E+02  0.48904311788E+03  0.50470669180E+03  0.79329452759E+02 0.  0.
         11    1    3    3    0    0  0.34325321012E+03 -0.15380684543E+03 -0.12618296176E+03  0.39673851817E+03  0.00000000000E+00 0. -1.
        -12    1    3    3    0    0  0.88066280170E+02 -0.30103119729E+02 -0.75579169905E+02  0.11989194487E+03  0.00000000000E+00 0.  1.
         15    1    5    5    0    0 -0.26039408687E+03  0.18436229250E+03 -0.20126684080E+02  0.31969168977E+03  0.17770000000E+01 0. -1.
        -16    1    5    5    0    0 -0.75626805682E+02  0.13356683751E+02  0.16239712024E+02  0.78495496591E+02  0.00000000000E+00 0.  1.
          4    1    6    6  502    0  0.13610521766E+02 -0.83077978700E+00  0.34009114134E+02  0.36640910769E+02  0.00000000000E+00 0. -1.
         -3    1    6    6    0  502 -0.10890911951E+03 -0.12978231301E+02  0.45503400375E+03  0.46806578103E+03  0.00000000000E+00 0.  1.
<mgrwt>
<rscale>  0 0.49418839E+03</rscale>
<asrwt>0</asrwt>
<pdfrwt beam="1">  1        1 0.13099372E+00 0.49418839E+03</pdfrwt>
<pdfrwt beam="2">  1       -2 0.87394640E-01 0.49418839E+03</pdfrwt>
<totfact> 0.20857337E+01</totfact>
</mgrwt>
</event>
<event>
12    3  0.1182097E-007  0.8418582E+03  0.7818608E-02  0.9501330E-01
         -2   -1    0    0    0  501 -0.00000000000E+00  0.00000000000E+00  0.53987033226E+03  0.53987033226E+03  0.00000000000E+00 0.  1.
          1   -1    0    0  501    0  0.00000000000E+00 -0.00000000000E+00 -0.13945543208E+04  0.13945543208E+04  0.00000000000E+00 0. -1.
        -24    2    1    2    0    0  0.69721666922E+03  0.27880652490E+03 -0.51911703736E+03  0.91628389760E+03  0.79053907913E+02 0.  0.
    5000000    2    1    2    0    0 -0.69721666922E+03 -0.27880652490E+03 -0.33556695119E+03  0.10181407555E+04  0.60013436581E+03 0.  0.
        -24    2    4    4    0    0  0.72924882027E+02  0.24775362712E+02 -0.11077257545E+03  0.15667089743E+03  0.79645148082E+02 0.  0.
         24    2    4    4    0    0 -0.77014155125E+03 -0.30358188762E+03 -0.22479437574E+03  0.86146985803E+03  0.79484800292E+02 0.  0.
         11    1    3    3    0    0  0.39199277966E+03  0.19833964593E+03 -0.30859133476E+03  0.53686643250E+03  0.00000000000E+00 0. -1.
        -12    1    3    3    0    0  0.30522388956E+03  0.80466878975E+02 -0.21052570260E+03  0.37941746510E+03  0.00000000000E+00 0.  1.
         15    1    5    5    0    0 -0.99246990354E+01 -0.62929947959E+01 -0.44665657500E+02  0.46219910465E+02  0.17770000000E+01 0. -1.
        -16    1    5    5    0    0  0.82849581063E+02  0.31068357508E+02 -0.66106917951E+02  0.11045098696E+03  0.00000000000E+00 0.  1.
          4    1    6    6  502    0 -0.50545279755E+03 -0.21478061653E+03 -0.18468855559E+03  0.57941617716E+03  0.00000000000E+00 0. -1.
         -3    1    6    6    0  502 -0.26468875370E+03 -0.88801271085E+02 -0.40105820145E+02  0.28205368086E+03  0.00000000000E+00 0.  1.
<mgrwt>
<rscale>  0 0.84185816E+03</rscale>
<asrwt>0</asrwt>
<pdfrwt beam="1">  1        1 0.21454682E+00 0.84185816E+03</pdfrwt>
<pdfrwt beam="2">  1       -2 0.83056975E-01 0.84185816E+03</pdfrwt>
<totfact> 0.87973198E+00</totfact>
</mgrwt>
</event>
<event>
12    3  0.1182097E-007  0.6410381E+03  0.7818608E-02  0.9823742E-01
          1   -1    0    0  501    0  0.00000000000E+00  0.00000000000E+00  0.62305221959E+03  0.62305221959E+03  0.00000000000E+00 0. -1.
         -2   -1    0    0    0  501 -0.00000000000E+00 -0.00000000000E+00 -0.12547845488E+04  0.12547845488E+04  0.00000000000E+00 0.  1.
        -24    2    1    2    0    0  0.42112488701E+02 -0.51288681088E+03 -0.90265781621E+03  0.10424191128E+04  0.83786222108E+02 0.  0.
    5000000    2    1    2    0    0 -0.42112488701E+02  0.51288681088E+03  0.27092548698E+03  0.83541765566E+03  0.59974636090E+03 0.  0.
        -24    2    4    4    0    0 -0.67194711870E+02 -0.10256522031E+03  0.13694459357E+03  0.20024736196E+03  0.79438218399E+02 0.  0.
         24    2    4    4    0    0  0.25082223169E+02  0.61545203119E+03  0.13398089341E+03  0.63517029370E+03  0.77975006200E+02 0.  0.
         11    1    3    3    0    0  0.12471716495E+02 -0.35154655862E+03 -0.54113667720E+03  0.64542190077E+03  0.00000000000E+00 0. -1.
        -12    1    3    3    0    0  0.29640772206E+02 -0.16134025226E+03 -0.36152113901E+03  0.39699721199E+03  0.00000000000E+00 0.  1.
         15    1    5    5    0    0 -0.60062189555E+02 -0.11594996948E+03  0.12662012817E+03  0.18190018313E+03  0.17770000000E+01 0. -1.
        -16    1    5    5    0    0 -0.71325223153E+01  0.13384749173E+02  0.10324465397E+02  0.18347178822E+02  0.00000000000E+00 0.  1.
          4    1    6    6  502    0  0.49524128259E+02  0.29539676273E+03  0.75662857575E+02  0.30892839742E+03  0.00000000000E+00 0. -1.
         -3    1    6    6    0  502 -0.24441905091E+02  0.32005526845E+03  0.58318035833E+02  0.32624189628E+03  0.00000000000E+00 0.  1.
<mgrwt>
<rscale>  0 0.64103808E+03</rscale>
<asrwt>0</asrwt>
<pdfrwt beam="1">  1        1 0.95854189E-01 0.64103808E+03</pdfrwt>
<pdfrwt beam="2">  1       -2 0.19304377E+00 0.64103808E+03</pdfrwt>
<totfact> 0.43714316E+00</totfact>
</mgrwt>
</event>
<event>
12    3  0.1242516E-007  0.9273222E+03  0.7818608E-02  0.9392057E-01
          1   -1    0    0  501    0  0.00000000000E+00  0.00000000000E+00  0.28283814191E+04  0.28283814191E+04  0.00000000000E+00 0. -1.
         -2   -1    0    0    0  501 -0.00000000000E+00 -0.00000000000E+00 -0.31748750903E+03  0.31748750903E+03  0.00000000000E+00 0.  1.
        -24    2    1    2    0    0  0.71210912778E+03  0.43897650854E+03  0.87765664924E+03  0.12152693563E+04  0.82453802796E+02 0.  0.
    5000000    2    1    2    0    0 -0.71210912778E+03 -0.43897650854E+03  0.16332372609E+04  0.19305995718E+04  0.59995914151E+03 0.  0.
        -24    2    4    4    0    0 -0.61984548163E+03 -0.63566773618E+02  0.89360369673E+03  0.10921348920E+04  0.77342741244E+02 0.  0.
         24    2    4    4    0    0 -0.92263646154E+02 -0.37540973492E+03  0.73963356412E+03  0.83846467984E+03  0.80747511971E+02 0.  0.
         11    1    3    3    0    0  0.12640744758E+03  0.11664084284E+03  0.18516134977E+03  0.25272248509E+03  0.00000000000E+00 0. -1.
        -12    1    3    3    0    0  0.58570168020E+03  0.32233566570E+03  0.69249529947E+03  0.96254687125E+03  0.00000000000E+00 0.  1.
         15    1    5    5    0    0 -0.40547572602E+03 -0.47696946210E+02  0.52026130316E+03  0.66133240081E+03  0.17770000000E+01 0. -1.
        -16    1    5    5    0    0 -0.21436975560E+03 -0.15869827408E+02  0.37334239358E+03  0.43080249115E+03  0.00000000000E+00 0.  1.
          2    1    6    6  502    0 -0.80295729013E+02 -0.20684895072E+03  0.35948597614E+03  0.42245006753E+03  0.00000000000E+00 0. -1.
         -1    1    6    6    0  502 -0.11967917141E+02 -0.16856078420E+03  0.38014758797E+03  0.41601461231E+03  0.00000000000E+00 0.  1.
<mgrwt>
<rscale>  0 0.92732223E+03</rscale>
<asrwt>0</asrwt>
<pdfrwt beam="1">  1        1 0.43513559E+00 0.92732223E+03</pdfrwt>
<pdfrwt beam="2">  1       -2 0.48844234E-01 0.92732223E+03</pdfrwt>
<totfact> 0.28638835E+00</totfact>
</mgrwt>
</event>
<event>
12    3  0.1182097E-007  0.9390918E+03  0.7818608E-02  0.9377992E-01
         -2   -1    0    0    0  501 -0.00000000000E+00  0.00000000000E+00  0.21994589692E+04  0.21994589692E+04  0.00000000000E+00 0.  1.
          1   -1    0    0  501    0  0.00000000000E+00 -0.00000000000E+00 -0.44653798534E+03  0.44653798534E+03  0.00000000000E+00 0. -1.
        -24    2    1    2    0    0  0.88652491798E+03  0.44928406244E+02  0.98229429220E+03  0.13262472293E+04  0.78004133371E+02 0.  0.
    5000000    2    1    2    0    0 -0.88652491798E+03 -0.44928406244E+02  0.77062669170E+03  0.13197497253E+04  0.59994070336E+03 0.  0.
        -24    2    4    4    0    0 -0.60392519960E+03 -0.22349879896E+03  0.72497543696E+03  0.97290741386E+03  0.79259648580E+02 0.  0.
         24    2    4    4    0    0 -0.28259971838E+03  0.17857039272E+03  0.45651254738E+02  0.34684231143E+03  0.80408743021E+02 0.  0.
         13    1    3    3    0    0  0.48797349546E+03  0.15173520626E+02  0.59576481289E+03  0.77024936240E+03  0.00000000000E+00 0. -1.
        -14    1    3    3    0    0  0.39855142252E+03  0.29754885618E+02  0.38652947932E+03  0.55599786689E+03  0.00000000000E+00 0.  1.
         15    1    5    5    0    0 -0.40137453878E+03 -0.11091437364E+03  0.44460625481E+03  0.60916450833E+03  0.17770000000E+01 0. -1.
        -16    1    5    5    0    0 -0.20255066082E+03 -0.11258442532E+03  0.28036918215E+03  0.36374290553E+03  0.00000000000E+00 0.  1.
          4    1    6    6  502    0 -0.18457674550E+03  0.74091467760E+02  0.43344767223E+02  0.20356053011E+03  0.00000000000E+00 0. -1.
         -3    1    6    6    0  502 -0.98022972880E+02  0.10447892496E+03  0.23064875148E+01  0.14328178131E+03  0.00000000000E+00 0.  1.
<mgrwt>
<rscale>  0 0.93909182E+03</rscale>
<asrwt>0</asrwt>
<pdfrwt beam="1">  1        1 0.68698153E-01 0.93909182E+03</pdfrwt>
<pdfrwt beam="2">  1       -2 0.33837830E+00 0.93909182E+03</pdfrwt>
<totfact> 0.85438016E-01</totfact>
</mgrwt>
</event>
<event>
12    3  0.1182097E-007  0.5989916E+03  0.7818608E-02  0.9907500E-01
          1   -1    0    0  501    0  0.00000000000E+00  0.00000000000E+00  0.14598683697E+04  0.14598683697E+04  0.00000000000E+00 0. -1.
         -2   -1    0    0    0  501 -0.00000000000E+00 -0.00000000000E+00 -0.31413631176E+03  0.31413631176E+03  0.00000000000E+00 0.  1.
        -24    2    1    2    0    0  0.32365700725E+03  0.33194560681E+03  0.82709920612E+03  0.95152675805E+03  0.79801818924E+02 0.  0.
    5000000    2    1    2    0    0 -0.32365700725E+03 -0.33194560681E+03  0.31863285185E+03  0.82247792344E+03  0.60000108004E+03 0.  0.
        -24    2    4    4    0    0 -0.29868638560E+03  0.81843159715E+02  0.54072210725E+02  0.32411204630E+03  0.78822299206E+02 0.  0.
         24    2    4    4    0    0 -0.24970621649E+02 -0.41378876652E+03  0.26456064112E+03  0.49836587714E+03  0.80817939946E+02 0.  0.
         11    1    3    3    0    0  0.11305742208E+03  0.94860389388E+02  0.33544820035E+03  0.36647778824E+03  0.00000000000E+00 0. -1.
        -12    1    3    3    0    0  0.21059958517E+03  0.23708521742E+03  0.49165100578E+03  0.58504896981E+03  0.00000000000E+00 0.  1.
         15    1    5    5    0    0 -0.79393240315E+02  0.34805903019E+02 -0.17962373974E+02  0.88546835632E+02  0.17770000000E+01 0. -1.
        -16    1    5    5    0    0 -0.21929314528E+03  0.47037256696E+02  0.72034584699E+02  0.23556521067E+03  0.00000000000E+00 0.  1.
          4    1    6    6  502    0  0.23261406392E+02 -0.47939560093E+02  0.35851065385E+02  0.64222996959E+02  0.00000000000E+00 0. -1.
         -3    1    6    6    0  502 -0.48232028041E+02 -0.36584920643E+03  0.22870957574E+03  0.43414288018E+03  0.00000000000E+00 0.  1.
<mgrwt>
<rscale>  0 0.59899165E+03</rscale>
<asrwt>0</asrwt>
<pdfrwt beam="1">  1        1 0.22459513E+00 0.59899165E+03</pdfrwt>
<pdfrwt beam="2">  1       -2 0.48328664E-01 0.59899165E+03</pdfrwt>
<totfact> 0.26048000E+01</totfact>
</mgrwt>
</event>
<event>
12    3  0.1182097E-007  0.4322390E+03  0.7818608E-02  0.1033155E+00
         -2   -1    0    0    0  501 -0.00000000000E+00  0.00000000000E+00  0.11781911994E+03  0.11781911994E+03  0.00000000000E+00 0.  1.
          1   -1    0    0  501    0  0.00000000000E+00 -0.00000000000E+00 -0.25641482157E+04  0.25641482157E+04  0.00000000000E+00 0. -1.
        -24    2    1    2    0    0  0.26161661449E+03 -0.14674055987E+03 -0.29611222806E+03  0.42955827001E+03  0.82836047955E+02 0.  0.
    5000000    2    1    2    0    0 -0.26161661449E+03  0.14674055987E+03 -0.21502168678E+04  0.22524090657E+04  0.59994831099E+03 0.  0.
        -24    2    4    4    0    0 -0.11029762960E+03 -0.17591831707E+03 -0.13999079497E+04  0.14174197270E+04  0.78889756100E+02 0.  0.
         24    2    4    4    0    0 -0.15131898489E+03  0.32265887694E+03 -0.75030891808E+03  0.83498933865E+03  0.85073715430E+02 0.  0.
         11    1    3    3    0    0  0.13459870342E+03 -0.80855899929E+02 -0.21119688296E+03  0.26317030777E+03  0.00000000000E+00 0. -1.
        -12    1    3    3    0    0  0.12701791107E+03 -0.65884659941E+02 -0.84915345101E+02  0.16638796225E+03  0.00000000000E+00 0.  1.
         15    1    5    5    0    0 -0.28349919268E+02 -0.54309841528E+02 -0.67824011573E+03  0.68100373650E+03  0.17770000000E+01 0. -1.
        -16    1    5    5    0    0 -0.81947710333E+02 -0.12160847554E+03 -0.72166783394E+03  0.73641599052E+03  0.00000000000E+00 0.  1.
          2    1    6    6  502    0 -0.94139269916E+02  0.19317697205E+03 -0.54291138696E+03  0.58389409893E+03  0.00000000000E+00 0. -1.
         -1    1    6    6    0  502 -0.57179714973E+02  0.12948190489E+03 -0.20739753112E+03  0.25109523972E+03  0.00000000000E+00 0.  1.
<mgrwt>
<rscale>  0 0.43223900E+03</rscale>
<asrwt>0</asrwt>
<pdfrwt beam="1">  1        1 0.39448431E+00 0.43223900E+03</pdfrwt>
<pdfrwt beam="2">  1       -2 0.18126020E-01 0.43223900E+03</pdfrwt>
<totfact> 0.30125252E+01</totfact>
</mgrwt>
</event>
<event>
12    3  0.1182097E-007  0.6142273E+03  0.7818608E-02  0.9876321E-01
          3   -1    0    0  501    0  0.00000000000E+00  0.00000000000E+00  0.42737646357E+03  0.42737646357E+03  0.00000000000E+00 0. -1.
         -2   -1    0    0    0  501 -0.00000000000E+00 -0.00000000000E+00 -0.10934772642E+04  0.10934772642E+04  0.00000000000E+00 0.  1.
        -24    2    1    2    0    0 -0.44151638148E+03 -0.25693214068E+03 -0.48584726120E+02  0.51969537746E+03  0.82291978408E+02 0.  0.
    5000000    2    1    2    0    0  0.44151638148E+03  0.25693214068E+03 -0.61751607452E+03  0.10011583503E+04  0.60003424910E+03 0.  0.
        -24    2    4    4    0    0  0.38475929030E+03 -0.50001376335E+02 -0.54453461661E+03  0.67341668857E+03  0.80201238423E+02 0.  0.
         24    2    4    4    0    0  0.56757091182E+02  0.30693351701E+03 -0.72981457903E+02  0.32774166175E+03  0.68255053896E+02 0.  0.
         13    1    3    3    0    0 -0.27662437880E+03 -0.11523882776E+03 -0.18813975247E+02  0.30025822226E+03  0.00000000000E+00 0. -1.
        -14    1    3    3    0    0 -0.16489200268E+03 -0.14169331292E+03 -0.29770750873E+02  0.21943715520E+03  0.00000000000E+00 0.  1.
         15    1    5    5    0    0  0.28345794239E+03 -0.91622628746E+01 -0.35178768480E+03  0.45187397034E+03  0.17770000000E+01 0. -1.
        -16    1    5    5    0    0  0.10130134791E+03 -0.40839113460E+02 -0.19274693181E+03  0.22154271823E+03  0.00000000000E+00 0.  1.
          4    1    6    6  502    0 -0.74818246369E+01  0.13158975441E+03 -0.17668243130E+02  0.13298123168E+03  0.00000000000E+00 0. -1.
         -3    1    6    6    0  502  0.64238915819E+02  0.17534376261E+03 -0.55313214774E+02  0.19476043007E+03  0.00000000000E+00 0.  1.
<mgrwt>
<rscale>  0 0.61422730E+03</rscale>
<asrwt>0</asrwt>
<pdfrwt beam="1">  1        3 0.65750225E-01 0.61422730E+03</pdfrwt>
<pdfrwt beam="2">  1       -2 0.16822727E+00 0.61422730E+03</pdfrwt>
<totfact> 0.20818523E+00</totfact>
</mgrwt>
</event>
<event>
12    3  0.1182097E-007  0.7200861E+03  0.7818608E-02  0.9683486E-01
         -2   -1    0    0    0  501 -0.00000000000E+00  0.00000000000E+00  0.94462851881E+03  0.94462851881E+03  0.00000000000E+00 0.  1.
          1   -1    0    0  501    0  0.00000000000E+00 -0.00000000000E+00 -0.59101893271E+03  0.59101893271E+03  0.00000000000E+00 0. -1.
        -24    2    1    2    0    0  0.54018790514E+03  0.30010935894E+03  0.59424115556E+02  0.62547823386E+03  0.76309863954E+02 0.  0.
    5000000    2    1    2    0    0 -0.54018790514E+03 -0.30010935894E+03  0.29418547055E+03  0.91016921767E+03  0.59999526126E+03 0.  0.
        -24    2    4    4    0    0 -0.40977127229E+03 -0.45074361742E+03  0.10189845996E+03  0.62271526441E+03  0.79427326186E+02 0.  0.
         24    2    4    4    0    0 -0.13041663285E+03  0.15063425848E+03  0.19228701059E+03  0.28745395326E+03  0.77177087612E+02 0.  0.
         11    1    3    3    0    0  0.21512196837E+03  0.13571112662E+03 -0.10440463902E+02  0.25456624767E+03  0.00000000000E+00 0. -1.
        -12    1    3    3    0    0  0.32506593677E+03  0.16439823232E+03  0.69864579458E+02  0.37091198619E+03  0.00000000000E+00 0.  1.
         15    1    5    5    0    0 -0.11864503955E+03 -0.18674340025E+03  0.41105892306E+02  0.22503909674E+03  0.17770000000E+01 0. -1.
        -16    1    5    5    0    0 -0.29112623274E+03 -0.26400021717E+03  0.60792567653E+02  0.39767616767E+03  0.00000000000E+00 0.  1.
          2    1    6    6  502    0 -0.19515294270E+02  0.62977240772E+02  0.30603692865E+02  0.72688139216E+02  0.00000000000E+00 0. -1.
         -1    1    6    6    0  502 -0.11090133858E+03  0.87657017709E+02  0.16168331772E+03  0.21476581404E+03  0.00000000000E+00 0.  1.
<mgrwt>
<rscale>  0 0.72008612E+03</rscale>
<asrwt>0</asrwt>
<pdfrwt beam="1">  1        1 0.90925990E-01 0.72008612E+03</pdfrwt>
<pdfrwt beam="2">  1       -2 0.14532746E+00 0.72008612E+03</pdfrwt>
<totfact> 0.10216281E+01</totfact>
</mgrwt>
</event>
<event>
12    3  0.1182097E-007  0.5107846E+03  0.7818608E-02  0.1011002E+00
          1   -1    0    0  501    0  0.00000000000E+00  0.00000000000E+00  0.39450210633E+04  0.39450210633E+04  0.00000000000E+00 0. -1.
         -2   -1    0    0    0  501 -0.00000000000E+00 -0.00000000000E+00 -0.12809773073E+03  0.12809773073E+03  0.00000000000E+00 0.  1.
        -24    2    1    2    0    0  0.59303620507E+02  0.34406968848E+03  0.24754252586E+03  0.43688452306E+03  0.87692157259E+02 0.  0.
    5000000    2    1    2    0    0 -0.59303620507E+02 -0.34406968848E+03  0.35693808067E+04  0.36362342710E+04  0.59984953119E+03 0.  0.
        -24    2    4    4    0    0  0.16994560951E+03 -0.38618746427E+03  0.18428543477E+04  0.18922217055E+04  0.79803310737E+02 0.  0.
         24    2    4    4    0    0 -0.22924923002E+03  0.42117775784E+02  0.17265264591E+04  0.17440125655E+04  0.79731412367E+02 0.  0.
         13    1    3    3    0    0  0.78518328599E+02  0.22022232329E+03  0.14661418838E+03  0.27596869358E+03  0.00000000000E+00 0. -1.
        -14    1    3    3    0    0 -0.19214708092E+02  0.12384736519E+03  0.10092833747E+03  0.16091582948E+03  0.00000000000E+00 0.  1.
         15    1    5    5    0    0  0.60089421050E+02 -0.59112775064E+02  0.34882441193E+03  0.35886862051E+03  0.17770000000E+01 0. -1.
        -16    1    5    5    0    0  0.10985618846E+03 -0.32707468920E+03  0.14940299357E+04  0.15333530850E+04  0.00000000000E+00 0.  1.
          2    1    6    6  502    0 -0.15304577284E+03  0.26991198938E+02  0.85325914507E+03  0.86729620203E+03  0.00000000000E+00 0. -1.
         -1    1    6    6    0  502 -0.76203457172E+02  0.15126576846E+02  0.87326731399E+03  0.87671636343E+03  0.00000000000E+00 0.  1.
<mgrwt>
<rscale>  0 0.51078460E+03</rscale>
<asrwt>0</asrwt>
<pdfrwt beam="1">  1        1 0.60692622E+00 0.51078460E+03</pdfrwt>
<pdfrwt beam="2">  1       -2 0.19707346E-01 0.51078460E+03</pdfrwt>
<totfact> 0.24017537E+00</totfact>
</mgrwt>
</event>
<event>
12    3  0.1182097E-007  0.8872304E+03  0.7818608E-02  0.9441686E-01
         -2   -1    0    0    0  501 -0.00000000000E+00  0.00000000000E+00  0.65730018795E+03  0.65730018795E+03  0.00000000000E+00 0.  1.
          1   -1    0    0  501    0  0.00000000000E+00 -0.00000000000E+00 -0.12332009420E+04  0.12332009420E+04  0.00000000000E+00 0. -1.
        -24    2    1    2    0    0  0.65281773998E+03 -0.45903357704E+03 -0.23938694386E+03  0.83688620845E+03  0.78673950667E+02 0.  0.
    5000000    2    1    2    0    0 -0.65281773998E+03  0.45903357704E+03 -0.33651381024E+03  0.10536149215E+04  0.59998335972E+03 0.  0.
        -24    2    4    4    0    0 -0.68630849928E+03  0.20421125302E+03 -0.18469366335E+03  0.74451694004E+03  0.86441498546E+02 0.  0.
         24    2    4    4    0    0  0.33490759308E+02  0.25482232402E+03 -0.15182014689E+03  0.30909798151E+03  0.80225665436E+02 0.  0.
         11    1    3    3    0    0  0.38620406435E+03 -0.31180538942E+03 -0.12808891715E+03  0.51262359572E+03  0.00000000000E+00 0. -1.
        -12    1    3    3    0    0  0.26661367562E+03 -0.14722818762E+03 -0.11129802671E+03  0.32426261272E+03  0.00000000000E+00 0.  1.
         15    1    5    5    0    0 -0.66667552461E+03  0.20106446240E+03 -0.19357042154E+03  0.72274188959E+03  0.17770000000E+01 0. -1.
        -16    1    5    5    0    0 -0.19632974676E+02  0.31467906268E+01  0.88767581892E+01  0.21775050444E+02  0.00000000000E+00 0.  1.
          4    1    6    6  502    0  0.29363503980E+02  0.24345489432E+03 -0.16148646756E+03  0.29361604204E+03  0.00000000000E+00 0. -1.
         -3    1    6    6    0  502  0.41272553286E+01  0.11367429696E+02  0.96663206744E+01  0.15481939472E+02  0.00000000000E+00 0.  1.
<mgrwt>
<rscale>  0 0.88723035E+03</rscale>
<asrwt>0</asrwt>
<pdfrwt beam="1">  1        1 0.18972322E+00 0.88723035E+03</pdfrwt>
<pdfrwt beam="2">  1       -2 0.10112311E+00 0.88723035E+03</pdfrwt>
<totfact> 0.72081061E+00</totfact>
</mgrwt>
</event>
<event>
12    3  0.1182097E-007  0.9499261E+03  0.7818608E-02  0.9365237E-01
         -2   -1    0    0    0  501 -0.00000000000E+00  0.00000000000E+00  0.15919665718E+04  0.15919665718E+04  0.00000000000E+00 0.  1.
          1   -1    0    0  501    0  0.00000000000E+00 -0.00000000000E+00 -0.65602107233E+03  0.65602107233E+03  0.00000000000E+00 0. -1.
        -24    2    1    2    0    0 -0.88292546546E+03 -0.29764499415E+03  0.45002214524E+03  0.10378795431E+04  0.80771868422E+02 0.  0.
    5000000    2    1    2    0    0  0.88292546546E+03  0.29764499415E+03  0.48592335419E+03  0.12101081010E+04  0.60007515347E+03 0.  0.
        -24    2    4    4    0    0  0.69303963595E+03  0.32769579147E+03  0.59582382298E+03  0.97425171974E+03  0.80448223326E+02 0.  0.
         24    2    4    4    0    0  0.18988582950E+03 -0.30050797321E+02 -0.10990046879E+03  0.23585638124E+03  0.81181530340E+02 0.  0.
         11    1    3    3    0    0 -0.57526945416E+03 -0.23297058048E+03  0.30898887617E+03  0.69331404273E+03  0.00000000000E+00 0. -1.
        -12    1    3    3    0    0 -0.30765601130E+03 -0.64674413668E+02  0.14103326907E+03  0.34456550039E+03  0.00000000000E+00 0.  1.
         15    1    5    5    0    0  0.51123812924E+03  0.26499146089E+03  0.48076532841E+03  0.75014889046E+03  0.17770000000E+01 0. -1.
        -16    1    5    5    0    0  0.18180150672E+03  0.62704330580E+02  0.11505849457E+03  0.22410282928E+03  0.00000000000E+00 0.  1.
          2    1    6    6  502    0  0.89177080695E+02  0.67893783248E+01 -0.89827942082E+02  0.12675845754E+03  0.00000000000E+00 0. -1.
         -1    1    6    6    0  502  0.10070874881E+03 -0.36840175646E+02 -0.20072526703E+02  0.10909792370E+03  0.00000000000E+00 0.  1.
<mgrwt>
<rscale>  0 0.94992608E+03</rscale>
<asrwt>0</asrwt>
<pdfrwt beam="1">  1        1 0.10092632E+00 0.94992608E+03</pdfrwt>
<pdfrwt beam="2">  1       -2 0.24491793E+00 0.94992608E+03</pdfrwt>
<totfact> 0.18312614E+00</totfact>
</mgrwt>
</event>
<event>
12    3  0.1182097E-007  0.9439268E+03  0.7818608E-02  0.9372278E-01
          1   -1    0    0  501    0  0.00000000000E+00  0.00000000000E+00  0.10927680600E+04  0.10927680600E+04  0.00000000000E+00 0. -1.
         -2   -1    0    0    0  501 -0.00000000000E+00 -0.00000000000E+00 -0.88066483417E+03  0.88066483417E+03  0.00000000000E+00 0.  1.
        -24    2    1    2    0    0  0.82501462292E+03 -0.32473066402E+03  0.13074577624E+03  0.89984158290E+03  0.80754468181E+02 0.  0.
    5000000    2    1    2    0    0 -0.82501462292E+03  0.32473066402E+03  0.81357449604E+02  0.10735913113E+04  0.59990010572E+03 0.  0.
        -24    2    4    4    0    0 -0.25500606750E+03  0.33645277430E+03  0.21828850233E+03  0.48188896537E+03  0.79614954036E+02 0.  0.
         24    2    4    4    0    0 -0.57000855543E+03 -0.11722110281E+02 -0.13693105272E+03  0.59170234590E+03  0.79463147506E+02 0.  0.
         13    1    3    3    0    0  0.57545638733E+03 -0.19649117006E+03  0.11472148773E+03  0.61880518209E+03  0.00000000000E+00 0. -1.
        -14    1    3    3    0    0  0.24955823559E+03 -0.12823949395E+03  0.16024288505E+02  0.28103640082E+03  0.00000000000E+00 0.  1.
         15    1    5    5    0    0 -0.19908644244E+03  0.28920662666E+03  0.20763589085E+03  0.40791139401E+03  0.17770000000E+01 0. -1.
        -16    1    5    5    0    0 -0.55919625057E+02  0.47246147641E+02  0.10652611481E+02  0.73977571363E+02  0.00000000000E+00 0.  1.
          4    1    6    6  502    0 -0.43285281268E+03 -0.40476336647E+02 -0.90389375915E+02  0.44403843364E+03  0.00000000000E+00 0. -1.
         -3    1    6    6    0  502 -0.13715574274E+03  0.28754226366E+02 -0.46541676807E+02  0.14766391225E+03  0.00000000000E+00 0.  1.
<mgrwt>
<rscale>  0 0.94392676E+03</rscale>
<asrwt>0</asrwt>
<pdfrwt beam="1">  1        1 0.16811816E+00 0.94392676E+03</pdfrwt>
<pdfrwt beam="2">  1       -2 0.13548690E+00 0.94392676E+03</pdfrwt>
<totfact> 0.44116245E+00</totfact>
</mgrwt>
</event>
<event>
12    3  0.1182097E-007  0.1014445E+04  0.7818608E-02  0.9292843E-01
         -2   -1    0    0    0  501 -0.00000000000E+00  0.00000000000E+00  0.18956151083E+04  0.18956151083E+04  0.00000000000E+00 0.  1.
          1   -1    0    0  501    0  0.00000000000E+00 -0.00000000000E+00 -0.60413348113E+03  0.60413348113E+03  0.00000000000E+00 0. -1.
        -24    2    1    2    0    0 -0.66073661015E+03 -0.70880120688E+03  0.79652249482E+03  0.12569349293E+04  0.80407168944E+02 0.  0.
    5000000    2    1    2    0    0  0.66073661015E+03  0.70880120688E+03  0.49495913238E+03  0.12428136602E+04  0.60052413137E+03 0.  0.
        -24    2    4    4    0    0  0.11295438942E+03 -0.36178538013E+02 -0.67806548201E+02  0.15746744275E+03  0.78298702710E+02 0.  0.
         24    2    4    4    0    0  0.54778222074E+03  0.74497974489E+03  0.56276568058E+03  0.10853462174E+04  0.78810017226E+02 0.  0.
         11    1    3    3    0    0 -0.45917690173E+03 -0.51663460696E+03  0.52484273111E+03  0.86787939057E+03  0.00000000000E+00 0. -1.
        -12    1    3    3    0    0 -0.20155970843E+03 -0.19216659992E+03  0.27167976372E+03  0.38905553871E+03  0.00000000000E+00 0.  1.
         15    1    5    5    0    0  0.84346585544E+02  0.14376177464E+01 -0.13455439655E+02  0.85443664616E+02  0.17770000000E+01 0. -1.
        -16    1    5    5    0    0  0.28607803874E+02 -0.37616155759E+02 -0.54351108546E+02  0.72023778135E+02  0.00000000000E+00 0.  1.
          4    1    6    6  502    0  0.46287434614E+03  0.58035033999E+03  0.43628078014E+03  0.86104593174E+03  0.00000000000E+00 0. -1.
         -3    1    6    6    0  502  0.84907874600E+02  0.16462940490E+03  0.12648490044E+03  0.22430028570E+03  0.00000000000E+00 0.  1.
<mgrwt>
<rscale>  0 0.10144446E+04</rscale>
<asrwt>0</asrwt>
<pdfrwt beam="1">  1        1 0.92943613E-01 0.10144446E+04</pdfrwt>
<pdfrwt beam="2">  1       -2 0.29163309E+00 0.10144446E+04</pdfrwt>
<totfact> 0.10688121E+00</totfact>
</mgrwt>
</event>
<event>
12    3  0.1182097E-007  0.5287736E+03  0.7818608E-02  0.1006530E+00
          1   -1    0    0  501    0  0.00000000000E+00  0.00000000000E+00  0.52250898780E+03  0.52250898780E+03  0.00000000000E+00 0. -1.
         -2   -1    0    0    0  501 -0.00000000000E+00 -0.00000000000E+00 -0.16143631927E+04  0.16143631927E+04  0.00000000000E+00 0.  1.
        -24    2    1    2    0    0 -0.44596578689E+03  0.16945361439E+03  0.28478971081E+03  0.56119486703E+03  0.78958779763E+02 0.  0.
    5000000    2    1    2    0    0  0.44596578689E+03 -0.16945361439E+03 -0.13766439157E+04  0.15756773135E+04  0.60000876244E+03 0.  0.
        -24    2    4    4    0    0  0.24551420544E+03  0.59017724972E+02 -0.11703887785E+04  0.11992226048E+04  0.67562165273E+02 0.  0.
         24    2    4    4    0    0  0.20045158145E+03 -0.22847133937E+03 -0.20625513724E+03  0.37645470865E+03  0.82443778499E+02 0.  0.
         11    1    3    3    0    0 -0.23937811945E+03  0.48920958032E+02  0.14831130497E+03  0.28581705230E+03  0.00000000000E+00 0. -1.
        -12    1    3    3    0    0 -0.20658766744E+03  0.12053265636E+03  0.13647840584E+03  0.27537781474E+03  0.00000000000E+00 0.  1.
         15    1    5    5    0    0  0.87437484405E+02  0.50133853600E+02 -0.53425073991E+03  0.54367796330E+03  0.17770000000E+01 0. -1.
        -16    1    5    5    0    0  0.15807672103E+03  0.88838713724E+01 -0.63613803858E+03  0.65554464153E+03  0.00000000000E+00 0.  1.
          2    1    6    6  502    0  0.32661100692E+02 -0.95155292121E+02 -0.67536991814E+02  0.12117145860E+03  0.00000000000E+00 0. -1.
         -1    1    6    6    0  502  0.16779048076E+03 -0.13331604725E+03 -0.13871814542E+03  0.25528325005E+03  0.00000000000E+00 0.  1.
<mgrwt>
<rscale>  0 0.52877357E+03</rscale>
<asrwt>0</asrwt>
<pdfrwt beam="1">  1        1 0.80385997E-01 0.52877357E+03</pdfrwt>
<pdfrwt beam="2">  1       -2 0.24836357E+00 0.52877357E+03</pdfrwt>
<totfact> 0.25803088E+00</totfact>
</mgrwt>
</event>
<event>
12    3  0.1182097E-007  0.6060443E+03  0.7818608E-02  0.9892945E-01
          1   -1    0    0  501    0  0.00000000000E+00  0.00000000000E+00  0.24285489760E+04  0.24285489760E+04  0.00000000000E+00 0. -1.
         -2   -1    0    0    0  501 -0.00000000000E+00 -0.00000000000E+00 -0.22501650395E+03  0.22501650395E+03  0.00000000000E+00 0.  1.
        -24    2    1    2    0    0  0.15641442423E+03  0.45632926975E+03  0.23931306370E+03  0.54383482367E+03  0.76050630748E+02 0.  0.
    5000000    2    1    2    0    0 -0.15641442423E+03 -0.45632926975E+03  0.19642194084E+04  0.21097306563E+04  0.60008639661E+03 0.  0.
        -24    2    4    4    0    0  0.11296857236E+03  0.66524873384E+02  0.64628065515E+03  0.66421004174E+03  0.79428189035E+02 0.  0.
         24    2    4    4    0    0 -0.26938299659E+03 -0.52285414314E+03  0.13179387532E+04  0.14455206146E+04  0.81385723778E+02 0.  0.
         13    1    3    3    0    0  0.43542175378E+02  0.15034765912E+03  0.39778531112E+02  0.16150130395E+03  0.00000000000E+00 0. -1.
        -14    1    3    3    0    0  0.11287224885E+03  0.30598161063E+03  0.19953453259E+03  0.38233351972E+03  0.00000000000E+00 0.  1.
         15    1    5    5    0    0  0.82651944641E+02  0.66101209511E+02  0.59728792049E+03  0.60659437150E+03  0.17770000000E+01 0. -1.
        -16    1    5    5    0    0  0.30316627721E+02  0.42366387305E+00  0.48992734658E+02  0.57615670236E+02  0.00000000000E+00 0.  1.
          4    1    6    6  502    0 -0.32761950139E+02 -0.13504278650E+03  0.33481577973E+03  0.36250724947E+03  0.00000000000E+00 0. -1.
         -3    1    6    6    0  502 -0.23662104646E+03 -0.38781135664E+03  0.98312297348E+03  0.10830133651E+04  0.00000000000E+00 0.  1.
<mgrwt>
<rscale>  0 0.60604434E+03</rscale>
<asrwt>0</asrwt>
<pdfrwt beam="1">  1        1 0.37362290E+00 0.60604434E+03</pdfrwt>
<pdfrwt beam="2">  1       -2 0.34617925E-01 0.60604434E+03</pdfrwt>
<totfact> 0.11211572E+01</totfact>
</mgrwt>
</event>
<event>
12    3  0.1757775E-007  0.1475001E+04  0.7818608E-02  0.8901249E-01
          1   -1    0    0  501    0  0.00000000000E+00  0.00000000000E+00  0.15863377299E+04  0.15863377299E+04  0.00000000000E+00 0. -1.
         -2   -1    0    0    0  501 -0.00000000000E+00 -0.00000000000E+00 -0.14978561046E+04  0.14978561046E+04  0.00000000000E+00 0.  1.
        -24    2    1    2    0    0 -0.12305944997E+04 -0.80399187305E+03  0.23011495138E+03  0.14901858594E+04  0.83278147391E+02 0.  0.
    5000000    2    1    2    0    0  0.12305944997E+04  0.80399187305E+03 -0.14163332614E+03  0.15940079751E+04  0.60002972508E+03 0.  0.
        -24    2    4    4    0    0  0.26972386713E+03  0.18602580412E+03 -0.28224023925E+03  0.44011970635E+03  0.81787767820E+02 0.  0.
         24    2    4    4    0    0  0.96087063262E+03  0.61796606893E+03  0.14060691311E+03  0.11538882688E+04  0.80829436778E+02 0.  0.
         11    1    3    3    0    0 -0.47550790199E+03 -0.29238505908E+03  0.12530326177E+03  0.57209937514E+03  0.00000000000E+00 0. -1.
        -12    1    3    3    0    0 -0.75508659775E+03 -0.51160681398E+03  0.10481168961E+03  0.91808648421E+03  0.00000000000E+00 0.  1.
         15    1    5    5    0    0  0.64995223271E+02  0.84520731673E+02 -0.11579878156E+03  0.15741870496E+03  0.17770000000E+01 0. -1.
        -16    1    5    5    0    0  0.20472864386E+03  0.10150507245E+03 -0.16644145769E+03  0.28270100139E+03  0.00000000000E+00 0.  1.
          4    1    6    6  502    0  0.61282476989E+03  0.43353290883E+03  0.72659965254E+02  0.75417799768E+03  0.00000000000E+00 0. -1.
         -3    1    6    6    0  502  0.34804586272E+03  0.18443316010E+03  0.67946947859E+02  0.39971027110E+03  0.00000000000E+00 0.  1.
<mgrwt>
<rscale>  0 0.14750010E+04</rscale>
<asrwt>0</asrwt>
<pdfrwt beam="1">  1        1 0.24405196E+00 0.14750010E+04</pdfrwt>
<pdfrwt beam="2">  1       -2 0.23043940E+00 0.14750010E+04</pdfrwt>
<totfact> 0.40124055E-01</totfact>
</mgrwt>
</event>
<event>
12    3  0.1182097E-007  0.1405893E+04  0.7818608E-02  0.8949564E-01
          1   -1    0    0  501    0  0.00000000000E+00  0.00000000000E+00  0.12249191968E+04  0.12249191968E+04  0.00000000000E+00 0. -1.
         -2   -1    0    0    0  501 -0.00000000000E+00 -0.00000000000E+00 -0.23263770574E+04  0.23263770574E+04  0.00000000000E+00 0.  1.
        -24    2    1    2    0    0  0.13197922218E+04 -0.25870223272E+03  0.44181471134E+03  0.14181227557E+04  0.84223258375E+02 0.  0.
    5000000    2    1    2    0    0 -0.13197922218E+04  0.25870223272E+03 -0.15432725720E+04  0.21331734985E+04  0.59996715675E+03 0.  0.
        -24    2    4    4    0    0 -0.24806742032E+03 -0.17131226302E+03 -0.39620134787E+03  0.50364818554E+03  0.76162000097E+02 0.  0.
         24    2    4    4    0    0 -0.10717248015E+04  0.43001449573E+03 -0.11470712241E+04  0.16295253129E+04  0.77934816510E+02 0.  0.
         13    1    3    3    0    0  0.19064965494E+03 -0.24056297875E+02  0.91438294800E+02  0.21280732636E+03  0.00000000000E+00 0. -1.
        -14    1    3    3    0    0  0.11291425669E+04 -0.23464593484E+03  0.35037641654E+03  0.12053154294E+04  0.00000000000E+00 0.  1.
         15    1    5    5    0    0 -0.22206692381E+03 -0.11789198175E+03 -0.31523753568E+03  0.40322462678E+03  0.17770000000E+01 0. -1.
        -16    1    5    5    0    0 -0.26000496507E+02 -0.53420281265E+02 -0.80963812197E+02  0.10042355876E+03  0.00000000000E+00 0.  1.
          4    1    6    6  502    0 -0.46621997641E+03  0.16493767331E+03 -0.53714091489E+03  0.73012729365E+03  0.00000000000E+00 0. -1.
         -3    1    6    6    0  502 -0.60550482509E+03  0.26507682243E+03 -0.60993030924E+03  0.89939801930E+03  0.00000000000E+00 0.  1.
<mgrwt>
<rscale>  0 0.14058933E+04</rscale>
<asrwt>0</asrwt>
<pdfrwt beam="1">  1        1 0.18844911E+00 0.14058933E+04</pdfrwt>
<pdfrwt beam="2">  1       -2 0.35790416E+00 0.14058933E+04</pdfrwt>
<totfact> 0.11935023E-01</totfact>
</mgrwt>
</event>
<event>
12    3  0.1182097E-007  0.7027813E+03  0.7818608E-02  0.9712488E-01
          1   -1    0    0  501    0  0.00000000000E+00  0.00000000000E+00  0.30153820359E+03  0.30153820359E+03  0.00000000000E+00 0. -1.
         -2   -1    0    0    0  501 -0.00000000000E+00 -0.00000000000E+00 -0.18668248831E+04  0.18668248831E+04  0.00000000000E+00 0.  1.
        -24    2    1    2    0    0 -0.58349171535E+03 -0.22855546825E+03 -0.70289116597E+03  0.94508387770E+03  0.80170822347E+02 0.  0.
    5000000    2    1    2    0    0  0.58349171535E+03  0.22855546825E+03 -0.86239551354E+03  0.12232792090E+04  0.59998818105E+03 0.  0.
        -24    2    4    4    0    0  0.13945973079E+03 -0.13888761034E+03 -0.48516994026E+03  0.52969579114E+03  0.80305512871E+02 0.  0.
         24    2    4    4    0    0  0.44403198456E+03  0.36744307858E+03 -0.37722557328E+03  0.69358341784E+03  0.81117230330E+02 0.  0.
         11    1    3    3    0    0 -0.27785764773E+03 -0.10502349072E+03 -0.39309896776E+03  0.49270843758E+03  0.00000000000E+00 0. -1.
        -12    1    3    3    0    0 -0.30563406762E+03 -0.12353197753E+03 -0.30979219821E+03  0.45237544013E+03  0.00000000000E+00 0.  1.
         15    1    5    5    0    0  0.84580325932E+02 -0.84305930160E+02 -0.38503879735E+03  0.40313689311E+03  0.17770000000E+01 0. -1.
        -16    1    5    5    0    0  0.54879404856E+02 -0.54581680176E+02 -0.10013114291E+03  0.12655889803E+03  0.00000000000E+00 0.  1.
          4    1    6    6  502    0  0.27014695155E+03  0.17117224611E+03 -0.20677579495E+03  0.38083532222E+03  0.00000000000E+00 0. -1.
         -3    1    6    6    0  502  0.17388503301E+03  0.19627083247E+03 -0.17044977832E+03  0.31274809562E+03  0.00000000000E+00 0.  1.
<mgrwt>
<rscale>  0 0.70278129E+03</rscale>
<asrwt>0</asrwt>
<pdfrwt beam="1">  1        1 0.46390493E-01 0.70278129E+03</pdfrwt>
<pdfrwt beam="2">  1       -2 0.28720383E+00 0.70278129E+03</pdfrwt>
<totfact> 0.30348487E+00</totfact>
</mgrwt>
</event>
<event>
12    3  0.1182097E-007  0.1039599E+04  0.7818608E-02  0.9266148E-01
         -2   -1    0    0    0  501 -0.00000000000E+00  0.00000000000E+00  0.75372430689E+03  0.75372430689E+03  0.00000000000E+00 0.  1.
          1   -1    0    0  501    0  0.00000000000E+00 -0.00000000000E+00 -0.15886327378E+04  0.15886327378E+04  0.00000000000E+00 0. -1.
        -24    2    1    2    0    0 -0.84189084216E+03  0.55718183630E+03 -0.43078548259E+03  0.11005619363E+04  0.80178892857E+02 0.  0.
    5000000    2    1    2    0    0  0.84189084216E+03 -0.55718183630E+03 -0.40412294835E+03  0.12417951084E+04  0.59958981398E+03 0.  0.
        -24    2    4    4    0    0  0.63703418472E+03 -0.23561135806E+03 -0.49158249064E+03  0.84215909044E+03  0.79077961336E+02 0.  0.
         24    2    4    4    0    0  0.20485665744E+03 -0.32157047824E+03  0.87459542290E+02  0.39963601795E+03  0.81767675348E+02 0.  0.
         11    1    3    3    0    0 -0.58144256977E+03  0.39937706220E+03 -0.26264659034E+03  0.75270228588E+03  0.00000000000E+00 0. -1.
        -12    1    3    3    0    0 -0.26044827239E+03  0.15780477410E+03 -0.16813889225E+03  0.34785965044E+03  0.00000000000E+00 0.  1.
         15    1    5    5    0    0  0.33697819921E+02 -0.23737348063E+02 -0.51085883229E+02  0.65665287289E+02  0.17770000000E+01 0. -1.
        -16    1    5    5    0    0  0.60333636479E+03 -0.21187401000E+03 -0.44049660741E+03  0.77649380315E+03  0.00000000000E+00 0.  1.
          2    1    6    6  502    0  0.53030738206E+01 -0.56652012295E+02  0.11030367792E+01  0.56910366184E+02  0.00000000000E+00 0. -1.
         -1    1    6    6    0  502  0.19955358362E+03 -0.26491846594E+03  0.86356505511E+02  0.34272565177E+03  0.00000000000E+00 0.  1.
<mgrwt>
<rscale>  0 0.10395993E+04</rscale>
<asrwt>0</asrwt>
<pdfrwt beam="1">  1        1 0.24440503E+00 0.10395993E+04</pdfrwt>
<pdfrwt beam="2">  1       -2 0.11595759E+00 0.10395993E+04</pdfrwt>
<totfact> 0.28682297E+00</totfact>
</mgrwt>
</event>
<event>
12    3  0.1182097E-007  0.7386463E+03  0.7818608E-02  0.9653333E-01
         -2   -1    0    0    0  501 -0.00000000000E+00  0.00000000000E+00  0.60848167919E+03  0.60848167919E+03  0.00000000000E+00 0.  1.
          1   -1    0    0  501    0  0.00000000000E+00 -0.00000000000E+00 -0.12079091757E+04  0.12079091757E+04  0.00000000000E+00 0. -1.
        -24    2    1    2    0    0 -0.56584005140E+03  0.29025231707E+03 -0.68485992454E+03  0.93790069438E+03  0.78760554452E+02 0.  0.
    5000000    2    1    2    0    0  0.56584005140E+03 -0.29025231707E+03  0.85432428014E+02  0.87849016054E+03  0.60002074221E+03 0.  0.
        -24    2    4    4    0    0 -0.94114232608E+02 -0.12905005935E+02  0.99446898944E+02  0.15883870644E+03  0.79473398043E+02 0.  0.
         24    2    4    4    0    0  0.65995428401E+03 -0.27734731113E+03 -0.14014470929E+02  0.71965145410E+03  0.72392140610E+02 0.  0.
         11    1    3    3    0    0 -0.19704242758E+03  0.77899561523E+02 -0.18367191854E+03  0.28040940357E+03  0.00000000000E+00 0. -1.
        -12    1    3    3    0    0 -0.36879762382E+03  0.21235275554E+03 -0.50118800600E+03  0.65749129080E+03  0.00000000000E+00 0.  1.
         15    1    5    5    0    0 -0.10730237255E+03 -0.18044371035E+02  0.93544924202E+02  0.14350334161E+03  0.17770000000E+01 0. -1.
        -16    1    5    5    0    0  0.13188139938E+02  0.51393651004E+01  0.59019747423E+01  0.15335364832E+02  0.00000000000E+00 0.  1.
          4    1    6    6  502    0  0.29950478936E+03 -0.14638701445E+03  0.24241040828E+02  0.33424527657E+03  0.00000000000E+00 0. -1.
         -3    1    6    6    0  502  0.36044949465E+03 -0.13096029668E+03 -0.38255511758E+02  0.38540617753E+03  0.00000000000E+00 0.  1.
<mgrwt>
<rscale>  0 0.73864628E+03</rscale>
<asrwt>0</asrwt>
<pdfrwt beam="1">  1        1 0.18583218E+00 0.73864628E+03</pdfrwt>
<pdfrwt beam="2">  1       -2 0.93612567E-01 0.73864628E+03</pdfrwt>
<totfact> 0.91776018E+00</totfact>
</mgrwt>
</event>
<event>
12    3  0.1182097E-007  0.4124617E+03  0.7818608E-02  0.1039548E+00
         -2   -1    0    0    0  501 -0.00000000000E+00  0.00000000000E+00  0.38407796122E+03  0.38407796122E+03  0.00000000000E+00 0.  1.
          1   -1    0    0  501    0  0.00000000000E+00 -0.00000000000E+00 -0.73453907295E+03  0.73453907295E+03  0.00000000000E+00 0. -1.
        -24    2    1    2    0    0 -0.34840637728E+03 -0.71429513841E+02 -0.13113591144E+03  0.38734231220E+03  0.79675971157E+02 0.  0.
    5000000    2    1    2    0    0  0.34840637728E+03  0.71429513841E+02 -0.21932520029E+03  0.73127472197E+03  0.60014164689E+03 0.  0.
        -24    2    4    4    0    0  0.39521056858E+02 -0.84219726658E+02  0.16756507197E+03  0.20807591988E+03  0.81010238836E+02 0.  0.
         24    2    4    4    0    0  0.30888532042E+03  0.15564924050E+03 -0.38689027226E+03  0.52319880209E+03  0.66453566491E+02 0.  0.
         13    1    3    3    0    0 -0.10590532731E+03 -0.21980337891E+02 -0.80230300568E+02  0.13466987316E+03  0.00000000000E+00 0. -1.
        -14    1    3    3    0    0 -0.24250104996E+03 -0.49449175950E+02 -0.50905610873E+02  0.25267243905E+03  0.00000000000E+00 0.  1.
         15    1    5    5    0    0  0.62557440473E+02 -0.76239757281E+02  0.12787692641E+03  0.16149798756E+03  0.17770000000E+01 0. -1.
        -16    1    5    5    0    0 -0.23036383615E+02 -0.79799693772E+01  0.39688145552E+02  0.46577932314E+02  0.00000000000E+00 0.  1.
          2    1    6    6  502    0  0.24736704736E+03  0.11737703907E+03 -0.26285353806E+03  0.37955211485E+03  0.00000000000E+00 0. -1.
         -1    1    6    6    0  502  0.61518273062E+02  0.38272201429E+02 -0.12403673420E+03  0.14364668723E+03  0.00000000000E+00 0.  1.
<mgrwt>
<rscale>  0 0.41246174E+03</rscale>
<asrwt>0</asrwt>
<pdfrwt beam="1">  1        1 0.11300601E+00 0.41246174E+03</pdfrwt>
<pdfrwt beam="2">  1       -2 0.59088918E-01 0.41246174E+03</pdfrwt>
<totfact> 0.62412857E+01</totfact>
</mgrwt>
</event>
<event>
12    3  0.1182097E-007  0.8192814E+03  0.7818608E-02  0.9532520E-01
          1   -1    0    0  501    0  0.00000000000E+00  0.00000000000E+00  0.11069262656E+04  0.11069262656E+04  0.00000000000E+00 0. -1.
         -2   -1    0    0    0  501 -0.00000000000E+00 -0.00000000000E+00 -0.63245407655E+03  0.63245407655E+03  0.00000000000E+00 0.  1.
        -24    2    1    2    0    0 -0.67844330137E+03  0.23975177812E+03  0.31391459422E+03  0.78879979445E+03  0.76788768588E+02 0.  0.
    5000000    2    1    2    0    0  0.67844330137E+03 -0.23975177812E+03  0.16055759479E+03  0.95058054767E+03  0.60004867142E+03 0.  0.
        -24    2    4    4    0    0  0.77407599818E+03 -0.18801664646E+03  0.14483479861E+03  0.81370610937E+03  0.81219475636E+02 0.  0.
         24    2    4    4    0    0 -0.95632696814E+02 -0.51735131659E+02  0.15722796183E+02  0.13687443830E+03  0.81641098671E+02 0.  0.
         11    1    3    3    0    0 -0.38342202924E+03  0.10455208266E+03  0.19960597484E+03  0.44473153215E+03  0.00000000000E+00 0. -1.
        -12    1    3    3    0    0 -0.29502127213E+03  0.13519969546E+03  0.11430861938E+03  0.34406826231E+03  0.00000000000E+00 0.  1.
         15    1    5    5    0    0  0.29657270605E+03 -0.55006390700E+02  0.91247528637E+02  0.31513543470E+03  0.17770000000E+01 0. -1.
        -16    1    5    5    0    0  0.47750329213E+03 -0.13301025576E+03  0.53587269975E+02  0.49857067467E+03  0.00000000000E+00 0.  1.
          2    1    6    6  502    0 -0.16553750253E+02  0.96758918918E+01 -0.22625927790E+02  0.29657750078E+02  0.00000000000E+00 0. -1.
         -1    1    6    6    0  502 -0.79078946561E+02 -0.61411023551E+02  0.38348723973E+02  0.10721668822E+03  0.00000000000E+00 0.  1.
<mgrwt>
<rscale>  0 0.81928136E+03</rscale>
<asrwt>0</asrwt>
<pdfrwt beam="1">  1        1 0.17029635E+00 0.81928136E+03</pdfrwt>
<pdfrwt beam="2">  1       -2 0.97300627E-01 0.81928136E+03</pdfrwt>
<totfact> 0.98478604E+00</totfact>
</mgrwt>
</event>
<event>
12    3  0.1182097E-007  0.4256723E+03  0.7818608E-02  0.1035236E+00
          1   -1    0    0  501    0  0.00000000000E+00  0.00000000000E+00  0.10637478635E+04  0.10637478635E+04  0.00000000000E+00 0. -1.
         -2   -1    0    0    0  501 -0.00000000000E+00 -0.00000000000E+00 -0.45851927239E+03  0.45851927239E+03  0.00000000000E+00 0.  1.
        -24    2    1    2    0    0 -0.21051521542E+03  0.35928849150E+03 -0.17038387720E+03  0.45694842521E+03  0.79789232643E+02 0.  0.
    5000000    2    1    2    0    0  0.21051521542E+03 -0.35928849150E+03  0.77561246830E+03  0.10653187107E+04  0.59993697858E+03 0.  0.
        -24    2    4    4    0    0  0.11285403342E+03 -0.20653863665E+03  0.82483843536E+03  0.86119990057E+03  0.76893322234E+02 0.  0.
         24    2    4    4    0    0  0.97661182005E+02 -0.15274985485E+03 -0.49225967056E+02  0.20411881010E+03  0.79818971286E+02 0.  0.
         11    1    3    3    0    0 -0.17629475264E+02  0.66554166820E+02 -0.41787419750E+01  0.68976208969E+02  0.00000000000E+00 0. -1.
        -12    1    3    3    0    0 -0.19288574016E+03  0.29273432468E+03 -0.16620513522E+03  0.38797221624E+03  0.00000000000E+00 0.  1.
         15    1    5    5    0    0 -0.11672010353E+02 -0.18153376443E+02  0.64785245418E+02  0.68308613328E+02  0.17770000000E+01 0. -1.
        -16    1    5    5    0    0  0.12452604377E+03 -0.18838526020E+03  0.76005318994E+03  0.79289128724E+03  0.00000000000E+00 0.  1.
          4    1    6    6  502    0  0.15393584478E+02 -0.52792239896E+02 -0.50490286823E+02  0.74654216892E+02  0.00000000000E+00 0. -1.
         -3    1    6    6    0  502  0.82267597527E+02 -0.99957614958E+02  0.12643197676E+01  0.12946459321E+03  0.00000000000E+00 0.  1.
<mgrwt>
<rscale>  0 0.42567229E+03</rscale>
<asrwt>0</asrwt>
<pdfrwt beam="1">  1        1 0.16365352E+00 0.42567229E+03</pdfrwt>
<pdfrwt beam="2">  1       -2 0.70541427E-01 0.42567229E+03</pdfrwt>
<totfact> 0.23193458E+01</totfact>
</mgrwt>
</event>
<event>
12    3  0.1182097E-007  0.4933728E+03  0.7818608E-02  0.1015523E+00
         -2   -1    0    0    0  501 -0.00000000000E+00  0.00000000000E+00  0.24662980288E+03  0.24662980288E+03  0.00000000000E+00 0.  1.
          1   -1    0    0  501    0  0.00000000000E+00 -0.00000000000E+00 -0.12920885890E+04  0.12920885890E+04  0.00000000000E+00 0. -1.
        -24    2    1    2    0    0  0.17485320194E+03  0.26724301956E+03 -0.70580376347E+03  0.77889072630E+03  0.80742412966E+02 0.  0.
    5000000    2    1    2    0    0 -0.17485320194E+03 -0.26724301956E+03 -0.33965502262E+03  0.75982766555E+03  0.59998339412E+03 0.  0.
        -24    2    4    4    0    0  0.29255434411E+02 -0.40760231556E+03 -0.17267845947E+03  0.45067879989E+03  0.79359953473E+02 0.  0.
         24    2    4    4    0    0 -0.20410863635E+03  0.14035929600E+03 -0.16697656315E+03  0.30914886566E+03  0.79566205711E+02 0.  0.
         11    1    3    3    0    0  0.77039090993E+02  0.98343001988E+02 -0.36956939982E+03  0.39011268739E+03  0.00000000000E+00 0. -1.
        -12    1    3    3    0    0  0.97814110950E+02  0.16890001757E+03 -0.33623436365E+03  0.38877803890E+03  0.00000000000E+00 0.  1.
         15    1    5    5    0    0  0.31225180645E+02 -0.12534294407E+03 -0.23119430998E+02  0.13123845227E+03  0.17770000000E+01 0. -1.
        -16    1    5    5    0    0 -0.19697462334E+01 -0.28225937148E+03 -0.14955902847E+03  0.31944034762E+03  0.00000000000E+00 0.  1.
          2    1    6    6  502    0 -0.17869161117E+03  0.93008974999E+02 -0.10518119187E+03  0.22725414068E+03  0.00000000000E+00 0. -1.
         -1    1    6    6    0  502 -0.25417025181E+02  0.47350321003E+02 -0.61795371280E+02  0.81894724982E+02  0.00000000000E+00 0.  1.
<mgrwt>
<rscale>  0 0.49337282E+03</rscale>
<asrwt>0</asrwt>
<pdfrwt beam="1">  1        1 0.19878286E+00 0.49337282E+03</pdfrwt>
<pdfrwt beam="2">  1       -2 0.37943046E-01 0.49337282E+03</pdfrwt>
<totfact> 0.55582925E+01</totfact>
</mgrwt>
</event>
<event>
12    3  0.1182097E-007  0.7179243E+03  0.7818608E-02  0.9687061E-01
         -2   -1    0    0    0  501 -0.00000000000E+00  0.00000000000E+00  0.33426978508E+03  0.33426978508E+03  0.00000000000E+00 0.  1.
          1   -1    0    0  501    0  0.00000000000E+00 -0.00000000000E+00 -0.25426354562E+04  0.25426354562E+04  0.00000000000E+00 0. -1.
        -24    2    1    2    0    0  0.95502881026E+02  0.68425255616E+03 -0.29443037725E+03  0.75544625613E+03  0.81776756869E+02 0.  0.
    5000000    2    1    2    0    0 -0.95502881026E+02 -0.68425255616E+03 -0.19139352939E+04  0.21214589852E+04  0.60009795505E+03 0.  0.
        -24    2    4    4    0    0 -0.26438014969E+02 -0.26757731543E+02 -0.92556711142E+03  0.92967410882E+03  0.78768813878E+02 0.  0.
         24    2    4    4    0    0 -0.69064866057E+02 -0.65749482462E+03 -0.98836818250E+03  0.11917848764E+04  0.80063270308E+02 0.  0.
         11    1    3    3    0    0  0.83169307038E+02  0.61412808257E+03 -0.23532221104E+03  0.66290797132E+03  0.00000000000E+00 0. -1.
        -12    1    3    3    0    0  0.12333573988E+02  0.70124473591E+02 -0.59108166203E+02  0.92538284810E+02  0.00000000000E+00 0.  1.
         15    1    5    5    0    0 -0.53702887052E+01 -0.48824690118E+02 -0.73864849254E+03  0.74028200277E+03  0.17770000000E+01 0. -1.
        -16    1    5    5    0    0 -0.21067726264E+02  0.22066958574E+02 -0.18691861888E+03  0.18939210605E+03  0.00000000000E+00 0.  1.
          2    1    6    6  502    0 -0.85001992580E+02 -0.57270434936E+03 -0.84119644472E+03  0.10211890467E+04  0.00000000000E+00 0. -1.
         -1    1    6    6    0  502  0.15937126523E+02 -0.84790475257E+02 -0.14717173778E+03  0.17059582966E+03  0.00000000000E+00 0.  1.
<mgrwt>
<rscale>  0 0.71792430E+03</rscale>
<asrwt>0</asrwt>
<pdfrwt beam="1">  1        1 0.39117469E+00 0.71792430E+03</pdfrwt>
<pdfrwt beam="2">  1       -2 0.51426121E-01 0.71792430E+03</pdfrwt>
<totfact> 0.42153158E+00</totfact>
</mgrwt>
</event>
<event>
12    3  0.1381307E-007  0.7464019E+03  0.7818608E-02  0.9641012E-01
          1   -1    0    0  501    0  0.00000000000E+00  0.00000000000E+00  0.16979463596E+04  0.16979463596E+04  0.00000000000E+00 0. -1.
         -2   -1    0    0    0  501 -0.00000000000E+00 -0.00000000000E+00 -0.39321701600E+03  0.39321701600E+03  0.00000000000E+00 0.  1.
        -24    2    1    2    0    0  0.83820006010E+02 -0.66600382189E+03  0.29218575182E+03  0.73622077696E+03  0.77856500590E+02 0.  0.
    5000000    2    1    2    0    0 -0.83820006010E+02  0.66600382189E+03  0.10125435918E+04  0.13549425986E+04  0.60003169596E+03 0.  0.
        -24    2    4    4    0    0  0.56015801047E+02  0.65472529322E+03  0.53533218675E+03  0.85132081171E+03  0.79772142636E+02 0.  0.
         24    2    4    4    0    0 -0.13983580706E+03  0.11278528672E+02  0.47721140500E+03  0.50362178690E+03  0.78885493170E+02 0.  0.
         13    1    3    3    0    0  0.76419614859E+02 -0.29735645097E+03  0.13534232879E+03  0.33552699211E+03  0.00000000000E+00 0. -1.
        -14    1    3    3    0    0  0.74003911515E+01 -0.36864737092E+03  0.15684342303E+03  0.40069378485E+03  0.00000000000E+00 0.  1.
         15    1    5    5    0    0  0.27227323454E+02  0.33740715657E+03  0.32685572832E+03  0.47055577918E+03  0.17770000000E+01 0. -1.
        -16    1    5    5    0    0  0.28788477593E+02  0.31731813664E+03  0.20847645843E+03  0.38076503254E+03  0.00000000000E+00 0.  1.
          2    1    6    6  502    0 -0.80308716356E+02  0.44447983182E+02  0.30136217585E+03  0.31503059242E+03  0.00000000000E+00 0. -1.
         -1    1    6    6    0  502 -0.59527090701E+02 -0.33169454509E+02  0.17584922915E+03  0.18859119448E+03  0.00000000000E+00 0.  1.
<mgrwt>
<rscale>  0 0.74640194E+03</rscale>
<asrwt>0</asrwt>
<pdfrwt beam="1">  1        1 0.26122251E+00 0.74640194E+03</pdfrwt>
<pdfrwt beam="2">  1       -2 0.60494927E-01 0.74640194E+03</pdfrwt>
<totfact> 0.11067842E+01</totfact>
</mgrwt>
</event>
<event>
12    3  0.1182097E-007  0.9830046E+03  0.7818608E-02  0.9327384E-01
          1   -1    0    0  501    0  0.00000000000E+00  0.00000000000E+00  0.22030337756E+04  0.22030337756E+04  0.00000000000E+00 0. -1.
         -2   -1    0    0    0  501 -0.00000000000E+00 -0.00000000000E+00 -0.87756616772E+03  0.87756616772E+03  0.00000000000E+00 0.  1.
        -24    2    1    2    0    0 -0.96639810455E+03  0.67596037623E-01 -0.37085242670E+03  0.10382525883E+04  0.80694570678E+02 0.  0.
    5000000    2    1    2    0    0  0.96639810455E+03 -0.67596037623E-01  0.16963200346E+04  0.20423473550E+04  0.59979643019E+03 0.  0.
        -24    2    4    4    0    0  0.51285497911E+03 -0.10757772883E+03  0.13669576011E+04  0.14659860791E+04  0.77129135718E+02 0.  0.
         24    2    4    4    0    0  0.45354312544E+03  0.10751013279E+03  0.32936243353E+03  0.57636127593E+03  0.80330022317E+02 0.  0.
         11    1    3    3    0    0 -0.61200263708E+03 -0.31891130025E+02 -0.25828913530E+03  0.66503950964E+03  0.00000000000E+00 0. -1.
        -12    1    3    3    0    0 -0.35439546747E+03  0.31958726063E+02 -0.11256329140E+03  0.37321307869E+03  0.00000000000E+00 0.  1.
         15    1    5    5    0    0  0.65731963142E+02 -0.68945317153E+01  0.11333490402E+03  0.13121045592E+03  0.17770000000E+01 0. -1.
        -16    1    5    5    0    0  0.44712301597E+03 -0.10068319711E+03  0.12536226971E+04  0.13347756232E+04  0.00000000000E+00 0.  1.
          2    1    6    6  502    0  0.68382308151E+02 -0.12431892678E+02  0.52087867971E+02  0.86855270498E+02  0.00000000000E+00 0. -1.
         -1    1    6    6    0  502  0.38516081729E+03  0.11994202547E+03  0.27727456556E+03  0.48950600543E+03  0.00000000000E+00 0.  1.
<mgrwt>
<rscale>  0 0.98300456E+03</rscale>
<asrwt>0</asrwt>
<pdfrwt beam="1">  1        1 0.33892827E+00 0.98300456E+03</pdfrwt>
<pdfrwt beam="2">  1       -2 0.13501018E+00 0.98300456E+03</pdfrwt>
<totfact> 0.75741702E-01</totfact>
</mgrwt>
</event>
<event>
12    3  0.1182097E-007  0.4396200E+03  0.7818608E-02  0.1030863E+00
         -2   -1    0    0    0  501 -0.00000000000E+00  0.00000000000E+00  0.10736025057E+04  0.10736025057E+04  0.00000000000E+00 0.  1.
          1   -1    0    0  501    0  0.00000000000E+00 -0.00000000000E+00 -0.42140537687E+03  0.42140537687E+03  0.00000000000E+00 0. -1.
        -24    2    1    2    0    0 -0.36362778724E+03 -0.17983760634E+03 -0.12612405347E+03  0.43142947380E+03  0.75215568147E+02 0.  0.
    5000000    2    1    2    0    0  0.36362778724E+03  0.17983760634E+03  0.77832118228E+03  0.10635784088E+04  0.60070661431E+03 0.  0.
        -24    2    4    4    0    0  0.33137232364E+03  0.90279369236E+02  0.85003219500E+03  0.92034312026E+03  0.80738745932E+02 0.  0.
         24    2    4    4    0    0  0.32255463601E+02  0.89558237104E+02 -0.71711012717E+02  0.14323528849E+03  0.79453041223E+02 0.  0.
         13    1    3    3    0    0 -0.19912058931E+03 -0.13711305046E+03 -0.87683852842E+02  0.25717203531E+03  0.00000000000E+00 0. -1.
        -14    1    3    3    0    0 -0.16450719793E+03 -0.42724555876E+02 -0.38440200626E+02  0.17425743849E+03  0.00000000000E+00 0.  1.
         15    1    5    5    0    0  0.28242821803E+02  0.30643214167E+02  0.13827700189E+03  0.14443112732E+03  0.17770000000E+01 0. -1.
        -16    1    5    5    0    0  0.30312950183E+03  0.59636155069E+02  0.71175519310E+03  0.77591199294E+03  0.00000000000E+00 0.  1.
          4    1    6    6  502    0 -0.20090395284E+02  0.12353777322E+02 -0.36657407087E+02  0.43589050129E+02  0.00000000000E+00 0. -1.
         -3    1    6    6    0  502  0.52345858885E+02  0.77204459782E+02 -0.35053605630E+02  0.99646238365E+02  0.00000000000E+00 0.  1.
<mgrwt>
<rscale>  0 0.43962003E+03</rscale>
<asrwt>0</asrwt>
<pdfrwt beam="1">  1        1 0.64831597E-01 0.43962003E+03</pdfrwt>
<pdfrwt beam="2">  1       -2 0.16516962E+00 0.43962003E+03</pdfrwt>
<totfact> 0.11974280E+01</totfact>
</mgrwt>
</event>
<event>
12    3  0.1182097E-007  0.5542445E+03  0.7818608E-02  0.1000516E+00
          1   -1    0    0  501    0  0.00000000000E+00  0.00000000000E+00  0.11314905794E+04  0.11314905794E+04  0.00000000000E+00 0. -1.
         -2   -1    0    0    0  501 -0.00000000000E+00 -0.00000000000E+00 -0.30173527100E+03  0.30173527100E+03  0.00000000000E+00 0.  1.
        -24    2    1    2    0    0 -0.32188027057E+02 -0.39220205712E+03  0.10907144734E+03  0.41625186435E+03  0.80687739146E+02 0.  0.
    5000000    2    1    2    0    0  0.32188027057E+02  0.39220205712E+03  0.72068386104E+03  0.10169739860E+04  0.59999361497E+03 0.  0.
        -24    2    4    4    0    0 -0.20087655282E+03 -0.35761031398E+02  0.17522785771E+03  0.28116314898E+03  0.81961414015E+02 0.  0.
         24    2    4    4    0    0  0.23306457988E+03  0.42796308852E+03  0.54545600333E+03  0.73581083706E+03  0.80148816759E+02 0.  0.
         13    1    3    3    0    0 -0.56614394157E+02 -0.21933117316E+03  0.50304620799E+02  0.23203859166E+03  0.00000000000E+00 0. -1.
        -14    1    3    3    0    0  0.24426367100E+02 -0.17287088396E+03  0.58766826543E+02  0.18421327269E+03  0.00000000000E+00 0.  1.
         15    1    5    5    0    0 -0.17569901189E+03  0.52825930118E+00  0.13929006730E+03  0.22422154761E+03  0.17770000000E+01 0. -1.
        -16    1    5    5    0    0 -0.25177540933E+02 -0.36289290699E+02  0.35937790407E+02  0.56941601367E+02  0.00000000000E+00 0.  1.
          4    1    6    6  502    0  0.24776095357E+02  0.37216016352E+02  0.90530872128E+02  0.10096893375E+03  0.00000000000E+00 0. -1.
         -3    1    6    6    0  502  0.20828848452E+03  0.39074707217E+03  0.45492513120E+03  0.63484190331E+03  0.00000000000E+00 0.  1.
<mgrwt>
<rscale>  0 0.55424445E+03</rscale>
<asrwt>0</asrwt>
<pdfrwt beam="1">  1        1 0.17407547E+00 0.55424445E+03</pdfrwt>
<pdfrwt beam="2">  1       -2 0.46420812E-01 0.55424445E+03</pdfrwt>
<totfact> 0.48390578E+01</totfact>
</mgrwt>
</event>
<event>
12    3  0.1182097E-007  0.9530648E+03  0.7818608E-02  0.9361575E-01
          1   -1    0    0  501    0  0.00000000000E+00  0.00000000000E+00  0.14205471858E+04  0.14205471858E+04  0.00000000000E+00 0. -1.
         -2   -1    0    0    0  501 -0.00000000000E+00 -0.00000000000E+00 -0.66455053042E+03  0.66455053042E+03  0.00000000000E+00 0.  1.
        -24    2    1    2    0    0 -0.78528766857E+03  0.35481925060E+03  0.51746306021E+03  0.10083272999E+04  0.79890562878E+02 0.  0.
    5000000    2    1    2    0    0  0.78528766857E+03 -0.35481925060E+03  0.23853359516E+03  0.10767704163E+04  0.59996902456E+03 0.  0.
        -24    2    4    4    0    0  0.84516970262E+02 -0.32628625688E+03  0.90459118900E+02  0.35551399903E+03  0.67834442762E+02 0.  0.
         24    2    4    4    0    0  0.70077069830E+03 -0.28532993725E+02  0.14807447626E+03  0.72125641729E+03  0.79944140657E+02 0.  0.
         11    1    3    3    0    0 -0.66710080040E+03  0.27977130335E+03  0.40724745706E+03  0.83014815024E+03  0.00000000000E+00 0. -1.
        -12    1    3    3    0    0 -0.11818686817E+03  0.75047947249E+02  0.11021560315E+03  0.17817914965E+03  0.00000000000E+00 0.  1.
         15    1    5    5    0    0  0.32557688067E+02 -0.14806554964E+03  0.75225185616E+02  0.16924950907E+03  0.17770000000E+01 0. -1.
        -16    1    5    5    0    0  0.51959282195E+02 -0.17822070724E+03  0.15233933284E+02  0.18626448996E+03  0.00000000000E+00 0.  1.
          4    1    6    6  502    0  0.32425508332E+03  0.24831594413E+02  0.80513544360E+02  0.33502298125E+03  0.00000000000E+00 0. -1.
         -3    1    6    6    0  502  0.37651561499E+03 -0.53364588138E+02  0.67560931899E+02  0.38623343604E+03  0.00000000000E+00 0.  1.
<mgrwt>
<rscale>  0 0.95306479E+03</rscale>
<asrwt>0</asrwt>
<pdfrwt beam="1">  1        1 0.21854572E+00 0.95306479E+03</pdfrwt>
<pdfrwt beam="2">  1       -2 0.10223854E+00 0.95306479E+03</pdfrwt>
<totfact> 0.51357497E+00</totfact>
</mgrwt>
</event>
<event>
12    3  0.1182097E-007  0.1105637E+04  0.7818608E-02  0.9199715E-01
          1   -1    0    0  501    0  0.00000000000E+00  0.00000000000E+00  0.63593049892E+03  0.63593049892E+03  0.00000000000E+00 0. -1.
         -2   -1    0    0    0  501 -0.00000000000E+00 -0.00000000000E+00 -0.23078143594E+04  0.23078143594E+04  0.00000000000E+00 0.  1.
        -24    2    1    2    0    0  0.10506614832E+04  0.27969850267E+03 -0.38736064391E+03  0.11570960658E+04  0.81867162672E+02 0.  0.
    5000000    2    1    2    0    0 -0.10506614832E+04 -0.27969850267E+03 -0.12845232166E+04  0.17866487925E+04  0.59999434102E+03 0.  0.
        -24    2    4    4    0    0 -0.34720028537E+03  0.25323624426E+02 -0.95497133794E+02  0.36957821409E+03  0.79240328470E+02 0.  0.
         24    2    4    4    0    0 -0.70346119784E+03 -0.30502212709E+03 -0.11890260828E+04  0.14170705785E+04  0.80061500517E+02 0.  0.
         11    1    3    3    0    0  0.43571008057E+03  0.12414398934E+03 -0.20357955092E+03  0.49668867306E+03  0.00000000000E+00 0. -1.
        -12    1    3    3    0    0  0.61495140264E+03  0.15555451332E+03 -0.18378109299E+03  0.66040739273E+03  0.00000000000E+00 0.  1.
         15    1    5    5    0    0 -0.11344383520E+03 -0.20262412401E+02 -0.56101417869E+02  0.12818188607E+03  0.17770000000E+01 0. -1.
        -16    1    5    5    0    0 -0.23375645017E+03  0.45586036827E+02 -0.39395715925E+02  0.24139632802E+03  0.00000000000E+00 0.  1.
          4    1    6    6  502    0 -0.21476969392E+03 -0.55706660256E+02 -0.36389662532E+03  0.42620418503E+03  0.00000000000E+00 0. -1.
         -3    1    6    6    0  502 -0.48869150392E+03 -0.24931546684E+03 -0.82512945748E+03  0.99086639342E+03  0.00000000000E+00 0.  1.
<mgrwt>
<rscale>  0 0.11056375E+04</rscale>
<asrwt>0</asrwt>
<pdfrwt beam="1">  1        1 0.97835463E-01 0.11056375E+04</pdfrwt>
<pdfrwt beam="2">  1       -2 0.35504836E+00 0.11056375E+04</pdfrwt>
<totfact> 0.39937466E-01</totfact>
</mgrwt>
</event>
<event>
12    3  0.1182097E-007  0.5461453E+03  0.7818608E-02  0.1002390E+00
          1   -1    0    0  501    0  0.00000000000E+00  0.00000000000E+00  0.13207808765E+04  0.13207808765E+04  0.00000000000E+00 0. -1.
         -2   -1    0    0    0  501 -0.00000000000E+00 -0.00000000000E+00 -0.29707281837E+03  0.29707281837E+03  0.00000000000E+00 0.  1.
        -24    2    1    2    0    0  0.15362958118E+03 -0.45269242728E+03  0.38548768334E+03  0.61989326467E+03  0.84465517491E+02 0.  0.
    5000000    2    1    2    0    0 -0.15362958118E+03  0.45269242728E+03  0.63822037482E+03  0.99796043022E+03  0.60005607365E+03 0.  0.
        -24    2    4    4    0    0 -0.23039458199E+03  0.13919380072E+03  0.28220149797E+01  0.28034117923E+03  0.78272826910E+02 0.  0.
         24    2    4    4    0    0  0.76765000803E+02  0.31349862656E+03  0.63539835984E+03  0.71761925100E+03  0.84095538010E+02 0.  0.
         11    1    3    3    0    0 -0.57353911351E+00 -0.96252204883E+02  0.62447721181E+02  0.11473680217E+03  0.00000000000E+00 0. -1.
        -12    1    3    3    0    0  0.15420312030E+03 -0.35644022240E+03  0.32303996216E+03  0.50515646250E+03  0.00000000000E+00 0.  1.
         15    1    5    5    0    0 -0.19839936920E+03  0.95986384397E+02 -0.21261959994E+02  0.22142927621E+03  0.17770000000E+01 0. -1.
        -16    1    5    5    0    0 -0.31995212782E+02  0.43207416326E+02  0.24083974974E+02  0.58911903017E+02  0.00000000000E+00 0.  1.
          2    1    6    6  502    0  0.62901047938E+02  0.91303908178E+02  0.20631756064E+03  0.23422186343E+03  0.00000000000E+00 0. -1.
         -1    1    6    6    0  502  0.13863952865E+02  0.22219471838E+03  0.42908079919E+03  0.48339738756E+03  0.00000000000E+00 0.  1.
<mgrwt>
<rscale>  0 0.54614529E+03</rscale>
<asrwt>0</asrwt>
<pdfrwt beam="1">  1        1 0.20319705E+00 0.54614529E+03</pdfrwt>
<pdfrwt beam="2">  1       -2 0.45703511E-01 0.54614529E+03</pdfrwt>
<totfact> 0.36617390E+01</totfact>
</mgrwt>
</event>
<event>
12    3  0.1182097E-007  0.7886398E+03  0.7818608E-02  0.9576608E-01
         -2   -1    0    0    0  501 -0.00000000000E+00  0.00000000000E+00  0.55829369978E+03  0.55829369978E+03  0.00000000000E+00 0.  1.
          1   -1    0    0  501    0  0.00000000000E+00 -0.00000000000E+00 -0.14118643006E+04  0.14118643006E+04  0.00000000000E+00 0. -1.
        -24    2    1    2    0    0  0.16740090973E+03  0.76344076353E+03 -0.30897042182E+03  0.84429634609E+03  0.80676728173E+02 0.  0.
    5000000    2    1    2    0    0 -0.16740090973E+03 -0.76344076353E+03 -0.54460017897E+03  0.11258616543E+04  0.60009186431E+03 0.  0.
        -24    2    4    4    0    0 -0.93208948802E+02 -0.51077781505E+03 -0.10649538216E+02  0.52523564237E+03  0.78595056242E+02 0.  0.
         24    2    4    4    0    0 -0.74191960923E+02 -0.25266294848E+03 -0.53395064075E+03  0.60062601189E+03  0.79405962024E+02 0.  0.
         11    1    3    3    0    0  0.27703301848E+02  0.65883876883E+02 -0.49973360641E+02  0.87209488820E+02  0.00000000000E+00 0. -1.
        -12    1    3    3    0    0  0.13969760788E+03  0.69755688664E+03 -0.25899706118E+03  0.75708685727E+03  0.00000000000E+00 0.  1.
         15    1    5    5    0    0 -0.82785742350E+02 -0.42010776559E+03  0.20817002403E+02  0.42869630178E+03  0.17770000000E+01 0. -1.
        -16    1    5    5    0    0 -0.10423206452E+02 -0.90670049462E+02 -0.31466540620E+02  0.96539340586E+02  0.00000000000E+00 0.  1.
          2    1    6    6  502    0 -0.50454303542E+02 -0.50481250155E+02 -0.14579332961E+03  0.16232587077E+03  0.00000000000E+00 0. -1.
         -1    1    6    6    0  502 -0.23737657382E+02 -0.20218169832E+03 -0.38815731115E+03  0.43830014113E+03  0.00000000000E+00 0.  1.
<mgrwt>
<rscale>  0 0.78863979E+03</rscale>
<asrwt>0</asrwt>
<pdfrwt beam="1">  1        1 0.21720989E+00 0.78863979E+03</pdfrwt>
<pdfrwt beam="2">  1       -2 0.85891339E-01 0.78863979E+03</pdfrwt>
<totfact> 0.79799350E+00</totfact>
</mgrwt>
</event>
<event>
12    3  0.1182097E-007  0.1557022E+04  0.7818608E-02  0.8847395E-01
         -2   -1    0    0    0  501 -0.00000000000E+00  0.00000000000E+00  0.13477554819E+04  0.13477554819E+04  0.00000000000E+00 0.  1.
          1   -1    0    0  501    0  0.00000000000E+00 -0.00000000000E+00 -0.29131421838E+04  0.29131421838E+04  0.00000000000E+00 0. -1.
        -24    2    1    2    0    0 -0.10383590728E+04 -0.11135871681E+04  0.51936816900E+03  0.16105609158E+04  0.76793380301E+02 0.  0.
    5000000    2    1    2    0    0  0.10383590728E+04  0.11135871681E+04 -0.20847548709E+04  0.26503367500E+04  0.59984670684E+03 0.  0.
        -24    2    4    4    0    0  0.86404312183E+03  0.11198999265E+04 -0.19715201764E+04  0.24277726567E+04  0.80261480326E+02 0.  0.
         24    2    4    4    0    0  0.17431595100E+03 -0.63127584250E+01 -0.11323469451E+03  0.22256409326E+03  0.79289204023E+02 0.  0.
         13    1    3    3    0    0 -0.45522528764E+03 -0.43294982292E+03  0.21712465094E+03  0.66469446043E+03  0.00000000000E+00 0. -1.
        -14    1    3    3    0    0 -0.58313378519E+03 -0.68063734519E+03  0.30224351806E+03  0.94586645532E+03  0.00000000000E+00 0.  1.
         15    1    5    5    0    0  0.45014691448E+03  0.61172361104E+03 -0.11199250444E+04  0.13531715647E+04  0.17770000000E+01 0. -1.
        -16    1    5    5    0    0  0.41389620736E+03  0.50817631550E+03 -0.85159513200E+03  0.10746010920E+04  0.00000000000E+00 0.  1.
          4    1    6    6  502    0  0.55856489949E+01  0.12783678166E+01  0.11330768000E+02  0.12697243892E+02  0.00000000000E+00 0. -1.
         -3    1    6    6    0  502  0.16873030201E+03 -0.75911262416E+01 -0.12456546251E+03  0.20986684936E+03  0.00000000000E+00 0.  1.
<mgrwt>
<rscale>  0 0.15570219E+04</rscale>
<asrwt>0</asrwt>
<pdfrwt beam="1">  1        1 0.44817571E+00 0.15570219E+04</pdfrwt>
<pdfrwt beam="2">  1       -2 0.20734700E+00 0.15570219E+04</pdfrwt>
<totfact> 0.67598715E-02</totfact>
</mgrwt>
</event>
<event>
12    3  0.1182097E-007  0.1113176E+04  0.7818608E-02  0.9192444E-01
          1   -1    0    0  501    0  0.00000000000E+00  0.00000000000E+00  0.35729978348E+04  0.35729978348E+04  0.00000000000E+00 0. -1.
         -2   -1    0    0    0  501 -0.00000000000E+00 -0.00000000000E+00 -0.41169226376E+03  0.41169226376E+03  0.00000000000E+00 0.  1.
        -24    2    1    2    0    0 -0.91983221091E+03  0.47447841210E+03  0.71242148800E+03  0.12591666320E+04  0.82068086085E+02 0.  0.
    5000000    2    1    2    0    0  0.91983221091E+03 -0.47447841210E+03  0.24488840830E+04  0.27255234666E+04  0.60018651685E+03 0.  0.
        -24    2    4    4    0    0  0.34298145296E+03 -0.49835896159E+03  0.11497082751E+04  0.13016089867E+04  0.79742741433E+02 0.  0.
         24    2    4    4    0    0  0.57685075794E+03  0.23880549486E+02  0.12991758079E+04  0.14239144798E+04  0.79671754501E+02 0.  0.
         13    1    3    3    0    0 -0.30275578097E+03  0.19923090442E+03  0.23896566628E+03  0.43411819340E+03  0.00000000000E+00 0. -1.
        -14    1    3    3    0    0 -0.61707642994E+03  0.27524750768E+03  0.47345582173E+03  0.82504843858E+03  0.00000000000E+00 0.  1.
         15    1    5    5    0    0  0.10345407458E+02 -0.47017622173E+02  0.69546814960E+02  0.84602609004E+02  0.17770000000E+01 0. -1.
        -16    1    5    5    0    0  0.33263604550E+03 -0.45134133941E+03  0.10801614602E+04  0.12170063777E+04  0.00000000000E+00 0.  1.
          4    1    6    6  502    0  0.95748565113E+02  0.22197198491E+02  0.28351694604E+03  0.30007059508E+03  0.00000000000E+00 0. -1.
         -3    1    6    6    0  502  0.48110219283E+03  0.16833509950E+01  0.10156588619E+04  0.11238438848E+04  0.00000000000E+00 0.  1.
<mgrwt>
<rscale>  0 0.11131756E+04</rscale>
<asrwt>0</asrwt>
<pdfrwt beam="1">  1        1 0.54969195E+00 0.11131756E+04</pdfrwt>
<pdfrwt beam="2">  1       -2 0.63337274E-01 0.11131756E+04</pdfrwt>
<totfact> 0.45200817E-01</totfact>
</mgrwt>
</event>
<event>
12    3  0.1182097E-007  0.1010097E+04  0.7818608E-02  0.9297540E-01
         -2   -1    0    0    0  501 -0.00000000000E+00  0.00000000000E+00  0.12220628204E+04  0.12220628204E+04  0.00000000000E+00 0.  1.
          1   -1    0    0  501    0  0.00000000000E+00 -0.00000000000E+00 -0.27032418087E+04  0.27032418087E+04  0.00000000000E+00 0. -1.
        -24    2    1    2    0    0 -0.49778236212E+03 -0.85729556163E+03 -0.23004484589E+04  0.25063199410E+04  0.82665437903E+02 0.  0.
    5000000    2    1    2    0    0  0.49778236212E+03  0.85729556163E+03  0.81926947058E+03  0.14189846880E+04  0.59964332679E+03 0.  0.
        -24    2    4    4    0    0  0.10828117768E+01  0.17980557217E+03  0.46423806716E+03  0.50374755067E+03  0.76898605612E+02 0.  0.
         24    2    4    4    0    0  0.49669955035E+03  0.67748998947E+03  0.35503140342E+03  0.91523713735E+03  0.76867359896E+02 0.  0.
         11    1    3    3    0    0 -0.46632845591E+03 -0.82966450608E+03 -0.21764806444E+04  0.23754733037E+04  0.00000000000E+00 0. -1.
        -12    1    3    3    0    0 -0.31453906209E+02 -0.27631055551E+02 -0.12396781458E+03  0.13084663732E+03  0.00000000000E+00 0.  1.
         15    1    5    5    0    0  0.20720031231E+02  0.86855934392E+02  0.14159218179E+03  0.16740602351E+03  0.17770000000E+01 0. -1.
        -16    1    5    5    0    0 -0.19637219454E+02  0.92949637776E+02  0.32264588537E+03  0.33634152717E+03  0.00000000000E+00 0.  1.
          4    1    6    6  502    0  0.37163110507E+03  0.54909805450E+03  0.25840564767E+03  0.71161213485E+03  0.00000000000E+00 0. -1.
         -3    1    6    6    0  502  0.12506844527E+03  0.12839193496E+03  0.96625755751E+02  0.20362500250E+03  0.00000000000E+00 0.  1.
<mgrwt>
<rscale>  0 0.10100966E+04</rscale>
<asrwt>0</asrwt>
<pdfrwt beam="1">  1        1 0.41588335E+00 0.10100966E+04</pdfrwt>
<pdfrwt beam="2">  1       -2 0.18800967E+00 0.10100966E+04</pdfrwt>
<totfact> 0.13869222E-01</totfact>
</mgrwt>
</event>
<event>
12    3  0.1182097E-007  0.9311519E+03  0.7818608E-02  0.9387457E-01
          1   -1    0    0  501    0  0.00000000000E+00  0.00000000000E+00  0.22135781735E+04  0.22135781735E+04  0.00000000000E+00 0. -1.
         -2   -1    0    0    0  501 -0.00000000000E+00 -0.00000000000E+00 -0.42338885594E+03  0.42338885594E+03  0.00000000000E+00 0.  1.
        -24    2    1    2    0    0 -0.19201414384E+03 -0.84436444650E+03  0.96116568405E+03  0.12963033782E+04  0.82111060027E+02 0.  0.
    5000000    2    1    2    0    0  0.19201414384E+03  0.84436444650E+03  0.82902363348E+03  0.13406636512E+04  0.60023169765E+03 0.  0.
        -24    2    4    4    0    0  0.35767051220E+03  0.58728434163E+03  0.37402791736E+03  0.78698816125E+03  0.81378066829E+02 0.  0.
         24    2    4    4    0    0 -0.16565636836E+03  0.25708010487E+03  0.45499571613E+03  0.55367548996E+03  0.77480538184E+02 0.  0.
         11    1    3    3    0    0 -0.85520453128E+02 -0.36528538246E+03  0.35645195292E+03  0.51749894037E+03  0.00000000000E+00 0. -1.
        -12    1    3    3    0    0 -0.10649369071E+03 -0.47907906404E+03  0.60471373113E+03  0.77880443783E+03  0.00000000000E+00 0.  1.
         15    1    5    5    0    0  0.18456166199E+03  0.25130226725E+03  0.20358183648E+03  0.37237690379E+03  0.17770000000E+01 0. -1.
        -16    1    5    5    0    0  0.17310885021E+03  0.33598207438E+03  0.17044608088E+03  0.41461125746E+03  0.00000000000E+00 0.  1.
          4    1    6    6  502    0 -0.86178988411E+02  0.15372076509E+03  0.32415140523E+03  0.36895938148E+03  0.00000000000E+00 0. -1.
         -1    1    6    6    0  502 -0.79477379949E+02  0.10335933977E+03  0.13084431089E+03  0.18471610849E+03  0.00000000000E+00 0.  1.
<mgrwt>
<rscale>  0 0.93115189E+03</rscale>
<asrwt>0</asrwt>
<pdfrwt beam="1">  1        1 0.34055048E+00 0.93115189E+03</pdfrwt>
<pdfrwt beam="2">  1       -2 0.65136749E-01 0.93115189E+03</pdfrwt>
<totfact> 0.41523932E+00</totfact>
</mgrwt>
</event>
<event>
12    3  0.1182097E-007  0.6999351E+03  0.7818608E-02  0.9717343E-01
          1   -1    0    0  501    0  0.00000000000E+00  0.00000000000E+00  0.38809415219E+03  0.38809415219E+03  0.00000000000E+00 0. -1.
         -2   -1    0    0    0  501 -0.00000000000E+00 -0.00000000000E+00 -0.12783519143E+04  0.12783519143E+04  0.00000000000E+00 0.  1.
        -24    2    1    2    0    0  0.19662870225E+03 -0.53863285066E+03 -0.36305800743E+03  0.68320280623E+03  0.78528742054E+02 0.  0.
    5000000    2    1    2    0    0 -0.19662870225E+03  0.53863285066E+03 -0.52719975473E+03  0.98324326030E+03  0.60003294341E+03 0.  0.
        -24    2    4    4    0    0 -0.35805445348E+03  0.53666614195E+03 -0.42120937339E+03  0.77462445396E+03  0.80076019321E+02 0.  0.
         24    2    4    4    0    0  0.16142575123E+03  0.19667087111E+01 -0.10599038134E+03  0.20861880634E+03  0.78903132498E+02 0.  0.
         13    1    3    3    0    0  0.96349690437E+02 -0.28799269584E+03 -0.14677869198E+03  0.33729370009E+03  0.00000000000E+00 0. -1.
        -14    1    3    3    0    0  0.10027901182E+03 -0.25064015482E+03 -0.21627931545E+03  0.34590910614E+03  0.00000000000E+00 0.  1.
         15    1    5    5    0    0 -0.32500722617E+02  0.10073036664E+03 -0.62405383832E+02  0.12288406485E+03  0.17770000000E+01 0. -1.
        -16    1    5    5    0    0 -0.32555373087E+03  0.43593577531E+03 -0.35880398956E+03  0.65174038911E+03  0.00000000000E+00 0.  1.
          2    1    6    6  502    0  0.49816795296E+02  0.33835761323E+02 -0.56023118171E+02  0.82250602475E+02  0.00000000000E+00 0. -1.
         -1    1    6    6    0  502  0.11160895593E+03 -0.31869052612E+02 -0.49967263170E+02  0.12636820386E+03  0.00000000000E+00 0.  1.
<mgrwt>
<rscale>  0 0.69993512E+03</rscale>
<asrwt>0</asrwt>
<pdfrwt beam="1">  1        1 0.59706792E-01 0.69993512E+03</pdfrwt>
<pdfrwt beam="2">  1       -2 0.19666953E+00 0.69993512E+03</pdfrwt>
<totfact> 0.78608868E+00</totfact>
</mgrwt>
</event>
<event>
12    3  0.1182097E-007  0.7420157E+03  0.7818608E-02  0.9647960E-01
         -2   -1    0    0    0  501 -0.00000000000E+00  0.00000000000E+00  0.30572207213E+03  0.30572207213E+03  0.00000000000E+00 0.  1.
          1   -1    0    0  501    0  0.00000000000E+00 -0.00000000000E+00 -0.19267515127E+04  0.19267515127E+04  0.00000000000E+00 0. -1.
        -24    2    1    2    0    0 -0.10806550341E+02 -0.63860799866E+03 -0.84249673594E+03  0.10602460251E+04  0.79899475917E+02 0.  0.
    5000000    2    1    2    0    0  0.10806550341E+02  0.63860799866E+03 -0.77853270459E+03  0.11722275597E+04  0.60005609909E+03 0.  0.
        -24    2    4    4    0    0  0.17171494201E+03  0.70551211742E+01 -0.62017320445E+02  0.20041647126E+03  0.82370005901E+02 0.  0.
         24    2    4    4    0    0 -0.16090839167E+03  0.63155287748E+03 -0.71651538415E+03  0.97181108841E+03  0.79195632962E+02 0.  0.
         13    1    3    3    0    0  0.14694325842E+02 -0.41129908695E+03 -0.48823806678E+03  0.63856031195E+03  0.00000000000E+00 0. -1.
        -14    1    3    3    0    0 -0.25500876183E+02 -0.22730891170E+03 -0.35425866917E+03  0.42168571319E+03  0.00000000000E+00 0.  1.
         15    1    5    5    0    0  0.57112706978E+02 -0.35371846921E+02 -0.32745565621E+02  0.74755994073E+02  0.17770000000E+01 0. -1.
        -16    1    5    5    0    0  0.11460223503E+03  0.42426968095E+02 -0.29271754823E+02  0.12566047718E+03  0.00000000000E+00 0.  1.
          2    1    6    6  502    0 -0.12097279337E+03  0.35824925383E+03 -0.37447503941E+03  0.53217337376E+03  0.00000000000E+00 0. -1.
         -1    1    6    6    0  502 -0.39935598301E+02  0.27330362366E+03 -0.34204034474E+03  0.43963771465E+03  0.00000000000E+00 0.  1.
<mgrwt>
<rscale>  0 0.74201570E+03</rscale>
<asrwt>0</asrwt>
<pdfrwt beam="1">  1        1 0.29642330E+00 0.74201570E+03</pdfrwt>
<pdfrwt beam="2">  1       -2 0.47034166E-01 0.74201570E+03</pdfrwt>
<totfact> 0.13075319E+01</totfact>
</mgrwt>
</event>
<event>
12    3  0.1182097E-007  0.4774216E+03  0.7818608E-02  0.1019846E+00
         -2   -1    0    0    0  501 -0.00000000000E+00  0.00000000000E+00  0.17995624697E+04  0.17995624697E+04  0.00000000000E+00 0.  1.
          1   -1    0    0  501    0  0.00000000000E+00 -0.00000000000E+00 -0.17103559963E+03  0.17103559963E+03  0.00000000000E+00 0. -1.
        -24    2    1    2    0    0 -0.10274313938E+03  0.28639541699E+03  0.15463384810E+03  0.35044464927E+03  0.79506840363E+02 0.  0.
    5000000    2    1    2    0    0  0.10274313938E+03 -0.28639541699E+03  0.14738930220E+04  0.16201534200E+04  0.59996497958E+03 0.  0.
        -24    2    4    4    0    0 -0.10191201560E+03 -0.39048734712E+03  0.73303178240E+03  0.84033282635E+03  0.77183144900E+02 0.  0.
         24    2    4    4    0    0  0.20465515498E+03  0.10409193013E+03  0.74086123955E+03  0.77982059368E+03  0.80783164560E+02 0.  0.
         11    1    3    3    0    0 -0.39939226448E+02  0.84338786344E+02  0.93681740377E+01  0.93786648175E+02  0.00000000000E+00 0. -1.
        -12    1    3    3    0    0 -0.62803912931E+02  0.20205663064E+03  0.14526567406E+03  0.25665800109E+03  0.00000000000E+00 0.  1.
         15    1    5    5    0    0 -0.10766346678E+03 -0.37944541517E+03  0.68237138854E+03  0.78816503018E+03  0.17770000000E+01 0. -1.
        -16    1    5    5    0    0  0.57514511708E+01 -0.11041931949E+02  0.50660393857E+02  0.52167796173E+02  0.00000000000E+00 0.  1.
          4    1    6    6  502    0  0.14046453434E+03  0.11025784766E+03  0.56218733555E+03  0.58986581409E+03  0.00000000000E+00 0. -1.
         -3    1    6    6    0  502  0.64190620642E+02 -0.61659175346E+01  0.17867390401E+03  0.18995477959E+03  0.00000000000E+00 0.  1.
<mgrwt>
<rscale>  0 0.47742164E+03</rscale>
<asrwt>0</asrwt>
<pdfrwt beam="1">  1        1 0.26313170E-01 0.47742164E+03</pdfrwt>
<pdfrwt beam="2">  1       -2 0.27685575E+00 0.47742164E+03</pdfrwt>
<totfact> 0.75363301E+00</totfact>
</mgrwt>
</event>
<event>
12    3  0.1182097E-007  0.2087629E+04  0.7818608E-02  0.8566712E-01
          3   -1    0    0  501    0  0.00000000000E+00  0.00000000000E+00  0.27520980032E+04  0.27520980032E+04  0.00000000000E+00 0. -1.
         -4   -1    0    0    0  501 -0.00000000000E+00 -0.00000000000E+00 -0.17218905090E+04  0.17218905090E+04  0.00000000000E+00 0.  1.
        -24    2    1    2    0    0 -0.17088035305E+04 -0.11379563795E+04  0.11064825021E+04  0.23335933504E+04  0.80001062997E+02 0.  0.
    5000000    2    1    2    0    0  0.17088035305E+04  0.11379563795E+04 -0.76275007887E+02  0.21403951619E+04  0.60043263156E+03 0.  0.
        -24    2    4    4    0    0  0.70326108473E+03  0.77828456738E+03  0.92142069205E+02  0.10561109339E+04  0.81099461782E+02 0.  0.
         24    2    4    4    0    0  0.10055424457E+04  0.35967181207E+03 -0.16841707709E+03  0.10842842280E+04  0.82635056980E+02 0.  0.
         13    1    3    3    0    0 -0.11792432085E+04 -0.82092709081E+03  0.79840589229E+03  0.16437724301E+04  0.00000000000E+00 0. -1.
        -14    1    3    3    0    0 -0.52956032200E+03 -0.31702928864E+03  0.30807660981E+03  0.68982092025E+03  0.00000000000E+00 0.  1.
         15    1    5    5    0    0  0.69887930380E+03  0.77790800371E+03  0.87014873658E+02  0.10493559403E+04  0.17770000000E+01 0. -1.
        -16    1    5    5    0    0  0.43817809324E+01  0.37656367082E+00  0.51271955476E+01  0.67549935989E+01  0.00000000000E+00 0.  1.
          4    1    6    6  502    0  0.67274329605E+03  0.28114456402E+03 -0.11997808707E+03  0.73893203316E+03  0.00000000000E+00 0. -1.
         -3    1    6    6    0  502  0.33279914970E+03  0.78527248048E+02 -0.48438990017E+02  0.34535219484E+03  0.00000000000E+00 0.  1.
<mgrwt>
<rscale>  0 0.20876295E+04</rscale>
<asrwt>0</asrwt>
<pdfrwt beam="1">  1        3 0.42339969E+00 0.20876295E+04</pdfrwt>
<pdfrwt beam="2">  1       -4 0.26490623E+00 0.20876295E+04</pdfrwt>
<totfact> 0.83658447E-04</totfact>
</mgrwt>
</event>
<event>
12    3  0.1182097E-007  0.5879682E+03  0.7818608E-02  0.9930688E-01
         -2   -1    0    0    0  501 -0.00000000000E+00  0.00000000000E+00  0.12561977437E+04  0.12561977437E+04  0.00000000000E+00 0.  1.
          1   -1    0    0  501    0  0.00000000000E+00 -0.00000000000E+00 -0.67799509926E+03  0.67799509926E+03  0.00000000000E+00 0. -1.
        -24    2    1    2    0    0 -0.50653730880E+03 -0.86240244068E+02 -0.41495782361E+03  0.66520028016E+03  0.79271637135E+02 0.  0.
    5000000    2    1    2    0    0  0.50653730880E+03  0.86240244068E+02  0.99316046801E+03  0.12689925628E+04  0.59996415245E+03 0.  0.
        -24    2    4    4    0    0  0.20873081955E+03 -0.15726586507E+03  0.95399232813E+02  0.28931778217E+03  0.79389282113E+02 0.  0.
         24    2    4    4    0    0  0.29780648925E+03  0.24350610914E+03  0.89776123519E+03  0.97967478058E+03  0.76180772340E+02 0.  0.
         11    1    3    3    0    0 -0.31918176289E+03 -0.85751863903E+02 -0.23602002732E+03  0.40612292870E+03  0.00000000000E+00 0. -1.
        -12    1    3    3    0    0 -0.18735554591E+03 -0.48838016555E+00 -0.17893779629E+03  0.25907735146E+03  0.00000000000E+00 0.  1.
         15    1    5    5    0    0  0.97023950999E+02 -0.26332837215E+02  0.26975578185E+02  0.10410525890E+03  0.17770000000E+01 0. -1.
        -16    1    5    5    0    0  0.11170686855E+03 -0.13093302785E+03  0.68423654628E+02  0.18521252327E+03  0.00000000000E+00 0.  1.
          2    1    6    6  502    0  0.20286862768E+03  0.17989435793E+03  0.54248825043E+03  0.60647437041E+03  0.00000000000E+00 0. -1.
         -1    1    6    6    0  502  0.94937861562E+02  0.63611751207E+02  0.35527298477E+03  0.37320041017E+03  0.00000000000E+00 0.  1.
<mgrwt>
<rscale>  0 0.58796816E+03</rscale>
<asrwt>0</asrwt>
<pdfrwt beam="1">  1        1 0.10430694E+00 0.58796816E+03</pdfrwt>
<pdfrwt beam="2">  1       -2 0.19326119E+00 0.58796816E+03</pdfrwt>
<totfact> 0.38822510E+00</totfact>
</mgrwt>
</event>
<event>
12    3  0.1182097E-007  0.1046973E+04  0.7818608E-02  0.9258475E-01
          1   -1    0    0  501    0  0.00000000000E+00  0.00000000000E+00  0.19728462663E+04  0.19728462663E+04  0.00000000000E+00 0. -1.
         -2   -1    0    0    0  501 -0.00000000000E+00 -0.00000000000E+00 -0.68132737344E+03  0.68132737344E+03  0.00000000000E+00 0.  1.
        -24    2    1    2    0    0  0.90417180779E+03  0.33703126856E+03  0.47574454372E+02  0.96941103468E+03  0.79860449946E+02 0.  0.
    5000000    2    1    2    0    0 -0.90417180779E+03 -0.33703126856E+03  0.12439444385E+04  0.16847626051E+04  0.59992544156E+03 0.  0.
        -24    2    4    4    0    0 -0.36908090017E+03  0.14696090549E+03  0.37206502820E+03  0.55024865977E+03  0.80764990904E+02 0.  0.
         24    2    4    4    0    0 -0.53509090762E+03 -0.48399217405E+03  0.87187941032E+03  0.11345139453E+04  0.79859138827E+02 0.  0.
         11    1    3    3    0    0  0.68640566096E+03  0.22247661875E+03  0.20299402178E+02  0.72184530408E+03  0.00000000000E+00 0. -1.
        -12    1    3    3    0    0  0.21776614683E+03  0.11455464981E+03  0.27275052193E+02  0.24756573061E+03  0.00000000000E+00 0.  1.
         15    1    5    5    0    0 -0.18784216780E+03  0.35283957154E+02  0.15350673696E+03  0.24514712656E+03  0.17770000000E+01 0. -1.
        -16    1    5    5    0    0 -0.18123873236E+03  0.11167694834E+03  0.21855829124E+03  0.30510153321E+03  0.00000000000E+00 0.  1.
          2    1    6    6  502    0 -0.38397010076E+03 -0.36753007313E+03  0.58969683112E+03  0.79388522191E+03  0.00000000000E+00 0. -1.
         -1    1    6    6    0  502 -0.15112080686E+03 -0.11646210091E+03  0.28218257920E+03  0.34062872342E+03  0.00000000000E+00 0.  1.
<mgrwt>
<rscale>  0 0.10469727E+04</rscale>
<asrwt>0</asrwt>
<pdfrwt beam="1">  1        1 0.30351481E+00 0.10469727E+04</pdfrwt>
<pdfrwt beam="2">  1       -2 0.10481960E+00 0.10469727E+04</pdfrwt>
<totfact> 0.20126941E+00</totfact>
</mgrwt>
</event>
<event>
12    3  0.1182097E-007  0.4979475E+03  0.7818608E-02  0.1014316E+00
         -4   -1    0    0    0  501 -0.00000000000E+00  0.00000000000E+00  0.25706783196E+03  0.25706783196E+03  0.00000000000E+00 0.  1.
          3   -1    0    0  501    0  0.00000000000E+00 -0.00000000000E+00 -0.10867172337E+04  0.10867172337E+04  0.00000000000E+00 0. -1.
        -24    2    1    2    0    0 -0.32300599735E+03  0.41438199234E+02 -0.10547491570E+03  0.34848190680E+03  0.65304539206E+02 0.  0.
    5000000    2    1    2    0    0  0.32300599735E+03 -0.41438199234E+02 -0.72417448604E+03  0.99530315887E+03  0.60012473132E+03 0.  0.
        -24    2    4    4    0    0  0.39259256015E+03 -0.22788749450E+03 -0.54269493440E+03  0.71381037374E+03  0.94582394801E+02 0.  0.
         24    2    4    4    0    0 -0.69586562796E+02  0.18644929526E+03 -0.18147955164E+03  0.28149278513E+03  0.81839666359E+02 0.  0.
         11    1    3    3    0    0 -0.22445212115E+03  0.45040210585E+01 -0.52054180012E+02  0.23045320251E+03  0.00000000000E+00 0. -1.
        -12    1    3    3    0    0 -0.98553876207E+02  0.36934178175E+02 -0.53420735690E+02  0.11802870428E+03  0.00000000000E+00 0.  1.
         15    1    5    5    0    0  0.27645110953E+03 -0.10914593735E+03 -0.33436633931E+03  0.44737239319E+03  0.17770000000E+01 0. -1.
        -16    1    5    5    0    0  0.11614145062E+03 -0.11874155715E+03 -0.20832859509E+03  0.26643798055E+03  0.00000000000E+00 0.  1.
          4    1    6    6  502    0 -0.72115345218E+02  0.15148460694E+03 -0.18048812838E+03  0.24642275391E+03  0.00000000000E+00 0. -1.
         -3    1    6    6    0  502  0.25287824220E+01  0.34964688317E+02 -0.99142325951E+00  0.35070031219E+02  0.00000000000E+00 0.  1.
<mgrwt>
<rscale>  0 0.49794748E+03</rscale>
<asrwt>0</asrwt>
<pdfrwt beam="1">  1        3 0.16718726E+00 0.49794748E+03</pdfrwt>
<pdfrwt beam="2">  1       -4 0.39548898E-01 0.49794748E+03</pdfrwt>
<totfact> 0.34488213E+00</totfact>
</mgrwt>
</event>
<event>
12    3  0.1182097E-007  0.5824996E+03  0.7818608E-02  0.9942394E-01
          1   -1    0    0  501    0  0.00000000000E+00  0.00000000000E+00  0.13958668055E+04  0.13958668055E+04  0.00000000000E+00 0. -1.
         -4   -1    0    0    0  501 -0.00000000000E+00 -0.00000000000E+00 -0.52091289783E+03  0.52091289783E+03  0.00000000000E+00 0.  1.
        -24    2    1    2    0    0  0.43508110995E+03  0.52421149567E+02 -0.29251182018E+03  0.53294585096E+03  0.80153390186E+02 0.  0.
    5000000    2    1    2    0    0 -0.43508110995E+03 -0.52421149567E+02  0.11674657278E+04  0.13838338523E+04  0.59998029640E+03 0.  0.
        -24    2    4    4    0    0 -0.32902063752E+03 -0.29888726195E+03  0.83508866574E+03  0.94934641698E+03  0.79355935582E+02 0.  0.
         24    2    4    4    0    0 -0.10606047242E+03  0.24646611238E+03  0.33237706206E+03  0.43448743534E+03  0.79438351691E+02 0.  0.
         11    1    3    3    0    0  0.15069467736E+03  0.33815623497E+02 -0.14586212108E+03  0.21243384981E+03  0.00000000000E+00 0. -1.
        -12    1    3    3    0    0  0.28438643259E+03  0.18605526069E+02 -0.14664969910E+03  0.32051200116E+03  0.00000000000E+00 0.  1.
         15    1    5    5    0    0 -0.14474715925E+03 -0.80228593356E+02  0.31486998508E+03  0.35571706810E+03  0.17770000000E+01 0. -1.
        -16    1    5    5    0    0 -0.18427347827E+03 -0.21865866859E+03  0.52021868066E+03  0.59362934888E+03  0.00000000000E+00 0.  1.
          2    1    6    6  502    0 -0.78658297983E+02  0.11190329760E+03  0.20958404912E+03  0.25026975347E+03  0.00000000000E+00 0. -1.
         -1    1    6    6    0  502 -0.27402174441E+02  0.13456281479E+03  0.12279301294E+03  0.18421768187E+03  0.00000000000E+00 0.  1.
<mgrwt>
<rscale>  0 0.58249958E+03</rscale>
<asrwt>0</asrwt>
<pdfrwt beam="1">  1        1 0.21474874E+00 0.58249958E+03</pdfrwt>
<pdfrwt beam="2">  1       -4 0.80140446E-01 0.58249958E+03</pdfrwt>
<totfact> 0.53317098E+00</totfact>
</mgrwt>
</event>
<event>
12    3  0.1182097E-007  0.9777568E+03  0.7818608E-02  0.9333283E-01
          1   -1    0    0  501    0  0.00000000000E+00  0.00000000000E+00  0.29478179665E+04  0.29478179665E+04  0.00000000000E+00 0. -1.
         -2   -1    0    0    0  501 -0.00000000000E+00 -0.00000000000E+00 -0.35257016948E+03  0.35257016948E+03  0.00000000000E+00 0.  1.
        -24    2    1    2    0    0  0.74079060951E+03 -0.55399589332E+03  0.13279497687E+04  0.16206017133E+04  0.84953798156E+02 0.  0.
    5000000    2    1    2    0    0 -0.74079060951E+03  0.55399589332E+03  0.12672980283E+04  0.16797864227E+04  0.59996329589E+03 0.  0.
        -24    2    4    4    0    0  0.30627232294E+00  0.20233887982E+03  0.72694462425E+02  0.22791237096E+03  0.75620419725E+02 0.  0.
         24    2    4    4    0    0 -0.74109688184E+03  0.35165701350E+03  0.11946035659E+04  0.14518740517E+04  0.89293555920E+02 0.  0.
         13    1    3    3    0    0  0.20667078218E+03 -0.12872371421E+03  0.40529514021E+03  0.47280731539E+03  0.00000000000E+00 0. -1.
        -14    1    3    3    0    0  0.53411982734E+03 -0.42527217911E+03  0.92265462850E+03  0.11477943979E+04  0.00000000000E+00 0.  1.
         15    1    5    5    0    0  0.57799458671E+01  0.25095909843E+00 -0.81783894667E+01  0.10174209452E+02  0.17770000000E+01 0. -1.
        -16    1    5    5    0    0 -0.54736735442E+01  0.20208792072E+03  0.80872851891E+02  0.21773816151E+03  0.00000000000E+00 0.  1.
          4    1    6    6  502    0 -0.10136651200E+03  0.34793936619E+02  0.20906389589E+03  0.23493296989E+03  0.00000000000E+00 0. -1.
         -3    1    6    6    0  502 -0.63973036984E+03  0.31686307688E+03  0.98553966997E+03  0.12169410818E+04  0.00000000000E+00 0.  1.
<mgrwt>
<rscale>  0 0.97775684E+03</rscale>
<asrwt>0</asrwt>
<pdfrwt beam="1">  1        1 0.45351044E+00 0.97775684E+03</pdfrwt>
<pdfrwt beam="2">  1       -2 0.54241566E-01 0.97775684E+03</pdfrwt>
<totfact> 0.18845272E+00</totfact>
</mgrwt>
</event>
<event>
12    3  0.1182097E-007  0.9734779E+03  0.7818608E-02  0.9338122E-01
          1   -1    0    0  501    0  0.00000000000E+00  0.00000000000E+00  0.90171773633E+03  0.90171773633E+03  0.00000000000E+00 0. -1.
         -2   -1    0    0    0  501 -0.00000000000E+00 -0.00000000000E+00 -0.11483831470E+04  0.11483831470E+04  0.00000000000E+00 0.  1.
        -24    2    1    2    0    0 -0.53002846395E+03  0.71497718967E+03  0.14925799492E+03  0.90600963512E+03  0.80330290380E+02 0.  0.
    5000000    2    1    2    0    0  0.53002846395E+03 -0.71497718967E+03 -0.39592340560E+03  0.11440912482E+04  0.60005573643E+03 0.  0.
        -24    2    4    4    0    0  0.18852184413E+02 -0.48720458467E+03 -0.91780975870E+02  0.50212828586E+03  0.77365080913E+02 0.  0.
         24    2    4    4    0    0  0.51117627953E+03 -0.22777260499E+03 -0.30414242973E+03  0.64196296237E+03  0.80201490917E+02 0.  0.
         11    1    3    3    0    0 -0.27552743551E+03  0.43487972342E+03  0.98772480640E+02  0.52420582264E+03  0.00000000000E+00 0. -1.
        -12    1    3    3    0    0 -0.25450102844E+03  0.28009746625E+03  0.50485514278E+02  0.38180381249E+03  0.00000000000E+00 0.  1.
         15    1    5    5    0    0 -0.25442913215E+02 -0.10373203277E+03 -0.31946228484E+02  0.11149616898E+03  0.17770000000E+01 0. -1.
        -16    1    5    5    0    0  0.44295097629E+02 -0.38347255191E+03 -0.59834747387E+02  0.39063211688E+03  0.00000000000E+00 0.  1.
          4    1    6    6  502    0  0.43045859419E+03 -0.17662492028E+03 -0.28130752721E+03  0.54371397686E+03  0.00000000000E+00 0. -1.
         -3    1    6    6    0  502  0.80717685344E+02 -0.51147684716E+02 -0.22834902526E+02  0.98248985504E+02  0.00000000000E+00 0.  1.
<mgrwt>
<rscale>  0 0.97347788E+03</rscale>
<asrwt>0</asrwt>
<pdfrwt beam="1">  1        1 0.13872581E+00 0.97347788E+03</pdfrwt>
<pdfrwt beam="2">  1       -2 0.17667433E+00 0.97347788E+03</pdfrwt>
<totfact> 0.30366101E+00</totfact>
</mgrwt>
</event>
<event>
12    3  0.1182097E-007  0.8081520E+03  0.7818608E-02  0.9548292E-01
          1   -1    0    0  501    0  0.00000000000E+00  0.00000000000E+00  0.18398117735E+04  0.18398117735E+04  0.00000000000E+00 0. -1.
         -2   -1    0    0    0  501 -0.00000000000E+00 -0.00000000000E+00 -0.69282764539E+03  0.69282764539E+03  0.00000000000E+00 0.  1.
        -24    2    1    2    0    0  0.66528434702E+03 -0.24904518358E+03 -0.33011140343E+03  0.78731165649E+03  0.79115990302E+02 0.  0.
    5000000    2    1    2    0    0 -0.66528434702E+03  0.24904518358E+03  0.14770955316E+04  0.17453277624E+04  0.59977581065E+03 0.  0.
        -24    2    4    4    0    0  0.19097832244E+02 -0.10562471328E+03  0.37558243231E+03  0.39854430356E+03  0.79082812194E+02 0.  0.
         24    2    4    4    0    0 -0.68438217926E+03  0.35466989686E+03  0.11015130993E+04  0.13467834589E+04  0.79529077668E+02 0.  0.
         11    1    3    3    0    0  0.16764988128E+03 -0.36063621274E+02 -0.54823375895E+02  0.18003519105E+03  0.00000000000E+00 0. -1.
        -12    1    3    3    0    0  0.49763446574E+03 -0.21298156231E+03 -0.27528802754E+03  0.60727646544E+03  0.00000000000E+00 0.  1.
         15    1    5    5    0    0 -0.28160519924E+02 -0.62970696970E+02  0.17549199608E+03  0.18857073467E+03  0.17770000000E+01 0. -1.
        -16    1    5    5    0    0  0.47258352168E+02 -0.42654016312E+02  0.20009043623E+03  0.20997356888E+03  0.00000000000E+00 0.  1.
          2    1    6    6  502    0 -0.81678750618E+02  0.45018794028E+02  0.18282732623E+03  0.20524117846E+03  0.00000000000E+00 0. -1.
         -1    1    6    6    0  502 -0.60270342865E+03  0.30965110283E+03  0.91868577303E+03  0.11415422804E+04  0.00000000000E+00 0.  1.
<mgrwt>
<rscale>  0 0.80815201E+03</rscale>
<asrwt>0</asrwt>
<pdfrwt beam="1">  1        1 0.28304796E+00 0.80815201E+03</pdfrwt>
<pdfrwt beam="2">  1       -2 0.10658887E+00 0.80815201E+03</pdfrwt>
<totfact> 0.24557076E+00</totfact>
</mgrwt>
</event>
<event>
12    3  0.1182097E-007  0.7929906E+03  0.7818608E-02  0.9570219E-01
          1   -1    0    0  501    0  0.00000000000E+00  0.00000000000E+00  0.76036484595E+03  0.76036484595E+03  0.00000000000E+00 0. -1.
         -2   -1    0    0    0  501 -0.00000000000E+00 -0.00000000000E+00 -0.10533968978E+04  0.10533968978E+04  0.00000000000E+00 0.  1.
        -24    2    1    2    0    0  0.17419632496E+03  0.66807238762E+03  0.26298055118E+03  0.74321092462E+03  0.80861816977E+02 0.  0.
    5000000    2    1    2    0    0 -0.17419632496E+03 -0.66807238762E+03 -0.55601260301E+03  0.10705508191E+04  0.60021993206E+03 0.  0.
        -24    2    4    4    0    0  0.19517246942E+03 -0.11704244988E+03 -0.20424021422E+03  0.31548084720E+03  0.77607164287E+02 0.  0.
         24    2    4    4    0    0 -0.36936879439E+03 -0.55102993774E+03 -0.35177238879E+03  0.75506997191E+03  0.79495599950E+02 0.  0.
         11    1    3    3    0    0  0.19504176676E+02  0.18739325314E+03  0.48199057322E+02  0.19447311731E+03  0.00000000000E+00 0. -1.
        -12    1    3    3    0    0  0.15469214829E+03  0.48067913449E+03  0.21478149386E+03  0.54873780732E+03  0.00000000000E+00 0.  1.
         15    1    5    5    0    0  0.62221975663E+01 -0.89222778970E+01 -0.43490858810E+02  0.44865747675E+02  0.17770000000E+01 0. -1.
        -16    1    5    5    0    0  0.18895027185E+03 -0.10812017198E+03 -0.16074935541E+03  0.27061509952E+03  0.00000000000E+00 0.  1.
          2    1    6    6  502    0 -0.66744137358E+02 -0.82251195767E+02 -0.88841411007E+02  0.13824917861E+03  0.00000000000E+00 0. -1.
         -1    1    6    6    0  502 -0.30262465703E+03 -0.46877874198E+03 -0.26293097779E+03  0.61682079330E+03  0.00000000000E+00 0.  1.
<mgrwt>
<rscale>  0 0.79299059E+03</rscale>
<asrwt>0</asrwt>
<pdfrwt beam="1">  1        1 0.11697921E+00 0.79299059E+03</pdfrwt>
<pdfrwt beam="2">  1       -2 0.16206106E+00 0.79299059E+03</pdfrwt>
<totfact> 0.52012899E+00</totfact>
</mgrwt>
</event>
<event>
12    3  0.1182097E-007  0.3760389E+03  0.7818608E-02  0.1052408E+00
         -2   -1    0    0    0  501 -0.00000000000E+00  0.00000000000E+00  0.14839839842E+04  0.14839839842E+04  0.00000000000E+00 0.  1.
          1   -1    0    0  501    0  0.00000000000E+00 -0.00000000000E+00 -0.17937317115E+03  0.17937317115E+03  0.00000000000E+00 0. -1.
        -24    2    1    2    0    0 -0.87873238189E+02 -0.23318037826E+03  0.79266521818E+03  0.83572247050E+03  0.89549454412E+02 0.  0.
    5000000    2    1    2    0    0  0.87873238189E+02  0.23318037826E+03  0.51194559491E+03  0.82763468488E+03  0.60066303755E+03 0.  0.
        -24    2    4    4    0    0 -0.13950423780E+03  0.20688184215E+03  0.52278637904E+03  0.58475534361E+03  0.79822833753E+02 0.  0.
         24    2    4    4    0    0  0.22737747599E+03  0.26298536109E+02 -0.10840784135E+02  0.24287934128E+03  0.80502933054E+02 0.  0.
         13    1    3    3    0    0 -0.35617043702E+02 -0.19909084674E+02  0.77196294748E+02  0.87316741679E+02  0.00000000000E+00 0. -1.
        -14    1    3    3    0    0 -0.52256194487E+02 -0.21327129359E+03  0.71546892344E+03  0.74840572882E+03  0.00000000000E+00 0.  1.
         15    1    5    5    0    0 -0.85719357655E+02  0.91381690792E+02  0.18230621084E+03  0.22121739065E+03  0.17770000000E+01 0. -1.
        -16    1    5    5    0    0 -0.53784880144E+02  0.11550015136E+03  0.34048016820E+03  0.36353795295E+03  0.00000000000E+00 0.  1.
          4    1    6    6  502    0  0.11187797844E+03 -0.21595235166E+02 -0.26162981538E+02  0.11690824541E+03  0.00000000000E+00 0. -1.
         -3    1    6    6    0  502  0.11549949754E+03  0.47893771275E+02  0.15322197403E+02  0.12597109586E+03  0.00000000000E+00 0.  1.
<mgrwt>
<rscale>  0 0.37603886E+03</rscale>
<asrwt>0</asrwt>
<pdfrwt beam="1">  1        1 0.27595873E-01 0.37603886E+03</pdfrwt>
<pdfrwt beam="2">  1       -2 0.22830522E+00 0.37603886E+03</pdfrwt>
<totfact> 0.14068677E+01</totfact>
</mgrwt>
</event>
<event>
12    3  0.1182097E-007  0.6701615E+03  0.7818608E-02  0.9769666E-01
         -2   -1    0    0    0  501 -0.00000000000E+00  0.00000000000E+00  0.40314470088E+03  0.40314470088E+03  0.00000000000E+00 0.  1.
          1   -1    0    0  501    0  0.00000000000E+00 -0.00000000000E+00 -0.24508157954E+04  0.24508157954E+04  0.00000000000E+00 0. -1.
        -24    2    1    2    0    0 -0.52717335084E+03 -0.10589904091E+03 -0.19709055482E+04  0.20444940865E+04  0.79756135628E+02 0.  0.
    5000000    2    1    2    0    0  0.52717335084E+03  0.10589904091E+03 -0.76765546287E+02  0.80946640973E+03  0.60018044843E+03 0.  0.
        -24    2    4    4    0    0  0.22612104274E+03 -0.23685003702E+03 -0.81989681438E+02  0.34661604765E+03  0.78687423510E+02 0.  0.
         24    2    4    4    0    0  0.30105230810E+03  0.34274907793E+03  0.52241351514E+01  0.46285036208E+03  0.78062433046E+02 0.  0.
         11    1    3    3    0    0 -0.23776813403E+03 -0.88042436213E+02 -0.90123342729E+03  0.93621944361E+03  0.00000000000E+00 0. -1.
        -12    1    3    3    0    0 -0.28940521682E+03 -0.17856604693E+02 -0.10696721209E+04  0.11082746429E+04  0.00000000000E+00 0.  1.
         15    1    5    5    0    0  0.20648339109E+02 -0.60394338860E+02 -0.76358766196E+00  0.63855860102E+02  0.17770000000E+01 0. -1.
        -16    1    5    5    0    0  0.20547270363E+03 -0.17645569816E+03 -0.81226093776E+02  0.28276018755E+03  0.00000000000E+00 0.  1.
          4    1    6    6  502    0  0.15335517758E+03  0.22945042077E+03  0.15531744276E+02  0.27641733151E+03  0.00000000000E+00 0. -1.
         -3    1    6    6    0  502  0.14769713053E+03  0.11329865716E+03 -0.10307609124E+02  0.18643303056E+03  0.00000000000E+00 0.  1.
<mgrwt>
<rscale>  0 0.67016151E+03</rscale>
<asrwt>0</asrwt>
<pdfrwt beam="1">  1        1 0.37704858E+00 0.67016151E+03</pdfrwt>
<pdfrwt beam="2">  1       -2 0.62022262E-01 0.67016151E+03</pdfrwt>
<totfact> 0.33254045E+00</totfact>
</mgrwt>
</event>
<event>
12    3  0.1182097E-007  0.8216338E+03  0.7818608E-02  0.9529220E-01
         -4   -1    0    0    0  501 -0.00000000000E+00  0.00000000000E+00  0.13782332104E+04  0.13782332104E+04  0.00000000000E+00 0.  1.
          1   -1    0    0  501    0  0.00000000000E+00 -0.00000000000E+00 -0.61092646235E+03  0.61092646235E+03  0.00000000000E+00 0. -1.
        -24    2    1    2    0    0 -0.49748211495E+03 -0.51781284708E+03 -0.79650485690E+02  0.72710006587E+03  0.81925006097E+02 0.  0.
    5000000    2    1    2    0    0  0.49748211495E+03  0.51781284708E+03  0.84695723371E+03  0.12620596068E+04  0.59986606522E+03 0.  0.
        -24    2    4    4    0    0  0.24758568953E+03  0.60133220509E+03  0.53860783734E+03  0.84856285206E+03  0.84032237319E+02 0.  0.
         24    2    4    4    0    0  0.24989642542E+03 -0.83519358010E+02  0.30834939638E+03  0.41349675479E+03  0.80476762985E+02 0.  0.
         11    1    3    3    0    0 -0.39056348062E+03 -0.43650649861E+03 -0.40206701071E+02  0.58710674884E+03  0.00000000000E+00 0. -1.
        -12    1    3    3    0    0 -0.10691863433E+03 -0.81306348472E+02 -0.39443784619E+02  0.13999331703E+03  0.00000000000E+00 0.  1.
         15    1    5    5    0    0  0.17576011593E+03  0.47932454645E+03  0.45669856439E+03  0.68499662454E+03  0.17770000000E+01 0. -1.
        -16    1    5    5    0    0  0.71825573602E+02  0.12200765864E+03  0.81909272942E+02  0.16356622751E+03  0.00000000000E+00 0.  1.
          4    1    6    6  502    0  0.30649706317E+02 -0.35051742378E+02  0.84250398240E+02  0.96260888967E+02  0.00000000000E+00 0. -1.
         -3    1    6    6    0  502  0.21924671910E+03 -0.48467615632E+02  0.22409899814E+03  0.31723586583E+03  0.00000000000E+00 0.  1.
<mgrwt>
<rscale>  0 0.82163381E+03</rscale>
<asrwt>0</asrwt>
<pdfrwt beam="1">  1        1 0.93988687E-01 0.82163381E+03</pdfrwt>
<pdfrwt beam="2">  1       -4 0.21203588E+00 0.82163381E+03</pdfrwt>
<totfact> 0.17597754E+00</totfact>
</mgrwt>
</event>
<event>
12    3  0.1182097E-007  0.1697947E+04  0.7818608E-02  0.8762536E-01
          1   -1    0    0  501    0  0.00000000000E+00  0.00000000000E+00  0.28704529376E+04  0.28704529376E+04  0.00000000000E+00 0. -1.
         -2   -1    0    0    0  501 -0.00000000000E+00 -0.00000000000E+00 -0.10946500892E+04  0.10946500892E+04  0.00000000000E+00 0.  1.
        -24    2    1    2    0    0 -0.80131346812E+03 -0.14449269259E+04  0.32471112692E+03  0.16857171002E+04  0.79295212828E+02 0.  0.
    5000000    2    1    2    0    0  0.80131346812E+03  0.14449269259E+04  0.14510917215E+04  0.22793859265E+04  0.60001326851E+03 0.  0.
        -24    2    4    4    0    0  0.24287817969E+02  0.56611384297E+03  0.36205502552E+03  0.67671662493E+03  0.76070806722E+02 0.  0.
         24    2    4    4    0    0  0.77702565015E+03  0.87881308291E+03  0.10890366959E+04  0.16026693016E+04  0.80415603907E+02 0.  0.
         13    1    3    3    0    0 -0.16752253489E+03 -0.25460962176E+03  0.39193944163E+02  0.30728817818E+03  0.00000000000E+00 0. -1.
        -14    1    3    3    0    0 -0.63379093323E+03 -0.11903173041E+04  0.28551718276E+03  0.13784289221E+04  0.00000000000E+00 0.  1.
         15    1    5    5    0    0  0.72223480591E+01  0.42825221457E+03  0.23545511578E+03  0.48876823841E+03  0.17770000000E+01 0. -1.
        -16    1    5    5    0    0  0.17065469910E+02  0.13786162840E+03  0.12659990974E+03  0.18794838652E+03  0.00000000000E+00 0.  1.
          2    1    6    6  502    0  0.52796207525E+03  0.54420634500E+03  0.68080240536E+03  0.10190173767E+04  0.00000000000E+00 0. -1.
         -1    1    6    6    0  502  0.24906357489E+03  0.33460673792E+03  0.40823429058E+03  0.58365192487E+03  0.00000000000E+00 0.  1.
<mgrwt>
<rscale>  0 0.16979474E+04</rscale>
<asrwt>0</asrwt>
<pdfrwt beam="1">  1        1 0.44160814E+00 0.16979474E+04</pdfrwt>
<pdfrwt beam="2">  1       -2 0.16840771E+00 0.16979474E+04</pdfrwt>
<totfact> 0.13176753E-01</totfact>
</mgrwt>
</event>
<event>
12    3  0.1182097E-007  0.5471996E+03  0.7818608E-02  0.1002144E+00
         -2   -1    0    0    0  501 -0.00000000000E+00  0.00000000000E+00  0.15534865964E+03  0.15534865964E+03  0.00000000000E+00 0.  1.
          1   -1    0    0  501    0  0.00000000000E+00 -0.00000000000E+00 -0.29177975310E+04  0.29177975310E+04  0.00000000000E+00 0. -1.
        -24    2    1    2    0    0 -0.19339416904E+03 -0.37451891436E+03 -0.35658496944E+03  0.55801931034E+03  0.81036957302E+02 0.  0.
    5000000    2    1    2    0    0  0.19339416904E+03  0.37451891436E+03 -0.24058639020E+04  0.25151268803E+04  0.60001365621E+03 0.  0.
        -24    2    4    4    0    0  0.36117397915E+03  0.25449857873E+03 -0.20331199922E+04  0.20819581651E+04  0.75873111536E+02 0.  0.
         24    2    4    4    0    0 -0.16777981011E+03  0.12002033563E+03 -0.37274390980E+03  0.43316871521E+03  0.78371984128E+02 0.  0.
         13    1    3    3    0    0 -0.10236840072E+03 -0.26256830504E+03 -0.26680865816E+03  0.38808280604E+03  0.00000000000E+00 0. -1.
        -14    1    3    3    0    0 -0.91025768318E+02 -0.11195060932E+03 -0.89776311280E+02  0.16993650429E+03  0.00000000000E+00 0.  1.
         15    1    5    5    0    0  0.15105917652E+03  0.15196801530E+03 -0.10051070017E+04  0.10276946993E+04  0.17770000000E+01 0. -1.
        -16    1    5    5    0    0  0.21011480264E+03  0.10253056342E+03 -0.10280129905E+04  0.10542634658E+04  0.00000000000E+00 0.  1.
          4    1    6    6  502    0 -0.38136293383E+02  0.72906447408E+02 -0.15294039422E+03  0.17366776077E+03  0.00000000000E+00 0. -1.
         -3    1    6    6    0  502 -0.12964351673E+03  0.47113888225E+02 -0.21980351559E+03  0.25950095444E+03  0.00000000000E+00 0.  1.
<mgrwt>
<rscale>  0 0.54719964E+03</rscale>
<asrwt>0</asrwt>
<pdfrwt beam="1">  1        1 0.44889196E+00 0.54719964E+03</pdfrwt>
<pdfrwt beam="2">  1       -2 0.23899792E-01 0.54719964E+03</pdfrwt>
<totfact> 0.10315170E+01</totfact>
</mgrwt>
</event>
<event>
12    3  0.1182097E-007  0.1485881E+04  0.7818608E-02  0.8893897E-01
          1   -1    0    0  501    0  0.00000000000E+00  0.00000000000E+00  0.21311793688E+04  0.21311793688E+04  0.00000000000E+00 0. -1.
         -2   -1    0    0    0  501 -0.00000000000E+00 -0.00000000000E+00 -0.10740450461E+04  0.10740450461E+04  0.00000000000E+00 0.  1.
        -24    2    1    2    0    0 -0.52148396496E+03 -0.13532983447E+04  0.42612413712E+03  0.15135378677E+04  0.76505956351E+02 0.  0.
    5000000    2    1    2    0    0  0.52148396496E+03  0.13532983447E+04  0.63101018563E+03  0.16916865472E+04  0.60022294544E+03 0.  0.
        -24    2    4    4    0    0  0.43914801806E+03  0.52589871228E+03  0.88278117674E+02  0.69549999051E+03  0.80664573352E+02 0.  0.
         24    2    4    4    0    0  0.82335946903E+02  0.82739963239E+03  0.54273206796E+03  0.99618655670E+03  0.80375358968E+02 0.  0.
         13    1    3    3    0    0 -0.38548280190E+03 -0.93440862549E+03  0.32375098768E+03  0.10613817277E+04  0.00000000000E+00 0. -1.
        -14    1    3    3    0    0 -0.13600116306E+03 -0.41888971918E+03  0.10237314944E+03  0.45215613997E+03  0.00000000000E+00 0.  1.
         15    1    5    5    0    0  0.21797009002E+03  0.29607575389E+03  0.80865691912E+02  0.37644950530E+03  0.17770000000E+01 0. -1.
        -16    1    5    5    0    0  0.22117792804E+03  0.22982295839E+03  0.74124257617E+01  0.31905048521E+03  0.00000000000E+00 0.  1.
          4    1    6    6  502    0  0.93186813745E+02  0.73310676461E+03  0.49886020040E+03  0.89162257156E+03  0.00000000000E+00 0. -1.
         -1    1    6    6    0  502 -0.10850866842E+02  0.94292867778E+02  0.43871867560E+02  0.10456398514E+03  0.00000000000E+00 0.  1.
<mgrwt>
<rscale>  0 0.14858805E+04</rscale>
<asrwt>0</asrwt>
<pdfrwt beam="1">  1        1 0.32787375E+00 0.14858805E+04</pdfrwt>
<pdfrwt beam="2">  1       -2 0.16523770E+00 0.14858805E+04</pdfrwt>
<totfact> 0.46439200E-01</totfact>
</mgrwt>
</event>
<event>
12    3  0.1182097E-007  0.5590667E+03  0.7818608E-02  0.9994169E-01
          3   -1    0    0  501    0  0.00000000000E+00  0.00000000000E+00  0.85333039548E+03  0.85333039548E+03  0.00000000000E+00 0. -1.
         -4   -1    0    0    0  501 -0.00000000000E+00 -0.00000000000E+00 -0.62588935317E+03  0.62588935317E+03  0.00000000000E+00 0.  1.
        -24    2    1    2    0    0  0.46125767290E+03 -0.27012408780E+03 -0.18789407324E+03  0.57511972183E+03  0.98655197816E+02 0.  0.
    5000000    2    1    2    0    0 -0.46125767290E+03  0.27012408780E+03  0.41533511555E+03  0.90410002682E+03  0.59930621277E+03 0.  0.
        -24    2    4    4    0    0 -0.17031931075E+03  0.71520252855E+01 -0.12935160749E+03  0.22828733835E+03  0.79520132098E+02 0.  0.
         24    2    4    4    0    0 -0.29093836215E+03  0.26297206252E+03  0.54468672305E+03  0.67581268847E+03  0.78991945153E+02 0.  0.
         11    1    3    3    0    0  0.45127731864E+03 -0.25466782138E+03 -0.16114702078E+03  0.54265576554E+03  0.00000000000E+00 0. -1.
        -12    1    3    3    0    0  0.99803542625E+01 -0.15456266426E+02 -0.26747052456E+02  0.32463956292E+02  0.00000000000E+00 0.  1.
         15    1    5    5    0    0 -0.16088776532E+02  0.21948100275E+02 -0.42976441755E+02  0.50898920528E+02  0.17770000000E+01 0. -1.
        -16    1    5    5    0    0 -0.15423053422E+03 -0.14796074989E+02 -0.86375165738E+02  0.17738841782E+03  0.00000000000E+00 0.  1.
          2    1    6    6  502    0 -0.10831029211E+03  0.14852684363E+03  0.23087621042E+03  0.29511890349E+03  0.00000000000E+00 0. -1.
         -1    1    6    6    0  502 -0.18262807003E+03  0.11444521889E+03  0.31381051263E+03  0.38069378498E+03  0.00000000000E+00 0.  1.
<mgrwt>
<rscale>  0 0.55906674E+03</rscale>
<asrwt>0</asrwt>
<pdfrwt beam="1">  1        3 0.13128160E+00 0.55906674E+03</pdfrwt>
<pdfrwt beam="2">  1       -4 0.96290670E-01 0.55906674E+03</pdfrwt>
<totfact> 0.92781735E-01</totfact>
</mgrwt>
</event>
<event>
12    3  0.1182097E-007  0.6627343E+03  0.7818608E-02  0.9783173E-01
          1   -1    0    0  501    0  0.00000000000E+00  0.00000000000E+00  0.19746925484E+04  0.19746925484E+04  0.00000000000E+00 0. -1.
         -2   -1    0    0    0  501 -0.00000000000E+00 -0.00000000000E+00 -0.35155946240E+03  0.35155946240E+03  0.00000000000E+00 0.  1.
        -24    2    1    2    0    0  0.47491482383E+03  0.26337604645E+03  0.42484622083E+02  0.55046206947E+03  0.79325374717E+02 0.  0.
    5000000    2    1    2    0    0 -0.47491482383E+03 -0.26337604645E+03  0.15806484639E+04  0.17757899413E+04  0.60005776182E+03 0.  0.
        -24    2    4    4    0    0 -0.45824938415E+03  0.49051049244E+02  0.73954256488E+03  0.87491980966E+03  0.78504551255E+02 0.  0.
         24    2    4    4    0    0 -0.16665439677E+02 -0.31242709569E+03  0.84110589900E+03  0.90087013163E+03  0.78863386549E+02 0.  0.
         11    1    3    3    0    0  0.16771733668E+03  0.11335306854E+03  0.49971601138E+02  0.20850703607E+03  0.00000000000E+00 0. -1.
        -12    1    3    3    0    0  0.30719748714E+03  0.15002297791E+03 -0.74869790550E+01  0.34195503339E+03  0.00000000000E+00 0.  1.
         15    1    5    5    0    0 -0.28216593358E+03  0.18067576562E+02  0.51887834038E+03  0.59091618800E+03  0.17770000000E+01 0. -1.
        -16    1    5    5    0    0 -0.17608345057E+03  0.30983472682E+02  0.22066422449E+03  0.28400362166E+03  0.00000000000E+00 0.  1.
          2    1    6    6  502    0  0.23652692682E+02 -0.70457025216E+02  0.25201238662E+03  0.26274300235E+03  0.00000000000E+00 0. -1.
         -1    1    6    6    0  502 -0.40318132359E+02 -0.24197007048E+03  0.58909351237E+03  0.63812712928E+03  0.00000000000E+00 0.  1.
<mgrwt>
<rscale>  0 0.66273429E+03</rscale>
<asrwt>0</asrwt>
<pdfrwt beam="1">  1        1 0.30379885E+00 0.66273429E+03</pdfrwt>
<pdfrwt beam="2">  1       -2 0.54086072E-01 0.66273429E+03</pdfrwt>
<totfact> 0.92513560E+00</totfact>
</mgrwt>
</event>
<event>
12    3  0.1182097E-007  0.1088288E+04  0.7818608E-02  0.9216682E-01
          1   -1    0    0  501    0  0.00000000000E+00  0.00000000000E+00  0.27076534086E+04  0.27076534086E+04  0.00000000000E+00 0. -1.
         -2   -1    0    0    0  501 -0.00000000000E+00 -0.00000000000E+00 -0.50672939067E+03  0.50672939067E+03  0.00000000000E+00 0.  1.
        -24    2    1    2    0    0  0.36667149275E+03  0.98674208051E+03  0.62664580487E+03  0.12277608751E+04  0.81264289058E+02 0.  0.
    5000000    2    1    2    0    0 -0.36667149275E+03 -0.98674208051E+03  0.15742782131E+04  0.19866219242E+04  0.60017235889E+03 0.  0.
        -24    2    4    4    0    0 -0.18242942962E+02 -0.60205820182E+03  0.11911294434E+04  0.13368055984E+04  0.73844251839E+02 0.  0.
         24    2    4    4    0    0 -0.34842854979E+03 -0.38468387869E+03  0.38314876966E+03  0.64981632579E+03  0.77936748356E+02 0.  0.
         13    1    3    3    0    0  0.22245507348E+03  0.66828098092E+03  0.45282370287E+03  0.83733806498E+03  0.00000000000E+00 0. -1.
        -14    1    3    3    0    0  0.14421641927E+03  0.31846109959E+03  0.17382210200E+03  0.39042281015E+03  0.00000000000E+00 0.  1.
         15    1    5    5    0    0 -0.21440409350E+02 -0.50567251415E+03  0.10532371060E+04  0.11685358112E+04  0.17770000000E+01 0. -1.
        -16    1    5    5    0    0  0.31974663873E+01 -0.96385687673E+02  0.13789233738E+03  0.16826978721E+03  0.00000000000E+00 0.  1.
          4    1    6    6  502    0 -0.47742933996E+02 -0.36932636111E+02  0.75453827283E+02  0.96626535736E+02  0.00000000000E+00 0. -1.
         -3    1    6    6    0  502 -0.30068561579E+03 -0.34775124258E+03  0.30769494238E+03  0.55318979006E+03  0.00000000000E+00 0.  1.
<mgrwt>
<rscale>  0 0.10882885E+04</rscale>
<asrwt>0</asrwt>
<pdfrwt beam="1">  1        1 0.41656205E+00 0.10882885E+04</pdfrwt>
<pdfrwt beam="2">  1       -2 0.77958369E-01 0.10882885E+04</pdfrwt>
<totfact> 0.12540065E+00</totfact>
</mgrwt>
</event>
<event>
12    3  0.1182097E-007  0.1796516E+04  0.7818608E-02  0.8708154E-01
          1   -1    0    0  501    0  0.00000000000E+00  0.00000000000E+00  0.21626831134E+04  0.21626831134E+04  0.00000000000E+00 0. -1.
         -2   -1    0    0    0  501 -0.00000000000E+00 -0.00000000000E+00 -0.20645889053E+04  0.20645889053E+04  0.00000000000E+00 0.  1.
        -24    2    1    2    0    0  0.10022247769E+04 -0.14430630678E+04 -0.10470519063E+04  0.20459199213E+04  0.50843967808E+02 0.  0.
    5000000    2    1    2    0    0 -0.10022247769E+04  0.14430630678E+04  0.11451461143E+04  0.21813520973E+04  0.60004318874E+03 0.  0.
        -24    2    4    4    0    0  0.60686559586E+02  0.11607810862E+03  0.73793230823E+02  0.17014055602E+03  0.79657906513E+02 0.  0.
         24    2    4    4    0    0 -0.10629113365E+04  0.13269849592E+04  0.10713528835E+04  0.20112115413E+04  0.80655265574E+02 0.  0.
         11    1    3    3    0    0  0.20636236921E+03 -0.26344828105E+03 -0.19309710679E+03  0.38636371060E+03  0.00000000000E+00 0. -1.
        -12    1    3    3    0    0  0.79586240771E+03 -0.11796147867E+04 -0.85395479946E+03  0.16595562107E+04  0.00000000000E+00 0.  1.
         15    1    5    5    0    0  0.19205760318E+02  0.72025564443E+02 -0.19097220768E+00  0.74563646384E+02  0.17770000000E+01 0. -1.
        -16    1    5    5    0    0  0.41480799268E+02  0.44052544181E+02  0.73984203031E+02  0.95576909632E+02  0.00000000000E+00 0.  1.
          4    1    6    6  502    0 -0.39356362532E+03  0.47528020666E+03  0.43338602095E+03  0.75406037237E+03  0.00000000000E+00 0. -1.
         -3    1    6    6    0  502 -0.66934771118E+03  0.85170475252E+03  0.63796686254E+03  0.12571511690E+04  0.00000000000E+00 0.  1.
<mgrwt>
<rscale>  0 0.17965162E+04</rscale>
<asrwt>0</asrwt>
<pdfrwt beam="1">  1        1 0.33272048E+00 0.17965162E+04</pdfrwt>
<pdfrwt beam="2">  1       -2 0.31762906E+00 0.17965162E+04</pdfrwt>
<totfact> 0.45521682E-02</totfact>
</mgrwt>
</event>
<event>
12    3  0.1182097E-007  0.3076709E+03  0.7818608E-02  0.1081468E+00
          1   -1    0    0  501    0  0.00000000000E+00  0.00000000000E+00  0.78208332010E+03  0.78208332010E+03  0.00000000000E+00 0. -1.
         -2   -1    0    0    0  501 -0.00000000000E+00 -0.00000000000E+00 -0.22497869348E+03  0.22497869348E+03  0.00000000000E+00 0.  1.
        -24    2    1    2    0    0  0.67971098561E+02 -0.17139648776E+03  0.19428627746E+03  0.28204201120E+03  0.88338622448E+02 0.  0.
    5000000    2    1    2    0    0 -0.67971098561E+02  0.17139648776E+03  0.36281834916E+03  0.72502000238E+03  0.60001668569E+03 0.  0.
        -24    2    4    4    0    0  0.44747453502E+01  0.27743542817E+03 -0.42922154866E+02  0.29202700691E+03  0.80293344901E+02 0.  0.
         24    2    4    4    0    0 -0.72445843911E+02 -0.10603894041E+03  0.40574050403E+03  0.43299299548E+03  0.79780450871E+02 0.  0.
         11    1    3    3    0    0  0.40492147150E+02 -0.67864253882E+02  0.14276715925E+03  0.16317975578E+03  0.00000000000E+00 0. -1.
        -12    1    3    3    0    0  0.27478951411E+02 -0.10353223388E+03  0.51519118212E+02  0.11886225542E+03  0.00000000000E+00 0.  1.
         15    1    5    5    0    0 -0.96526079427E+01  0.44549989804E+02 -0.36836483950E+02  0.58634108763E+02  0.17770000000E+01 0. -1.
        -16    1    5    5    0    0  0.14127353293E+02  0.23288543836E+03 -0.60856709158E+01  0.23339289814E+03  0.00000000000E+00 0.  1.
          4    1    6    6  502    0 -0.20239147414E+02  0.10330409491E+02  0.80263617979E+02  0.83418156413E+02  0.00000000000E+00 0. -1.
         -3    1    6    6    0  502 -0.52206696497E+02 -0.11636934990E+03  0.32547688605E+03  0.34957483906E+03  0.00000000000E+00 0.  1.
<mgrwt>
<rscale>  0 0.30767090E+03</rscale>
<asrwt>0</asrwt>
<pdfrwt beam="1">  1        1 0.12032051E+00 0.30767090E+03</pdfrwt>
<pdfrwt beam="2">  1       -2 0.34612107E-01 0.30767090E+03</pdfrwt>
<totfact> 0.16534675E+02</totfact>
</mgrwt>
</event>
<event>
12    3  0.1182097E-007  0.7811736E+03  0.7818608E-02  0.9587675E-01
          1   -1    0    0  501    0  0.00000000000E+00  0.00000000000E+00  0.10216871852E+04  0.10216871852E+04  0.00000000000E+00 0. -1.
         -2   -1    0    0    0  501 -0.00000000000E+00 -0.00000000000E+00 -0.83539277646E+03  0.83539277646E+03  0.00000000000E+00 0.  1.
        -24    2    1    2    0    0  0.43561811376E+03  0.58523661356E+03  0.46920783740E+03  0.87115096875E+03  0.80516959706E+02 0.  0.
    5000000    2    1    2    0    0 -0.43561811376E+03 -0.58523661356E+03 -0.28291342864E+03  0.98592899293E+03  0.59979241085E+03 0.  0.
        -24    2    4    4    0    0  0.62466375133E+02 -0.46545132184E+02  0.10316424286E+03  0.15296767582E+03  0.81778673788E+02 0.  0.
         24    2    4    4    0    0 -0.49808448890E+03 -0.53869148138E+03 -0.38607767150E+03  0.83296131712E+03  0.80572434463E+02 0.  0.
         13    1    3    3    0    0  0.21674300665E+03  0.34046411224E+03  0.29082565580E+03  0.49746648603E+03  0.00000000000E+00 0. -1.
        -14    1    3    3    0    0  0.21887510712E+03  0.24477250132E+03  0.17838218160E+03  0.37368448273E+03  0.00000000000E+00 0.  1.
         15    1    5    5    0    0  0.51554125952E+01 -0.34677809060E+02  0.84557065085E+02  0.91554266449E+02  0.17770000000E+01 0. -1.
        -16    1    5    5    0    0  0.57310962538E+02 -0.11867323124E+02  0.18607177779E+02  0.61413409367E+02  0.00000000000E+00 0.  1.
          2    1    6    6  502    0 -0.32896470157E+03 -0.30744550954E+03 -0.21144824629E+03  0.49744434570E+03  0.00000000000E+00 0. -1.
         -1    1    6    6    0  502 -0.16911978733E+03 -0.23124597184E+03 -0.17462942521E+03  0.33551697142E+03  0.00000000000E+00 0.  1.
<mgrwt>
<rscale>  0 0.78117358E+03</rscale>
<asrwt>0</asrwt>
<pdfrwt beam="1">  1        1 0.15718264E+00 0.78117358E+03</pdfrwt>
<pdfrwt beam="2">  1       -2 0.12852197E+00 0.78117358E+03</pdfrwt>
<totfact> 0.58244441E+00</totfact>
</mgrwt>
</event>
<event>
12    3  0.1182097E-007  0.4405411E+03  0.7818608E-02  0.1030581E+00
         -2   -1    0    0    0  501 -0.00000000000E+00  0.00000000000E+00  0.21080203121E+03  0.21080203121E+03  0.00000000000E+00 0.  1.
          1   -1    0    0  501    0  0.00000000000E+00 -0.00000000000E+00 -0.19843667687E+04  0.19843667687E+04  0.00000000000E+00 0. -1.
        -24    2    1    2    0    0  0.38353148053E+03  0.13419057729E+03 -0.19385242208E+03  0.45731360827E+03  0.80333474784E+02 0.  0.
    5000000    2    1    2    0    0 -0.38353148053E+03 -0.13419057729E+03 -0.15797123154E+04  0.17378551916E+04  0.59962168081E+03 0.  0.
        -24    2    4    4    0    0 -0.34243601550E+02 -0.87294848584E+02 -0.68145904346E+01  0.12395158151E+03  0.80774631417E+02 0.  0.
         24    2    4    4    0    0 -0.34928787898E+03 -0.46895728702E+02 -0.15728977249E+04  0.16139036101E+04  0.80475945523E+02 0.  0.
         13    1    3    3    0    0  0.21878147873E+03  0.11657931284E+03 -0.12821974943E+03  0.27909922207E+03  0.00000000000E+00 0. -1.
        -14    1    3    3    0    0  0.16475000180E+03  0.17611264451E+02 -0.65632672655E+02  0.17821438620E+03  0.00000000000E+00 0.  1.
         15    1    5    5    0    0 -0.40442345600E+02 -0.16735916809E+02  0.20079014261E+02  0.48187122468E+02  0.17770000000E+01 0. -1.
        -16    1    5    5    0    0  0.61987440497E+01 -0.70558931775E+02 -0.26893604695E+02  0.75764459046E+02  0.00000000000E+00 0.  1.
          2    1    6    6  502    0 -0.25232299896E+03 -0.41749494918E+02 -0.96579065742E+03  0.99908033215E+03  0.00000000000E+00 0. -1.
         -1    1    6    6    0  502 -0.96964880022E+02 -0.51462337846E+01 -0.60710706752E+03  0.61482327795E+03  0.00000000000E+00 0.  1.
<mgrwt>
<rscale>  0 0.44054106E+03</rscale>
<asrwt>0</asrwt>
<pdfrwt beam="1">  1        1 0.30528720E+00 0.44054106E+03</pdfrwt>
<pdfrwt beam="2">  1       -2 0.32431081E-01 0.44054106E+03</pdfrwt>
<totfact> 0.25919557E+01</totfact>
</mgrwt>
</event>
<event>
12    3  0.1182097E-007  0.6603846E+03  0.7818608E-02  0.9787486E-01
         -2   -1    0    0    0  501 -0.00000000000E+00  0.00000000000E+00  0.85686921018E+03  0.85686921018E+03  0.00000000000E+00 0.  1.
          1   -1    0    0  501    0  0.00000000000E+00 -0.00000000000E+00 -0.96590875725E+03  0.96590875725E+03  0.00000000000E+00 0. -1.
        -24    2    1    2    0    0 -0.61049368449E+03 -0.35814620231E+02  0.48066825328E+03  0.78266960624E+03  0.86859179073E+02 0.  0.
    5000000    2    1    2    0    0  0.61049368449E+03  0.35814620231E+02 -0.58970780036E+03  0.10401083612E+04  0.60007073532E+03 0.  0.
        -24    2    4    4    0    0  0.16351670660E+03  0.15915274850E+03  0.45799615450E+02  0.24889298889E+03  0.88220204326E+02 0.  0.
         24    2    4    4    0    0  0.44697697789E+03 -0.12333812826E+03 -0.63550741581E+03  0.79121537230E+03  0.84565815593E+02 0.  0.
         13    1    3    3    0    0 -0.31287712550E+03  0.23593616410E+02  0.22977493839E+03  0.38890265711E+03  0.00000000000E+00 0. -1.
        -14    1    3    3    0    0 -0.29761655899E+03 -0.59408236641E+02  0.25089331490E+03  0.39376694913E+03  0.00000000000E+00 0.  1.
         15    1    5    5    0    0  0.11069739981E+03  0.62339645921E+02 -0.56840965093E+01  0.12718338123E+03  0.17770000000E+01 0. -1.
        -16    1    5    5    0    0  0.52819306790E+02  0.96813102575E+02  0.51483711959E+02  0.12170960766E+03  0.00000000000E+00 0.  1.
          4    1    6    6  502    0  0.14795256853E+02  0.45314777258E+01 -0.49945114635E+02  0.52287172343E+02  0.00000000000E+00 0. -1.
         -3    1    6    6    0  502  0.43218172104E+03 -0.12786960599E+03 -0.58556230118E+03  0.73892819996E+03  0.00000000000E+00 0.  1.
<mgrwt>
<rscale>  0 0.66038456E+03</rscale>
<asrwt>0</asrwt>
<pdfrwt beam="1">  1        1 0.14860135E+00 0.66038456E+03</pdfrwt>
<pdfrwt beam="2">  1       -2 0.13182603E+00 0.66038456E+03</pdfrwt>
<totfact> 0.61348299E+00</totfact>
</mgrwt>
</event>
<event>
12    3  0.1182097E-007  0.5526822E+03  0.7818608E-02  0.1000875E+00
         -2   -1    0    0    0  501 -0.00000000000E+00  0.00000000000E+00  0.61922018702E+03  0.61922018702E+03  0.00000000000E+00 0.  1.
          1   -1    0    0  501    0  0.00000000000E+00 -0.00000000000E+00 -0.77194094216E+03  0.77194094216E+03  0.00000000000E+00 0. -1.
        -24    2    1    2    0    0  0.67235874837E+02  0.53097270139E+03  0.96071420984E+02  0.54948385622E+03  0.79057686675E+02 0.  0.
    5000000    2    1    2    0    0 -0.67235874837E+02 -0.53097270139E+03 -0.24879217612E+03  0.84167727297E+03  0.60005867416E+03 0.  0.
        -24    2    4    4    0    0  0.41642526993E+02 -0.21100088789E+03  0.17891007605E+03  0.29082920242E+03  0.79481664051E+02 0.  0.
         24    2    4    4    0    0 -0.10887840183E+03 -0.31997181350E+03 -0.42770225217E+03  0.55084807055E+03  0.79170149018E+02 0.  0.
         13    1    3    3    0    0 -0.17677542187E+02  0.83528532338E+02  0.20795059242E+02  0.87874602139E+02  0.00000000000E+00 0. -1.
        -14    1    3    3    0    0  0.84913417023E+02  0.44744416906E+03  0.75276361742E+02  0.46160925408E+03  0.00000000000E+00 0.  1.
         15    1    5    5    0    0  0.43950857352E+02 -0.57564165977E+02  0.81613863926E+02  0.10912970073E+03  0.17770000000E+01 0. -1.
        -16    1    5    5    0    0 -0.23083303591E+01 -0.15343672191E+03  0.97296212127E+02  0.18169950169E+03  0.00000000000E+00 0.  1.
          4    1    6    6  502    0 -0.38362237671E+02 -0.14549015239E+03 -0.25133101520E+03  0.29292716658E+03  0.00000000000E+00 0. -1.
         -3    1    6    6    0  502 -0.70516164158E+02 -0.17448166111E+03 -0.17637123697E+03  0.25792090397E+03  0.00000000000E+00 0.  1.
<mgrwt>
<rscale>  0 0.55268215E+03</rscale>
<asrwt>0</asrwt>
<pdfrwt beam="1">  1        1 0.11876014E+00 0.55268215E+03</pdfrwt>
<pdfrwt beam="2">  1       -2 0.95264645E-01 0.55268215E+03</pdfrwt>
<totfact> 0.19818645E+01</totfact>
</mgrwt>
</event>
<event>
12    3  0.1182097E-007  0.6578311E+03  0.7818608E-02  0.9792195E-01
         -2   -1    0    0    0  501 -0.00000000000E+00  0.00000000000E+00  0.43278811124E+03  0.43278811124E+03  0.00000000000E+00 0.  1.
          1   -1    0    0  501    0  0.00000000000E+00 -0.00000000000E+00 -0.15688604270E+04  0.15688604270E+04  0.00000000000E+00 0. -1.
        -24    2    1    2    0    0  0.45098396423E+03  0.44338475628E+03 -0.96346288760E+02  0.64481919903E+03  0.80824587784E+02 0.  0.
    5000000    2    1    2    0    0 -0.45098396423E+03 -0.44338475628E+03 -0.10397260270E+04  0.13568293392E+04  0.59998255512E+03 0.  0.
        -24    2    4    4    0    0 -0.26409073441E+03 -0.38154714419E+03 -0.23888567074E+03  0.52828601016E+03  0.81838900292E+02 0.  0.
         24    2    4    4    0    0 -0.18689322982E+03 -0.61837612090E+02 -0.80084035627E+03  0.82854332907E+03  0.79911215088E+02 0.  0.
         13    1    3    3    0    0  0.23033516124E+03  0.18939035856E+03 -0.14475632580E+02  0.29855072995E+03  0.00000000000E+00 0. -1.
        -14    1    3    3    0    0  0.22064880299E+03  0.25399439772E+03 -0.81870656180E+02  0.34626846908E+03  0.00000000000E+00 0.  1.
         15    1    5    5    0    0 -0.25996488209E+03 -0.34417908830E+03 -0.23298472965E+03  0.49023058526E+03  0.17770000000E+01 0. -1.
        -16    1    5    5    0    0 -0.41258523158E+01 -0.37368055891E+02 -0.59009410935E+01  0.38055424899E+02  0.00000000000E+00 0.  1.
          4    1    6    6  502    0 -0.19140788948E+03 -0.47720343500E+02 -0.73114415662E+03  0.75728857716E+03  0.00000000000E+00 0. -1.
         -3    1    6    6    0  502  0.45146596579E+01 -0.14117268590E+02 -0.69696199652E+02  0.71254751913E+02  0.00000000000E+00 0.  1.
<mgrwt>
<rscale>  0 0.65783109E+03</rscale>
<asrwt>0</asrwt>
<pdfrwt beam="1">  1        1 0.24136314E+00 0.65783109E+03</pdfrwt>
<pdfrwt beam="2">  1       -2 0.66582788E-01 0.65783109E+03</pdfrwt>
<totfact> 0.11166110E+01</totfact>
</mgrwt>
</event>
<event>
12    3  0.1182097E-007  0.8134754E+03  0.7818608E-02  0.9540714E-01
         -4   -1    0    0    0  501 -0.00000000000E+00  0.00000000000E+00  0.28054513081E+03  0.28054513081E+03  0.00000000000E+00 0.  1.
          1   -1    0    0  501    0  0.00000000000E+00 -0.00000000000E+00 -0.24732868460E+04  0.24732868460E+04  0.00000000000E+00 0. -1.
        -24    2    1    2    0    0 -0.62398326495E+03 -0.34815998351E+03 -0.77822651768E+03  0.10592089345E+04  0.75607969891E+02 0.  0.
    5000000    2    1    2    0    0  0.62398326495E+03  0.34815998351E+03 -0.14145151975E+04  0.16946230422E+04  0.60026954142E+03 0.  0.
        -24    2    4    4    0    0  0.40756261734E+03  0.49715540435E+03 -0.86964589493E+03  0.10843610732E+04  0.79272765315E+02 0.  0.
         24    2    4    4    0    0  0.21642064761E+03 -0.14899542084E+03 -0.54486930254E+03  0.61026196907E+03  0.80619984419E+02 0.  0.
         13    1    3    3    0    0 -0.27420641073E+03 -0.12331457476E+03 -0.28736746588E+03  0.41590347496E+03  0.00000000000E+00 0. -1.
        -14    1    3    3    0    0 -0.34977685422E+03 -0.22484540875E+03 -0.49085905179E+03  0.64330545957E+03  0.00000000000E+00 0.  1.
         15    1    5    5    0    0  0.30324314273E+03  0.31135127460E+03 -0.58744994316E+03  0.73075071896E+03  0.17770000000E+01 0. -1.
        -16    1    5    5    0    0  0.10431947461E+03  0.18580412975E+03 -0.28219595177E+03  0.35361035422E+03  0.00000000000E+00 0.  1.
          2    1    6    6  502    0  0.16741309782E+03 -0.11685553173E+03 -0.33451591518E+03  0.39189699939E+03  0.00000000000E+00 0. -1.
         -1    1    6    6    0  502  0.49007549795E+02 -0.32139889113E+02 -0.21035338736E+03  0.21836496968E+03  0.00000000000E+00 0.  1.
<mgrwt>
<rscale>  0 0.81347542E+03</rscale>
<asrwt>0</asrwt>
<pdfrwt beam="1">  1        1 0.38050566E+00 0.81347542E+03</pdfrwt>
<pdfrwt beam="2">  1       -4 0.43160790E-01 0.81347542E+03</pdfrwt>
<totfact> 0.37292760E+00</totfact>
</mgrwt>
</event>
<event>
12    3  0.1182097E-007  0.3430281E+03  0.7818608E-02  0.1065513E+00
         -2   -1    0    0    0  501 -0.00000000000E+00  0.00000000000E+00  0.12720623507E+04  0.12720623507E+04  0.00000000000E+00 0.  1.
          1   -1    0    0  501    0  0.00000000000E+00 -0.00000000000E+00 -0.11090635679E+03  0.11090635679E+03  0.00000000000E+00 0. -1.
        -24    2    1    2    0    0  0.15216656175E+02  0.11185439982E+03  0.18436967440E+03  0.23109972043E+03  0.81682008801E+02 0.  0.
    5000000    2    1    2    0    0 -0.15216656175E+02 -0.11185439982E+03  0.97678631954E+03  0.11518689871E+04  0.59995641172E+03 0.  0.
        -24    2    4    4    0    0 -0.13727941383E+03 -0.30269011794E+03  0.39421511233E+03  0.52156140508E+03  0.78446156859E+02 0.  0.
         24    2    4    4    0    0  0.12206275765E+03  0.19083571812E+03  0.58257120721E+03  0.63030758199E+03  0.81122428016E+02 0.  0.
         11    1    3    3    0    0 -0.56902022131E+01  0.37305619762E+02  0.81300651270E+01  0.38602922506E+02  0.00000000000E+00 0. -1.
        -12    1    3    3    0    0  0.20906858388E+02  0.74548780060E+02  0.17623960927E+03  0.19249679792E+03  0.00000000000E+00 0.  1.
         15    1    5    5    0    0 -0.66547068764E+02 -0.21668617041E+03  0.22813526125E+03  0.32160575860E+03  0.17770000000E+01 0. -1.
        -16    1    5    5    0    0 -0.70732345062E+02 -0.86003947539E+02  0.16607985107E+03  0.19995564649E+03  0.00000000000E+00 0.  1.
          2    1    6    6  502    0 -0.13420646404E+01  0.30508553987E+02  0.14564275109E+03  0.14880989197E+03  0.00000000000E+00 0. -1.
         -1    1    6    6    0  502  0.12340482229E+03  0.16032716414E+03  0.43692845612E+03  0.48149769002E+03  0.00000000000E+00 0.  1.
<mgrwt>
<rscale>  0 0.34302812E+03</rscale>
<asrwt>0</asrwt>
<pdfrwt beam="1">  1        1 0.17062517E-01 0.34302812E+03</pdfrwt>
<pdfrwt beam="2">  1       -2 0.19570189E+00 0.34302812E+03</pdfrwt>
<totfact> 0.42170487E+01</totfact>
</mgrwt>
</event>
<event>
12    3  0.1182097E-007  0.4472280E+03  0.7818608E-02  0.1028552E+00
         -4   -1    0    0    0  501 -0.00000000000E+00  0.00000000000E+00  0.17185278111E+03  0.17185278111E+03  0.00000000000E+00 0.  1.
          3   -1    0    0  501    0  0.00000000000E+00 -0.00000000000E+00 -0.13226259808E+04  0.13226259808E+04  0.00000000000E+00 0. -1.
        -24    2    1    2    0    0  0.22073978393E+03 -0.14372450320E+03 -0.20408930847E+03  0.34280090159E+03  0.80481223084E+02 0.  0.
    5000000    2    1    2    0    0 -0.22073978393E+03  0.14372450320E+03 -0.94668389121E+03  0.11516778603E+04  0.60064025760E+03 0.  0.
        -24    2    4    4    0    0 -0.17347226212E+03  0.36252609935E+03 -0.50752175247E+03  0.65226686973E+03  0.79724159990E+02 0.  0.
         24    2    4    4    0    0 -0.47267521805E+02 -0.21880159615E+03 -0.43916213875E+03  0.49941099059E+03  0.80247095416E+02 0.  0.
         11    1    3    3    0    0  0.14870849233E+03 -0.81897210430E+02 -0.17428861635E+03  0.24330616629E+03  0.00000000000E+00 0. -1.
        -12    1    3    3    0    0  0.72031291599E+02 -0.61827292767E+02 -0.29800692121E+02  0.99494735294E+02  0.00000000000E+00 0.  1.
         15    1    5    5    0    0 -0.37694906596E+01  0.12548110658E+00  0.18043399958E+01  0.45429260572E+01  0.17770000000E+01 0. -1.
        -16    1    5    5    0    0 -0.16970277146E+03  0.36240061824E+03 -0.50932609246E+03  0.64772394367E+03  0.00000000000E+00 0.  1.
          2    1    6    6  502    0 -0.68028841612E+01 -0.68834664810E+01  0.47458564004E+00  0.96895085137E+01  0.00000000000E+00 0. -1.
         -1    1    6    6    0  502 -0.40464637644E+02 -0.21191812967E+03 -0.43963672439E+03  0.48972148208E+03  0.00000000000E+00 0.  1.
<mgrwt>
<rscale>  0 0.44722796E+03</rscale>
<asrwt>0</asrwt>
<pdfrwt beam="1">  1        3 0.20348092E+00 0.44722796E+03</pdfrwt>
<pdfrwt beam="2">  1       -4 0.26438889E-01 0.44722796E+03</pdfrwt>
<totfact> 0.44008918E+00</totfact>
</mgrwt>
</event>
<event>
12    3  0.1182097E-007  0.7536958E+03  0.7818608E-02  0.9629570E-01
         -2   -1    0    0    0  501 -0.00000000000E+00  0.00000000000E+00  0.43804396791E+03  0.43804396791E+03  0.00000000000E+00 0.  1.
          1   -1    0    0  501    0  0.00000000000E+00 -0.00000000000E+00 -0.19615196868E+04  0.19615196868E+04  0.00000000000E+00 0. -1.
        -24    2    1    2    0    0  0.43319867065E+03  0.48187931963E+03 -0.17020120736E+02  0.65329813628E+03  0.81486216094E+02 0.  0.
    5000000    2    1    2    0    0 -0.43319867065E+03 -0.48187931963E+03 -0.15064555981E+04  0.17462655184E+04  0.60013833795E+03 0.  0.
        -24    2    4    4    0    0 -0.38437916548E+03 -0.12747382934E+02 -0.54011876149E+03  0.66804624053E+03  0.81533210040E+02 0.  0.
         24    2    4    4    0    0 -0.48819505169E+02 -0.46913193670E+03 -0.96633683664E+03  0.10782192779E+04  0.79257877968E+02 0.  0.
         11    1    3    3    0    0  0.24737761940E+03  0.27084984666E+03  0.30683955127E+02  0.36809894202E+03  0.00000000000E+00 0. -1.
        -12    1    3    3    0    0  0.18582105125E+03  0.21102947297E+03 -0.47704075863E+02  0.28519919426E+03  0.00000000000E+00 0.  1.
         15    1    5    5    0    0 -0.27265004949E+03 -0.31085810250E+02 -0.42998847248E+03  0.51009569816E+03  0.17770000000E+01 0. -1.
        -16    1    5    5    0    0 -0.11172911599E+03  0.18338427316E+02 -0.11013028901E+03  0.15795054237E+03  0.00000000000E+00 0.  1.
          2    1    6    6  502    0 -0.18579517414E+02 -0.22069790888E+03 -0.54311444448E+03  0.58653735197E+03  0.00000000000E+00 0. -1.
         -1    1    6    6    0  502 -0.30239987755E+02 -0.24843402782E+03 -0.42322239215E+03  0.49168192590E+03  0.00000000000E+00 0.  1.
<mgrwt>
<rscale>  0 0.75369583E+03</rscale>
<asrwt>0</asrwt>
<pdfrwt beam="1">  1        1 0.30177226E+00 0.75369583E+03</pdfrwt>
<pdfrwt beam="2">  1       -2 0.67391380E-01 0.75369583E+03</pdfrwt>
<totfact> 0.58438217E+00</totfact>
</mgrwt>
</event>
<event>
12    3  0.1182097E-007  0.1343499E+04  0.7818608E-02  0.8995764E-01
          3   -1    0    0  501    0  0.00000000000E+00  0.00000000000E+00  0.94067809489E+03  0.94067809489E+03  0.00000000000E+00 0. -1.
         -4   -1    0    0    0  501 -0.00000000000E+00 -0.00000000000E+00 -0.19478739086E+04  0.19478739086E+04  0.00000000000E+00 0.  1.
        -24    2    1    2    0    0  0.66373180888E+03  0.10943021292E+04 -0.34617781239E+03  0.13282593651E+04  0.79979991409E+02 0.  0.
    5000000    2    1    2    0    0 -0.66373180888E+03 -0.10943021292E+04 -0.66101800131E+03  0.15602926384E+04  0.59960925213E+03 0.  0.
        -24    2    4    4    0    0  0.82761710957E+02 -0.27242341156E+03 -0.18890562016E+03  0.35119056334E+03  0.81150862497E+02 0.  0.
         24    2    4    4    0    0 -0.74649351984E+03 -0.82187871766E+03 -0.47211238115E+03  0.12091020751E+04  0.79375851320E+02 0.  0.
         13    1    3    3    0    0  0.35777735788E+03  0.60303777229E+03 -0.23020503348E+03  0.73800647020E+03  0.00000000000E+00 0. -1.
        -14    1    3    3    0    0  0.30595445100E+03  0.49126435693E+03 -0.11597277891E+03  0.59025289489E+03  0.00000000000E+00 0.  1.
         15    1    5    5    0    0  0.66413401163E+01 -0.15564652037E+03 -0.11304453520E+03  0.19248940586E+03  0.17770000000E+01 0. -1.
        -16    1    5    5    0    0  0.76120370841E+02 -0.11677689118E+03 -0.75861084960E+02  0.15870115747E+03  0.00000000000E+00 0.  1.
          4    1    6    6  502    0 -0.56708423545E+03 -0.66070517707E+03 -0.34579705553E+03  0.93685189049E+03  0.00000000000E+00 0. -1.
         -3    1    6    6    0  502 -0.17940928438E+03 -0.16117354059E+03 -0.12631532562E+03  0.27225018457E+03  0.00000000000E+00 0.  1.
<mgrwt>
<rscale>  0 0.13434988E+04</rscale>
<asrwt>0</asrwt>
<pdfrwt beam="1">  1        3 0.14471971E+00 0.13434988E+04</pdfrwt>
<pdfrwt beam="2">  1       -4 0.29967291E+00 0.13434988E+04</pdfrwt>
<totfact> 0.23716133E-02</totfact>
</mgrwt>
</event>
<event>
12    3  0.1182097E-007  0.7888358E+03  0.7818608E-02  0.9576319E-01
          1   -1    0    0  501    0  0.00000000000E+00  0.00000000000E+00  0.32335814739E+03  0.32335814739E+03  0.00000000000E+00 0. -1.
         -2   -1    0    0    0  501 -0.00000000000E+00 -0.00000000000E+00 -0.23314688869E+04  0.23314688869E+04  0.00000000000E+00 0.  1.
        -24    2    1    2    0    0 -0.71480768180E+03  0.17590544495E+03 -0.11893186140E+04  0.14009776509E+04  0.79792638968E+02 0.  0.
    5000000    2    1    2    0    0  0.71480768180E+03 -0.17590544495E+03 -0.81879212554E+03  0.12538493834E+04  0.59985413552E+03 0.  0.
        -24    2    4    4    0    0  0.28819284970E+03 -0.27345315098E+03 -0.11523512806E+03  0.42117979691E+03  0.79256180747E+02 0.  0.
         24    2    4    4    0    0  0.42661483209E+03  0.97547706026E+02 -0.70355699748E+03  0.83266958650E+03  0.82646365075E+02 0.  0.
         11    1    3    3    0    0 -0.19513237423E+03  0.84933871934E+02 -0.33434527962E+03  0.39632962554E+03  0.00000000000E+00 0. -1.
        -12    1    3    3    0    0 -0.51967530757E+03  0.90971573017E+02 -0.85497333433E+03  0.10046480253E+04  0.00000000000E+00 0.  1.
         15    1    5    5    0    0  0.16868922333E+03 -0.14179319258E+03 -0.10213330163E+03  0.24289037149E+03  0.17770000000E+01 0. -1.
        -16    1    5    5    0    0  0.11950362637E+03 -0.13165995840E+03 -0.13101826424E+02  0.17828942542E+03  0.00000000000E+00 0.  1.
          2    1    6    6  502    0  0.95413424398E+01 -0.31354823074E+01 -0.49045362057E+02  0.50063120200E+02  0.00000000000E+00 0. -1.
         -1    1    6    6    0  502  0.41707348965E+03  0.10068318833E+03 -0.65451163542E+03  0.78260646630E+03  0.00000000000E+00 0.  1.
<mgrwt>
<rscale>  0 0.78883576E+03</rscale>
<asrwt>0</asrwt>
<pdfrwt beam="1">  1        1 0.49747411E-01 0.78883576E+03</pdfrwt>
<pdfrwt beam="2">  1       -2 0.35868750E+00 0.78883576E+03</pdfrwt>
<totfact> 0.10020529E+00</totfact>
</mgrwt>
</event>
<event>
12    3  0.1182097E-007  0.7751717E+03  0.7818608E-02  0.9596667E-01
         -2   -1    0    0    0  501 -0.00000000000E+00  0.00000000000E+00  0.27654466835E+03  0.27654466835E+03  0.00000000000E+00 0.  1.
          1   -1    0    0  501    0  0.00000000000E+00 -0.00000000000E+00 -0.26544022674E+04  0.26544022674E+04  0.00000000000E+00 0. -1.
        -24    2    1    2    0    0  0.34091057325E+02  0.73993151462E+03 -0.85101262308E+03  0.11310363645E+04  0.79749147822E+02 0.  0.
    5000000    2    1    2    0    0 -0.34091057325E+02 -0.73993151462E+03 -0.15268449760E+04  0.17999105713E+04  0.59980133171E+03 0.  0.
        -24    2    4    4    0    0 -0.61247203027E+02 -0.43084190928E+02 -0.72705915489E+03  0.73529933681E+03  0.80266011594E+02 0.  0.
         24    2    4    4    0    0  0.27156145702E+02 -0.69684732369E+03 -0.79978582112E+03  0.10646112345E+04  0.86058539542E+02 0.  0.
         11    1    3    3    0    0  0.10549464852E+02  0.64055506642E+03 -0.70195744868E+03  0.95035064270E+03  0.00000000000E+00 0. -1.
        -12    1    3    3    0    0  0.23541592473E+02  0.99376448196E+02 -0.14905517440E+03  0.18068572176E+03  0.00000000000E+00 0.  1.
         15    1    5    5    0    0 -0.80251875654E+02 -0.37643615162E+02 -0.54420893489E+03  0.55138364852E+03  0.17770000000E+01 0. -1.
        -16    1    5    5    0    0  0.19004672627E+02 -0.54405757667E+01 -0.18285022000E+03  0.18391568829E+03  0.00000000000E+00 0.  1.
          4    1    6    6  502    0 -0.10439416598E+02 -0.36952121547E+03 -0.47577392348E+03  0.60250787245E+03  0.00000000000E+00 0. -1.
         -3    1    6    6    0  502  0.37595562300E+02 -0.32732610823E+03 -0.32401189763E+03  0.46210336207E+03  0.00000000000E+00 0.  1.
<mgrwt>
<rscale>  0 0.77517169E+03</rscale>
<asrwt>0</asrwt>
<pdfrwt beam="1">  1        1 0.40836958E+00 0.77517169E+03</pdfrwt>
<pdfrwt beam="2">  1       -2 0.42545334E-01 0.77517169E+03</pdfrwt>
<totfact> 0.51174350E+00</totfact>
</mgrwt>
</event>
<event>
12    3  0.1182097E-007  0.4176484E+03  0.7818608E-02  0.1037834E+00
          1   -1    0    0  501    0  0.00000000000E+00  0.00000000000E+00  0.37939341947E+03  0.37939341947E+03  0.00000000000E+00 0. -1.
         -4   -1    0    0    0  501 -0.00000000000E+00 -0.00000000000E+00 -0.54841860605E+03  0.54841860605E+03  0.00000000000E+00 0.  1.
        -24    2    1    2    0    0  0.18754400903E+02 -0.23819625817E+03 -0.12301992828E+03  0.28035002084E+03  0.79831362716E+02 0.  0.
    5000000    2    1    2    0    0 -0.18754400903E+02  0.23819625817E+03 -0.46005258306E+02  0.64746200468E+03  0.60000114896E+03 0.  0.
        -24    2    4    4    0    0 -0.17631975605E+03 -0.10293655650E+03 -0.12910215801E+03  0.25426751299E+03  0.79372601830E+02 0.  0.
         24    2    4    4    0    0  0.15756535515E+03  0.34113281466E+03  0.83096899701E+02  0.39319449169E+03  0.80612500080E+02 0.  0.
         13    1    3    3    0    0 -0.22085626184E+02 -0.10781418950E+03 -0.26885437535E+02  0.11328945711E+03  0.00000000000E+00 0. -1.
        -14    1    3    3    0    0  0.40840027087E+02 -0.13038206867E+03 -0.96134490742E+02  0.16706056373E+03  0.00000000000E+00 0.  1.
         15    1    5    5    0    0 -0.31818349193E+02 -0.47226866428E+02 -0.65596658773E+02  0.86884196660E+02  0.17770000000E+01 0. -1.
        -16    1    5    5    0    0 -0.14450140686E+03 -0.55709690070E+02 -0.63505499233E+02  0.16738331633E+03  0.00000000000E+00 0.  1.
          2    1    6    6  502    0  0.11367021301E+03  0.27306847344E+03  0.32179692603E+02  0.29752788295E+03  0.00000000000E+00 0. -1.
         -1    1    6    6    0  502  0.43895142143E+02  0.68064341220E+02  0.50917207098E+02  0.95666608742E+02  0.00000000000E+00 0.  1.
<mgrwt>
<rscale>  0 0.41764841E+03</rscale>
<asrwt>0</asrwt>
<pdfrwt beam="1">  1        1 0.58368218E-01 0.41764841E+03</pdfrwt>
<pdfrwt beam="2">  1       -4 0.84372093E-01 0.41764841E+03</pdfrwt>
<totfact> 0.38136953E+01</totfact>
</mgrwt>
</event>
<event>
12    3  0.1182097E-007  0.1235902E+04  0.7818608E-02  0.9081999E-01
         -2   -1    0    0    0  501 -0.00000000000E+00  0.00000000000E+00  0.89743714454E+03  0.89743714454E+03  0.00000000000E+00 0.  1.
          1   -1    0    0  501    0  0.00000000000E+00 -0.00000000000E+00 -0.23110238894E+04  0.23110238894E+04  0.00000000000E+00 0. -1.
        -24    2    1    2    0    0 -0.97432422616E+03 -0.68942085267E+03 -0.14404998009E+04  0.18724238429E+04  0.79514536280E+02 0.  0.
    5000000    2    1    2    0    0  0.97432422616E+03  0.68942085267E+03  0.26913056058E+02  0.13360371910E+04  0.59971847834E+03 0.  0.
        -24    2    4    4    0    0  0.70814169970E+02 -0.66129154789E+02  0.88592345534E+02  0.15394710092E+03  0.80395238754E+02 0.  0.
         24    2    4    4    0    0  0.90351005619E+03  0.75555000746E+03 -0.61679289476E+02  0.11820900900E+04  0.79664363405E+02 0.  0.
         11    1    3    3    0    0 -0.74104142523E+03 -0.54256331534E+03 -0.11536143027E+04  0.14745654629E+04  0.00000000000E+00 0. -1.
        -12    1    3    3    0    0 -0.23328280093E+03 -0.14685753733E+03 -0.28688549823E+03  0.39785838005E+03  0.00000000000E+00 0.  1.
         15    1    5    5    0    0  0.88886734931E+01 -0.15880337678E+02 -0.14693179887E+02  0.23457214358E+02  0.17770000000E+01 0. -1.
        -16    1    5    5    0    0  0.61925496477E+02 -0.50248817110E+02  0.10328552542E+03  0.13048988657E+03  0.00000000000E+00 0.  1.
          2    1    6    6  502    0  0.70732563805E+03  0.55443247594E+03 -0.28437653509E+02  0.89917385903E+03  0.00000000000E+00 0. -1.
         -1    1    6    6    0  502  0.19618441814E+03  0.20111753152E+03 -0.33241635966E+02  0.28291623100E+03  0.00000000000E+00 0.  1.
<mgrwt>
<rscale>  0 0.12359025E+04</rscale>
<asrwt>0</asrwt>
<pdfrwt beam="1">  1        1 0.35554213E+00 0.12359025E+04</pdfrwt>
<pdfrwt beam="2">  1       -2 0.13806726E+00 0.12359025E+04</pdfrwt>
<totfact> 0.58332139E-01</totfact>
</mgrwt>
</event>
<event>
12    3  0.1182097E-007  0.5002344E+03  0.7818608E-02  0.1013718E+00
         -2   -1    0    0    0  501 -0.00000000000E+00  0.00000000000E+00  0.14260951435E+03  0.14260951435E+03  0.00000000000E+00 0.  1.
          1   -1    0    0  501    0  0.00000000000E+00 -0.00000000000E+00 -0.23659233526E+04  0.23659233526E+04  0.00000000000E+00 0. -1.
        -24    2    1    2    0    0 -0.39013945150E+03 -0.41003809762E+02 -0.11516453720E+04  0.12192136014E+04  0.79401756287E+02 0.  0.
    5000000    2    1    2    0    0  0.39013945150E+03  0.41003809762E+02 -0.10716684663E+04  0.12893192656E+04  0.59998396894E+03 0.  0.
        -24    2    4    4    0    0  0.29583644771E+03 -0.18974290062E+03 -0.92172652589E+03  0.98977320992E+03  0.80929885773E+02 0.  0.
         24    2    4    4    0    0  0.94303003794E+02  0.23074671038E+03 -0.14994194039E+03  0.29954605568E+03  0.71471344666E+02 0.  0.
         13    1    3    3    0    0 -0.21045230204E+03 -0.35731793814E+02 -0.51022827593E+03  0.55308211514E+03  0.00000000000E+00 0. -1.
        -14    1    3    3    0    0 -0.17968714946E+03 -0.52720159472E+01 -0.64141709607E+03  0.66613148624E+03  0.00000000000E+00 0.  1.
         15    1    5    5    0    0  0.25389576978E+03 -0.18552132923E+03 -0.85337820249E+03  0.90947168165E+03  0.17770000000E+01 0. -1.
        -16    1    5    5    0    0  0.41940677932E+02 -0.42215713911E+01 -0.68348323401E+02  0.80301528268E+02  0.00000000000E+00 0.  1.
          2    1    6    6  502    0  0.62844259538E+02  0.11947074532E+03 -0.11871586373E+03  0.17976683856E+03  0.00000000000E+00 0. -1.
         -1    1    6    6    0  502  0.31458744256E+02  0.11127596506E+03 -0.31226076659E+02  0.11977921712E+03  0.00000000000E+00 0.  1.
<mgrwt>
<rscale>  0 0.50023437E+03</rscale>
<asrwt>0</asrwt>
<pdfrwt beam="1">  1        1 0.36398822E+00 0.50023437E+03</pdfrwt>
<pdfrwt beam="2">  1       -2 0.21939924E-01 0.50023437E+03</pdfrwt>
<totfact> 0.28974568E+01</totfact>
</mgrwt>
</event>
<event>
12    3  0.1182097E-007  0.1065975E+04  0.7818608E-02  0.9239005E-01
          1   -1    0    0  501    0  0.00000000000E+00  0.00000000000E+00  0.12229043618E+04  0.12229043618E+04  0.00000000000E+00 0. -1.
         -2   -1    0    0    0  501 -0.00000000000E+00 -0.00000000000E+00 -0.10725704506E+04  0.10725704506E+04  0.00000000000E+00 0.  1.
        -24    2    1    2    0    0  0.10333376334E+04 -0.15882671020E+03 -0.13472217007E+03  0.10568168264E+04  0.75492734661E+02 0.  0.
    5000000    2    1    2    0    0 -0.10333376334E+04  0.15882671020E+03  0.28505608133E+03  0.12386579860E+04  0.60000337348E+03 0.  0.
        -24    2    4    4    0    0 -0.75941750677E+03  0.60163305394E+01 -0.59287160486E+02  0.76592540672E+03  0.79847451022E+02 0.  0.
         24    2    4    4    0    0 -0.27392012663E+03  0.15281037966E+03  0.34434324181E+03  0.47273257923E+03  0.80750079762E+02 0.  0.
         11    1    3    3    0    0  0.10823647274E+03 -0.25131346771E+02 -0.36505278332E+02  0.11695877038E+03  0.00000000000E+00 0. -1.
        -12    1    3    3    0    0  0.92510116066E+03 -0.13369536343E+03 -0.98216891738E+02  0.93985805603E+03  0.00000000000E+00 0.  1.
         15    1    5    5    0    0 -0.29260945394E+03 -0.29982104147E+02 -0.44533989816E+02  0.29749899678E+03  0.17770000000E+01 0. -1.
        -16    1    5    5    0    0 -0.46680805283E+03  0.35998434686E+02 -0.14753170670E+02  0.46842640995E+03  0.00000000000E+00 0.  1.
          2    1    6    6  502    0 -0.19109676849E+03  0.62068837746E+02  0.20773655852E+03  0.28900690873E+03  0.00000000000E+00 0. -1.
         -1    1    6    6    0  502 -0.82823358137E+02  0.90741541911E+02  0.13660668330E+03  0.18372567051E+03  0.00000000000E+00 0.  1.
<mgrwt>
<rscale>  0 0.10659747E+04</rscale>
<asrwt>0</asrwt>
<pdfrwt beam="1">  1        1 0.18813913E+00 0.10659747E+04</pdfrwt>
<pdfrwt beam="2">  1       -2 0.16501084E+00 0.10659747E+04</pdfrwt>
<totfact> 0.20639913E+00</totfact>
</mgrwt>
</event>
<event>
12    3  0.1182097E-007  0.9945542E+03  0.7818608E-02  0.9314538E-01
         -2   -1    0    0    0  501 -0.00000000000E+00  0.00000000000E+00  0.14270523228E+04  0.14270523228E+04  0.00000000000E+00 0.  1.
          1   -1    0    0  501    0  0.00000000000E+00 -0.00000000000E+00 -0.10426083214E+04  0.10426083214E+04  0.00000000000E+00 0. -1.
        -24    2    1    2    0    0  0.89249837898E+03 -0.15535053945E+03 -0.52740016443E+03  0.10512334144E+04  0.79079779609E+02 0.  0.
    5000000    2    1    2    0    0 -0.89249837898E+03  0.15535053945E+03  0.91184416584E+03  0.14184272297E+04  0.59982403802E+03 0.  0.
        -24    2    4    4    0    0 -0.45641227243E+03  0.37030569132E+03  0.47428539117E+03  0.75943742709E+03  0.79750272307E+02 0.  0.
         24    2    4    4    0    0 -0.43608610655E+03 -0.21495515186E+03  0.43755877467E+03  0.65898980261E+03  0.80206415109E+02 0.  0.
         13    1    3    3    0    0  0.84400619569E+03 -0.16146659036E+03 -0.48629894849E+03  0.98737256670E+03  0.00000000000E+00 0. -1.
        -14    1    3    3    0    0  0.48492183294E+02  0.61160509074E+01 -0.41101215938E+02  0.63860847716E+02  0.00000000000E+00 0.  1.
         15    1    5    5    0    0 -0.14806372138E+03  0.16983963278E+03  0.17746332849E+03  0.28681833473E+03  0.17770000000E+01 0. -1.
        -16    1    5    5    0    0 -0.30834855105E+03  0.20046605853E+03  0.29682206269E+03  0.47261909236E+03  0.00000000000E+00 0.  1.
          4    1    6    6  502    0 -0.52313536167E+02 -0.40935421416E+02  0.30459016947E+02  0.73076442895E+02  0.00000000000E+00 0. -1.
         -3    1    6    6    0  502 -0.38377257038E+03 -0.17401973045E+03  0.40709975772E+03  0.58591335972E+03  0.00000000000E+00 0.  1.
<mgrwt>
<rscale>  0 0.99455424E+03</rscale>
<asrwt>0</asrwt>
<pdfrwt beam="1">  1        1 0.16040128E+00 0.99455424E+03</pdfrwt>
<pdfrwt beam="2">  1       -2 0.21954651E+00 0.99455424E+03</pdfrwt>
<totfact> 0.12218841E+00</totfact>
</mgrwt>
</event>
<event>
12    3  0.1182097E-007  0.1469550E+04  0.7818608E-02  0.8904958E-01
         -2   -1    0    0    0  501 -0.00000000000E+00  0.00000000000E+00  0.16315398047E+04  0.16315398047E+04  0.00000000000E+00 0.  1.
          1   -1    0    0  501    0  0.00000000000E+00 -0.00000000000E+00 -0.14959114760E+04  0.14959114760E+04  0.00000000000E+00 0. -1.
        -24    2    1    2    0    0 -0.25970510936E+03  0.14210885144E+04  0.48258666259E+03  0.15251881093E+04  0.79809600005E+02 0.  0.
    5000000    2    1    2    0    0  0.25970510936E+03 -0.14210885144E+04 -0.34695833384E+03  0.16022631714E+04  0.59993989300E+03 0.  0.
        -24    2    4    4    0    0  0.12521754161E+02 -0.10063935927E+04 -0.12988586319E+02  0.10097479413E+04  0.80233058495E+02 0.  0.
         24    2    4    4    0    0  0.24718335520E+03 -0.41469492167E+03 -0.33396974752E+03  0.59251523009E+03  0.80417762183E+02 0.  0.
         13    1    3    3    0    0 -0.66319827627E+02  0.24947671212E+03  0.11044715901E+03  0.28077664497E+03  0.00000000000E+00 0. -1.
        -14    1    3    3    0    0 -0.19338528174E+03  0.11716118023E+04  0.37213950358E+03  0.12444114643E+04  0.00000000000E+00 0.  1.
         15    1    5    5    0    0 -0.29526535672E+02 -0.20278332664E+03 -0.55191558057E+01  0.20500368944E+03  0.17770000000E+01 0. -1.
        -16    1    5    5    0    0  0.42048289833E+02 -0.80361026610E+03 -0.74694305129E+01  0.80474425183E+03  0.00000000000E+00 0.  1.
          2    1    6    6  502    0  0.94656808524E+02 -0.19012296101E+03 -0.19130358403E+03  0.28583861350E+03  0.00000000000E+00 0. -1.
         -1    1    6    6    0  502  0.15252654668E+03 -0.22457196066E+03 -0.14266616349E+03  0.30667661659E+03  0.00000000000E+00 0.  1.
<mgrwt>
<rscale>  0 0.14695499E+04</rscale>
<asrwt>0</asrwt>
<pdfrwt beam="1">  1        1 0.23014023E+00 0.14695499E+04</pdfrwt>
<pdfrwt beam="2">  1       -2 0.25100612E+00 0.14695499E+04</pdfrwt>
<totfact> 0.34581045E-01</totfact>
</mgrwt>
</event>
<event>
12    3  0.1182097E-007  0.9967918E+03  0.7818608E-02  0.9312070E-01
         -2   -1    0    0    0  501 -0.00000000000E+00  0.00000000000E+00  0.13073202184E+04  0.13073202184E+04  0.00000000000E+00 0.  1.
          1   -1    0    0  501    0  0.00000000000E+00 -0.00000000000E+00 -0.76317875822E+03  0.76317875822E+03  0.00000000000E+00 0. -1.
        -24    2    1    2    0    0 -0.90678336742E+03 -0.82799916623E+01  0.24497538793E+03  0.94264258094E+03  0.78977598216E+02 0.  0.
    5000000    2    1    2    0    0  0.90678336742E+03  0.82799916623E+01  0.29916607226E+03  0.11278563957E+04  0.60019586539E+03 0.  0.
        -24    2    4    4    0    0  0.86352253979E+03 -0.17175509691E+03  0.27043463362E+03  0.92435769884E+03  0.78302454015E+02 0.  0.
         24    2    4    4    0    0  0.43260827628E+02  0.18003508857E+03  0.28731438643E+02  0.20349869686E+03  0.79385714918E+02 0.  0.
         13    1    3    3    0    0 -0.33792990893E+03  0.28312823679E+02  0.68937052895E+02  0.34604993367E+03  0.00000000000E+00 0. -1.
        -14    1    3    3    0    0 -0.56885345849E+03 -0.36592815341E+02  0.17603833504E+03  0.59659264727E+03  0.00000000000E+00 0.  1.
         15    1    5    5    0    0  0.29508349224E+03 -0.96547156557E+02  0.99135387135E+02  0.32592422975E+03  0.17770000000E+01 0. -1.
        -16    1    5    5    0    0  0.56843904755E+03 -0.75207940350E+02  0.17129924649E+03  0.59843346909E+03  0.00000000000E+00 0.  1.
          2    1    6    6  502    0 -0.13521328970E+02  0.19665286430E+01 -0.28199943279E+01  0.13951556904E+02  0.00000000000E+00 0. -1.
         -1    1    6    6    0  502  0.56782156598E+02  0.17806855993E+03  0.31551432971E+02  0.18954713995E+03  0.00000000000E+00 0.  1.
<mgrwt>
<rscale>  0 0.99679182E+03</rscale>
<asrwt>0</asrwt>
<pdfrwt beam="1">  1        1 0.11741212E+00 0.99679182E+03</pdfrwt>
<pdfrwt beam="2">  1       -2 0.20112619E+00 0.99679182E+03</pdfrwt>
<totfact> 0.27237040E+00</totfact>
</mgrwt>
</event>
<event>
12    3  0.1182097E-007  0.1416567E+04  0.7818608E-02  0.8941913E-01
         -2   -1    0    0    0  501 -0.00000000000E+00  0.00000000000E+00  0.17313320659E+04  0.17313320659E+04  0.00000000000E+00 0.  1.
          1   -1    0    0  501    0  0.00000000000E+00 -0.00000000000E+00 -0.19684428761E+04  0.19684428761E+04  0.00000000000E+00 0. -1.
        -24    2    1    2    0    0 -0.63821732933E+03  0.12333731587E+04 -0.12573978980E+04  0.18751495947E+04  0.81276198532E+02 0.  0.
    5000000    2    1    2    0    0  0.63821732933E+03 -0.12333731587E+04  0.10202870878E+04  0.18246253473E+04  0.59978430167E+03 0.  0.
        -24    2    4    4    0    0  0.57542040742E+03 -0.71939605382E+03  0.89309918529E+03  0.12856063027E+04  0.80734646924E+02 0.  0.
         24    2    4    4    0    0  0.62796921905E+02 -0.51397710487E+03  0.12718790250E+03  0.53901904463E+03  0.79049669199E+02 0.  0.
         11    1    3    3    0    0 -0.43790145035E+03  0.78641056110E+03 -0.77703862050E+03  0.11891123869E+04  0.00000000000E+00 0. -1.
        -12    1    3    3    0    0 -0.20031587898E+03  0.44696259758E+03 -0.48035927755E+03  0.68603720784E+03  0.00000000000E+00 0.  1.
         15    1    5    5    0    0  0.32480692244E+03 -0.34149895752E+03  0.45588706014E+03  0.65571125062E+03  0.17770000000E+01 0. -1.
        -16    1    5    5    0    0  0.25061348499E+03 -0.37789709629E+03  0.43721212515E+03  0.62989505207E+03  0.00000000000E+00 0.  1.
          2    1    6    6  502    0  0.80346829507E+01 -0.21271215136E+02 -0.97096528579E+01  0.24724443009E+02  0.00000000000E+00 0. -1.
         -1    1    6    6    0  502  0.54762238954E+02 -0.49270588973E+03  0.13689755536E+03  0.51429460162E+03  0.00000000000E+00 0.  1.
<mgrwt>
<rscale>  0 0.14165666E+04</rscale>
<asrwt>0</asrwt>
<pdfrwt beam="1">  1        1 0.30283737E+00 0.14165666E+04</pdfrwt>
<pdfrwt beam="2">  1       -2 0.26635878E+00 0.14165666E+04</pdfrwt>
<totfact> 0.13300843E-01</totfact>
</mgrwt>
</event>
<event>
12    3  0.1182097E-007  0.2774798E+03  0.7818608E-02  0.1097073E+00
         -2   -1    0    0    0  501 -0.00000000000E+00  0.00000000000E+00  0.30683230602E+03  0.30683230602E+03  0.00000000000E+00 0.  1.
          1   -1    0    0  501    0  0.00000000000E+00 -0.00000000000E+00 -0.90269248326E+03  0.90269248326E+03  0.00000000000E+00 0. -1.
        -24    2    1    2    0    0 -0.16953004696E+03 -0.20230248176E+03 -0.46573752981E+03  0.54130792394E+03  0.80225250974E+02 0.  0.
    5000000    2    1    2    0    0  0.16953004696E+03  0.20230248176E+03 -0.13012264742E+03  0.66821686534E+03  0.59992928317E+03 0.  0.
        -24    2    4    4    0    0  0.10176374601E+03  0.76186431884E+02 -0.35752192212E+03  0.38788672234E+03  0.80460873513E+02 0.  0.
         24    2    4    4    0    0  0.67766300951E+02  0.12611604988E+03  0.22739927470E+03  0.28033014300E+03  0.79856304446E+02 0.  0.
         11    1    3    3    0    0 -0.98522057141E+02 -0.99959682583E+02 -0.17028592736E+03  0.22067131881E+03  0.00000000000E+00 0. -1.
        -12    1    3    3    0    0 -0.71007989822E+02 -0.10234279918E+03 -0.29545160245E+03  0.32063660513E+03  0.00000000000E+00 0.  1.
         15    1    5    5    0    0  0.70493673347E+02  0.27235626473E+02 -0.10887077671E+03  0.13254109205E+03  0.17770000000E+01 0. -1.
        -16    1    5    5    0    0  0.31270072665E+02  0.48950805412E+02 -0.24865114541E+03  0.25534563029E+03  0.00000000000E+00 0.  1.
          4    1    6    6  502    0  0.96958273015E+01  0.84177355302E+02  0.80402494247E+02  0.11680923463E+03  0.00000000000E+00 0. -1.
         -3    1    6    6    0  502  0.58070473649E+02  0.41938694575E+02  0.14699678045E+03  0.16352090837E+03  0.00000000000E+00 0.  1.
<mgrwt>
<rscale>  0 0.27747984E+03</rscale>
<asrwt>0</asrwt>
<pdfrwt beam="1">  1        1 0.13887577E+00 0.27747984E+03</pdfrwt>
<pdfrwt beam="2">  1       -2 0.47204969E-01 0.27747984E+03</pdfrwt>
<totfact> 0.72855525E+01</totfact>
</mgrwt>
</event>
<event>
12    3  0.1182097E-007  0.7329213E+03  0.7818608E-02  0.9662532E-01
          1   -1    0    0  501    0  0.00000000000E+00  0.00000000000E+00  0.13071972017E+04  0.13071972017E+04  0.00000000000E+00 0. -1.
         -2   -1    0    0    0  501 -0.00000000000E+00 -0.00000000000E+00 -0.66987751931E+03  0.66987751931E+03  0.00000000000E+00 0.  1.
        -24    2    1    2    0    0  0.36539656492E+03  0.54235517175E+03 -0.26595211196E+03  0.71070676107E+03  0.81913322514E+02 0.  0.
    5000000    2    1    2    0    0 -0.36539656492E+03 -0.54235517175E+03  0.90327179435E+03  0.12663679599E+04  0.60010340236E+03 0.  0.
        -24    2    4    4    0    0  0.56251007516E+02 -0.33370134769E+03  0.15909813004E+03  0.38237182398E+03  0.79845046778E+02 0.  0.
         24    2    4    4    0    0 -0.42164757244E+03 -0.20865382406E+03  0.74417366431E+03  0.88399613597E+03  0.79571553422E+02 0.  0.
         13    1    3    3    0    0  0.32482547871E+03  0.45587252491E+03 -0.19911322542E+03  0.59411903448E+03  0.00000000000E+00 0. -1.
        -14    1    3    3    0    0  0.40571086207E+02  0.86482646832E+02 -0.66838886534E+02  0.11658772659E+03  0.00000000000E+00 0.  1.
         15    1    5    5    0    0  0.10408847564E+02 -0.16191326828E+03  0.11590072931E+03  0.19940006854E+03  0.17770000000E+01 0. -1.
        -16    1    5    5    0    0  0.45842159953E+02 -0.17178807941E+03  0.43197400730E+02  0.18297175543E+03  0.00000000000E+00 0.  1.
          4    1    6    6  502    0 -0.20004788559E+03 -0.95184808016E+02  0.42431681676E+03  0.47866905602E+03  0.00000000000E+00 0. -1.
         -3    1    6    6    0  502 -0.22159968685E+03 -0.11346901604E+03  0.31985684755E+03  0.40532707994E+03  0.00000000000E+00 0.  1.
<mgrwt>
<rscale>  0 0.73292131E+03</rscale>
<asrwt>0</asrwt>
<pdfrwt beam="1">  1        1 0.20110726E+00 0.73292131E+03</pdfrwt>
<pdfrwt beam="2">  1       -2 0.10305808E+00 0.73292131E+03</pdfrwt>
<totfact> 0.62197621E+00</totfact>
</mgrwt>
</event>
<event>
12    3  0.1182097E-007  0.8065046E+03  0.7818608E-02  0.9550649E-01
         -4   -1    0    0    0  501 -0.00000000000E+00  0.00000000000E+00  0.63570205137E+03  0.63570205137E+03  0.00000000000E+00 0.  1.
          1   -1    0    0  501    0  0.00000000000E+00 -0.00000000000E+00 -0.13733008734E+04  0.13733008734E+04  0.00000000000E+00 0. -1.
        -24    2    1    2    0    0 -0.19807752072E+03  0.74997388913E+03  0.42337116096E+01  0.77954188623E+03  0.77279295276E+02 0.  0.
    5000000    2    1    2    0    0  0.19807752072E+03 -0.74997388913E+03 -0.74183253368E+03  0.12294610386E+04  0.59963605523E+03 0.  0.
        -24    2    4    4    0    0 -0.58215042958E+02 -0.23962123385E+03  0.35498237174E+02  0.26167494313E+03  0.80039515748E+02 0.  0.
         24    2    4    4    0    0  0.25629256368E+03 -0.51035265528E+03 -0.77733077085E+03  0.96778609544E+03  0.78873875648E+02 0.  0.
         13    1    3    3    0    0 -0.13133975534E+03  0.35712500317E+03  0.16601266779E+02  0.38087268382E+03  0.00000000000E+00 0. -1.
        -14    1    3    3    0    0 -0.66737765386E+02  0.39284888596E+03 -0.12367555170E+02  0.39866920241E+03  0.00000000000E+00 0.  1.
         15    1    5    5    0    0 -0.75354832220E+02 -0.16553067807E+03  0.37015061490E+02  0.18561257670E+03  0.17770000000E+01 0. -1.
        -16    1    5    5    0    0  0.17139789263E+02 -0.74090555773E+02 -0.15168243152E+01  0.76062366429E+02  0.00000000000E+00 0.  1.
          4    1    6    6  502    0  0.82390459216E+02 -0.94698335078E+02 -0.15438496105E+03  0.19897406523E+03  0.00000000000E+00 0. -1.
         -3    1    6    6    0  502  0.17390210447E+03 -0.41565432021E+03 -0.62294580980E+03  0.76881203020E+03  0.00000000000E+00 0.  1.
<mgrwt>
<rscale>  0 0.80650459E+03</rscale>
<asrwt>0</asrwt>
<pdfrwt beam="1">  1        1 0.21127706E+00 0.80650459E+03</pdfrwt>
<pdfrwt beam="2">  1       -4 0.97800316E-01 0.80650459E+03</pdfrwt>
<totfact> 0.34022594E+00</totfact>
</mgrwt>
</event>
<event>
12    3  0.1182097E-007  0.3059497E+03  0.7818608E-02  0.1082304E+00
          1   -1    0    0  501    0  0.00000000000E+00  0.00000000000E+00  0.81992526408E+03  0.81992526408E+03  0.00000000000E+00 0. -1.
         -2   -1    0    0    0  501 -0.00000000000E+00 -0.00000000000E+00 -0.26817151526E+03  0.26817151526E+03  0.00000000000E+00 0.  1.
        -24    2    1    2    0    0  0.19414562498E+03 -0.16020553245E+03  0.27343384904E+03  0.38044599608E+03  0.81331112141E+02 0.  0.
    5000000    2    1    2    0    0 -0.19414562498E+03  0.16020553245E+03  0.27831989978E+03  0.70765078326E+03  0.59995777194E+03 0.  0.
        -24    2    4    4    0    0  0.33915983962E+02  0.53913363748E+02 -0.16367961622E+03  0.19279918232E+03  0.79520834875E+02 0.  0.
         24    2    4    4    0    0 -0.22806160894E+03  0.10629216871E+03  0.44199951600E+03  0.51485160094E+03  0.79990476002E+02 0.  0.
         11    1    3    3    0    0  0.79698326388E+02 -0.86341941896E+02  0.18112813952E+03  0.21590311967E+03  0.00000000000E+00 0. -1.
        -12    1    3    3    0    0  0.11444729859E+03 -0.73863590558E+02  0.92305709525E+02  0.16454287640E+03  0.00000000000E+00 0.  1.
         15    1    5    5    0    0  0.47990224686E+02  0.62144493422E+01 -0.54986818813E+02  0.73269291099E+02  0.17770000000E+01 0. -1.
        -16    1    5    5    0    0 -0.14074240724E+02  0.47698914406E+02 -0.10869279741E+03  0.11952989122E+03  0.00000000000E+00 0.  1.
          4    1    6    6  502    0 -0.10342967988E+03  0.12781212633E+02  0.22221939804E+03  0.24544351477E+03  0.00000000000E+00 0. -1.
         -3    1    6    6    0  502 -0.12463192906E+03  0.93510956072E+02  0.21978011795E+03  0.26940808617E+03  0.00000000000E+00 0.  1.
<mgrwt>
<rscale>  0 0.30594965E+03</rscale>
<asrwt>0</asrwt>
<pdfrwt beam="1">  1        1 0.12614235E+00 0.30594965E+03</pdfrwt>
<pdfrwt beam="2">  1       -2 0.41257157E-01 0.30594965E+03</pdfrwt>
<totfact> 0.11004656E+02</totfact>
</mgrwt>
</event>
<event>
12    3  0.1182097E-007  0.1418388E+04  0.7818608E-02  0.8940615E-01
         -2   -1    0    0    0  501 -0.00000000000E+00  0.00000000000E+00  0.84348953102E+03  0.84348953102E+03  0.00000000000E+00 0.  1.
          1   -1    0    0  501    0  0.00000000000E+00 -0.00000000000E+00 -0.24392380780E+04  0.24392380780E+04  0.00000000000E+00 0. -1.
        -24    2    1    2    0    0 -0.12446029686E+04 -0.53803530883E+03 -0.99180465857E+03  0.16818274031E+04  0.79676784678E+02 0.  0.
    5000000    2    1    2    0    0  0.12446029686E+04  0.53803530883E+03 -0.60394388843E+03  0.16009002059E+04  0.59967883557E+03 0.  0.
        -24    2    4    4    0    0  0.76809602499E+03  0.62090280962E+03 -0.36259926407E+03  0.10547044881E+04  0.73698902499E+02 0.  0.
         24    2    4    4    0    0  0.47650694365E+03 -0.82867500795E+02 -0.24134462437E+03  0.54619571786E+03  0.78464287799E+02 0.  0.
         13    1    3    3    0    0 -0.98233828509E+03 -0.39925442943E+03 -0.74568085015E+03  0.12963149833E+04  0.00000000000E+00 0. -1.
        -14    1    3    3    0    0 -0.26226468355E+03 -0.13878087939E+03 -0.24612380842E+03  0.38551241977E+03  0.00000000000E+00 0.  1.
         15    1    5    5    0    0  0.28186467096E+03  0.18330869512E+03 -0.11894679609E+03  0.35665286831E+03  0.17770000000E+01 0. -1.
        -16    1    5    5    0    0  0.48623135403E+03  0.43759411450E+03 -0.24365246798E+03  0.69805161975E+03  0.00000000000E+00 0.  1.
          4    1    6    6  502    0  0.23587441485E+03 -0.34415906753E+01 -0.10198542340E+03  0.25700118815E+03  0.00000000000E+00 0. -1.
         -3    1    6    6    0  502  0.24063252880E+03 -0.79425910119E+02 -0.13935920097E+03  0.28919452970E+03  0.00000000000E+00 0.  1.
<mgrwt>
<rscale>  0 0.14183884E+04</rscale>
<asrwt>0</asrwt>
<pdfrwt beam="1">  1        1 0.37526739E+00 0.14183884E+04</pdfrwt>
<pdfrwt beam="2">  1       -2 0.12976762E+00 0.14183884E+04</pdfrwt>
<totfact> 0.54723603E-01</totfact>
</mgrwt>
</event>
<event>
12    3  0.1182097E-007  0.1360615E+04  0.7818608E-02  0.8982831E-01
         -2   -1    0    0    0  501 -0.00000000000E+00  0.00000000000E+00  0.99764304718E+03  0.99764304718E+03  0.00000000000E+00 0.  1.
          1   -1    0    0  501    0  0.00000000000E+00 -0.00000000000E+00 -0.20079952934E+04  0.20079952934E+04  0.00000000000E+00 0. -1.
        -24    2    1    2    0    0 -0.50811219278E+03 -0.12393954499E+04 -0.29954878365E+03  0.13748242109E+04  0.78313826207E+02 0.  0.
    5000000    2    1    2    0    0  0.50811219278E+03  0.12393954499E+04 -0.71080346255E+03  0.16308141297E+04  0.60002840063E+03 0.  0.
        -24    2    4    4    0    0  0.52447889570E+03  0.97658542368E+03 -0.76630464042E+03  0.13500244233E+04  0.80906982037E+02 0.  0.
         24    2    4    4    0    0 -0.16366702917E+02  0.26281002620E+03  0.55501177869E+02  0.28078970641E+03  0.80159214325E+02 0.  0.
         13    1    3    3    0    0 -0.99550605075E+02 -0.25359313007E+03 -0.93273944989E+02  0.28795803063E+03  0.00000000000E+00 0. -1.
        -14    1    3    3    0    0 -0.40856158771E+03 -0.98580231981E+03 -0.20627483867E+03  0.10868661802E+04  0.00000000000E+00 0.  1.
         15    1    5    5    0    0  0.33390655010E+02  0.79580035685E+02 -0.36706517859E+02  0.93800021876E+02  0.17770000000E+01 0. -1.
        -16    1    5    5    0    0  0.49108824069E+03  0.89700538799E+03 -0.72959812256E+03  0.12562244014E+04  0.00000000000E+00 0.  1.
          2    1    6    6  502    0  0.24435892927E+02  0.16422785157E+03  0.15164880348E+02  0.16672694350E+03  0.00000000000E+00 0. -1.
         -3    1    6    6    0  502 -0.40802595844E+02  0.98582174638E+02  0.40336297521E+02  0.11406276291E+03  0.00000000000E+00 0.  1.
<mgrwt>
<rscale>  0 0.13606152E+04</rscale>
<asrwt>0</asrwt>
<pdfrwt beam="1">  1        1 0.30892235E+00 0.13606152E+04</pdfrwt>
<pdfrwt beam="2">  1       -2 0.15348355E+00 0.13606152E+04</pdfrwt>
<totfact> 0.69826814E-01</totfact>
</mgrwt>
</event>
<event>
12    3  0.1182097E-007  0.2235619E+03  0.7818608E-02  0.1131255E+00
          1   -1    0    0  501    0  0.00000000000E+00  0.00000000000E+00  0.94031605477E+03  0.94031605477E+03  0.00000000000E+00 0. -1.
         -2   -1    0    0    0  501 -0.00000000000E+00 -0.00000000000E+00 -0.22921854271E+03  0.22921854271E+03  0.00000000000E+00 0.  1.
        -24    2    1    2    0    0 -0.95145951124E+02 -0.16098427407E+03 -0.21426880047E+02  0.20439933430E+03  0.79694969491E+02 0.  0.
    5000000    2    1    2    0    0  0.95145951124E+02  0.16098427407E+03  0.73252439211E+03  0.96513526318E+03  0.59993783235E+03 0.  0.
        -24    2    4    4    0    0  0.61277491390E+02  0.35517878863E+02 -0.83812819848E+02  0.13566847154E+03  0.79780290351E+02 0.  0.
         24    2    4    4    0    0  0.33868459734E+02  0.12546639521E+03  0.81633721196E+03  0.82946679164E+03  0.68700989207E+02 0.  0.
         13    1    3    3    0    0 -0.64756991610E+02 -0.15783618887E+03 -0.28681730419E+02  0.17299818537E+03  0.00000000000E+00 0. -1.
        -14    1    3    3    0    0 -0.30388959514E+02 -0.31480851989E+01  0.72548503716E+01  0.31401148939E+02  0.00000000000E+00 0.  1.
         15    1    5    5    0    0  0.77985325191E+02  0.32467783033E+02 -0.50921586419E+02  0.98651069800E+02  0.17770000000E+01 0. -1.
        -16    1    5    5    0    0 -0.16707833801E+02  0.30500958293E+01 -0.32891233430E+02  0.37017401738E+02  0.00000000000E+00 0.  1.
          4    1    6    6  502    0  0.29832704314E+02  0.14004159933E+02  0.25816672871E+03  0.26026172702E+03  0.00000000000E+00 0. -1.
         -3    1    6    6    0  502  0.40357554202E+01  0.11146223527E+03  0.55817048325E+03  0.56920506462E+03  0.00000000000E+00 0.  1.
<mgrwt>
<rscale>  0 0.22356186E+03</rscale>
<asrwt>0</asrwt>
<pdfrwt beam="1">  1        1 0.14466401E+00 0.22356186E+03</pdfrwt>
<pdfrwt beam="2">  1       -2 0.35264392E-01 0.22356186E+03</pdfrwt>
<totfact> 0.12067848E+02</totfact>
</mgrwt>
</event>
<event>
12    3  0.1182097E-007  0.1440635E+04  0.7818608E-02  0.8924919E-01
          1   -1    0    0  501    0  0.00000000000E+00  0.00000000000E+00  0.21829187814E+04  0.21829187814E+04  0.00000000000E+00 0. -1.
         -2   -1    0    0    0  501 -0.00000000000E+00 -0.00000000000E+00 -0.11727911122E+04  0.11727911122E+04  0.00000000000E+00 0.  1.
        -24    2    1    2    0    0  0.16090747004E+03 -0.14071297470E+04 -0.15366050021E+03  0.14268538449E+04  0.79968784372E+02 0.  0.
    5000000    2    1    2    0    0 -0.16090747004E+03  0.14071297470E+04  0.11637881695E+04  0.19288560487E+04  0.60014782710E+03 0.  0.
        -24    2    4    4    0    0 -0.12146058374E+03  0.13928922053E+04  0.93817710348E+03  0.16856329116E+04  0.79250655685E+02 0.  0.
         24    2    4    4    0    0 -0.39446886298E+02  0.14237541765E+02  0.22561106598E+03  0.24322313707E+03  0.80612510678E+02 0.  0.
         13    1    3    3    0    0  0.15156308239E+02 -0.46028582561E+03 -0.45986431541E+02  0.46282556847E+03  0.00000000000E+00 0. -1.
        -14    1    3    3    0    0  0.14575116180E+03 -0.94684392141E+03 -0.10767406867E+03  0.96402827642E+03  0.00000000000E+00 0.  1.
         15    1    5    5    0    0 -0.37479634883E+02  0.85730906137E+03  0.56232381792E+03  0.10259604201E+04  0.17770000000E+01 0. -1.
        -16    1    5    5    0    0 -0.83980948856E+02  0.53558314389E+03  0.37585328556E+03  0.65967249151E+03  0.00000000000E+00 0.  1.
          2    1    6    6  502    0  0.48270267281E+01 -0.10649530139E+02  0.15914216358E+03  0.15957111552E+03  0.00000000000E+00 0. -1.
         -1    1    6    6    0  502 -0.44273913026E+02  0.24887071904E+02  0.66468902397E+02  0.83652021545E+02  0.00000000000E+00 0.  1.
<mgrwt>
<rscale>  0 0.14406352E+04</rscale>
<asrwt>0</asrwt>
<pdfrwt beam="1">  1        1 0.33583366E+00 0.14406352E+04</pdfrwt>
<pdfrwt beam="2">  1       -2 0.18042940E+00 0.14406352E+04</pdfrwt>
<totfact> 0.33549151E-01</totfact>
</mgrwt>
</event>
<event>
12    3  0.1182097E-007  0.4661304E+03  0.7818608E-02  0.1023018E+00
         -2   -1    0    0    0  501 -0.00000000000E+00  0.00000000000E+00  0.42244735800E+03  0.42244735800E+03  0.00000000000E+00 0.  1.
          1   -1    0    0  501    0  0.00000000000E+00 -0.00000000000E+00 -0.86304785122E+03  0.86304785122E+03  0.00000000000E+00 0. -1.
        -24    2    1    2    0    0 -0.27290949738E+03  0.35433206924E+03 -0.22367453073E+03  0.50616737019E+03  0.78385597509E+02 0.  0.
    5000000    2    1    2    0    0  0.27290949738E+03 -0.35433206924E+03 -0.21692596249E+03  0.77932783903E+03  0.60022012498E+03 0.  0.
        -24    2    4    4    0    0  0.25456871182E+03 -0.33316004722E+03 -0.39523580290E+03  0.58198317618E+03  0.81806059402E+02 0.  0.
         24    2    4    4    0    0  0.18340785560E+02 -0.21172022015E+02  0.17830984041E+03  0.19734466285E+03  0.79786451464E+02 0.  0.
         13    1    3    3    0    0 -0.23204454423E+03  0.33720692717E+03 -0.20816540708E+03  0.45922327788E+03  0.00000000000E+00 0. -1.
        -14    1    3    3    0    0 -0.40864953146E+02  0.17125142066E+02 -0.15509123649E+02  0.46944092310E+02  0.00000000000E+00 0.  1.
         15    1    5    5    0    0 -0.48625182554E+01 -0.12829284487E+02 -0.21525375898E+02  0.25587773658E+02  0.17770000000E+01 0. -1.
        -16    1    5    5    0    0  0.25943123007E+03 -0.32033076274E+03 -0.37371042700E+03  0.55639540252E+03  0.00000000000E+00 0.  1.
          2    1    6    6  502    0  0.19585142420E+02  0.95776522865E+01  0.64279565051E+01  0.22729448999E+02  0.00000000000E+00 0. -1.
         -1    1    6    6    0  502 -0.12443568605E+01 -0.30749674301E+02  0.17188188391E+03  0.17461521385E+03  0.00000000000E+00 0.  1.
<mgrwt>
<rscale>  0 0.46613040E+03</rscale>
<asrwt>0</asrwt>
<pdfrwt beam="1">  1        1 0.13277659E+00 0.46613040E+03</pdfrwt>
<pdfrwt beam="2">  1       -2 0.64991902E-01 0.46613040E+03</pdfrwt>
<totfact> 0.39362417E+01</totfact>
</mgrwt>
</event>
<event>
12    3  0.1182097E-007  0.2379969E+04  0.7818608E-02  0.8447041E-01
          1   -1    0    0  501    0  0.00000000000E+00  0.00000000000E+00  0.29333017872E+04  0.29333017872E+04  0.00000000000E+00 0. -1.
         -2   -1    0    0    0  501 -0.00000000000E+00 -0.00000000000E+00 -0.21314731503E+04  0.21314731503E+04  0.00000000000E+00 0.  1.
        -24    2    1    2    0    0  0.13272808828E+04 -0.19738784550E+04 -0.25499743442E+03  0.23936162203E+04  0.80648753816E+02 0.  0.
    5000000    2    1    2    0    0 -0.13272808828E+04  0.19738784550E+04  0.10568260713E+04  0.26711587172E+04  0.60028064292E+03 0.  0.
        -24    2    4    4    0    0 -0.64018220649E+03  0.94558189984E+03  0.19349981912E+03  0.11608351736E+04  0.78343687621E+02 0.  0.
         24    2    4    4    0    0 -0.68709867636E+03  0.10282965552E+04  0.86332625215E+03  0.15103235436E+04  0.79035386131E+02 0.  0.
         13    1    3    3    0    0  0.72697745316E+03 -0.10247932760E+04 -0.15994360224E+03  0.12666015284E+04  0.00000000000E+00 0. -1.
        -14    1    3    3    0    0  0.60030342968E+03 -0.94908517899E+03 -0.95053832177E+02  0.11270146919E+04  0.00000000000E+00 0.  1.
         15    1    5    5    0    0 -0.45901087252E+03  0.66357463193E+03  0.17177472696E+03  0.82494362703E+03  0.17770000000E+01 0. -1.
        -16    1    5    5    0    0 -0.18117133397E+03  0.28200726791E+03  0.21725092165E+02  0.33589154654E+03  0.00000000000E+00 0.  1.
          2    1    6    6  502    0 -0.41172342957E+03  0.67230005751E+03  0.52291998068E+03  0.94601736558E+03  0.00000000000E+00 0. -1.
         -1    1    6    6    0  502 -0.27537524679E+03  0.35599649765E+03  0.34040627147E+03  0.56430617801E+03  0.00000000000E+00 0.  1.
<mgrwt>
<rscale>  0 0.23799691E+04</rscale>
<asrwt>0</asrwt>
<pdfrwt beam="1">  1        1 0.45127720E+00 0.23799691E+04</pdfrwt>
<pdfrwt beam="2">  1       -2 0.32791895E+00 0.23799691E+04</pdfrwt>
<totfact> 0.10650311E-02</totfact>
</mgrwt>
</event>
<event>
12    3  0.1182097E-007  0.8301412E+03  0.7818608E-02  0.9517385E-01
          1   -1    0    0  501    0  0.00000000000E+00  0.00000000000E+00  0.14878056886E+04  0.14878056886E+04  0.00000000000E+00 0. -1.
         -2   -1    0    0    0  501 -0.00000000000E+00 -0.00000000000E+00 -0.68605557847E+03  0.68605557847E+03  0.00000000000E+00 0.  1.
        -24    2    1    2    0    0  0.72828850001E+03  0.29585115216E+02 -0.23645407604E+03  0.77066285099E+03  0.82044387577E+02 0.  0.
    5000000    2    1    2    0    0 -0.72828850001E+03 -0.29585115216E+02  0.10382041862E+04  0.14031984161E+04  0.59984868462E+03 0.  0.
        -24    2    4    4    0    0 -0.16006462588E+03 -0.26693738987E+03  0.31635268796E+03  0.45106089376E+03  0.80626621720E+02 0.  0.
         24    2    4    4    0    0 -0.56822387413E+03  0.23735227465E+03  0.72185149824E+03  0.95213752235E+03  0.79257823281E+02 0.  0.
         13    1    3    3    0    0  0.44327667752E+03  0.33609822029E+02 -0.10505282894E+03  0.45679309303E+03  0.00000000000E+00 0. -1.
        -14    1    3    3    0    0  0.28501182248E+03 -0.40247068131E+01 -0.13140124710E+03  0.31386975796E+03  0.00000000000E+00 0.  1.
         15    1    5    5    0    0 -0.70515620343E+02 -0.11503196566E+03  0.19448137364E+03  0.23670861467E+03  0.17770000000E+01 0. -1.
        -16    1    5    5    0    0 -0.89549005536E+02 -0.15190542421E+03  0.12187131432E+03  0.21435227909E+03  0.00000000000E+00 0.  1.
          4    1    6    6  502    0 -0.27412700233E+03  0.15072132864E+03  0.39720277351E+03  0.50560120213E+03  0.00000000000E+00 0. -1.
         -3    1    6    6    0  502 -0.29409687180E+03  0.86630946012E+02  0.32464872473E+03  0.44653632022E+03  0.00000000000E+00 0.  1.
<mgrwt>
<rscale>  0 0.83014124E+03</rscale>
<asrwt>0</asrwt>
<pdfrwt beam="1">  1        1 0.22889318E+00 0.83014124E+03</pdfrwt>
<pdfrwt beam="2">  1       -2 0.10554701E+00 0.83014124E+03</pdfrwt>
<totfact> 0.43392551E+00</totfact>
</mgrwt>
</event>
<event>
12    3  0.1182097E-007  0.5154387E+03  0.7818608E-02  0.1009826E+00
         -2   -1    0    0    0  501 -0.00000000000E+00  0.00000000000E+00  0.17917742197E+03  0.17917742197E+03  0.00000000000E+00 0.  1.
          1   -1    0    0  501    0  0.00000000000E+00 -0.00000000000E+00 -0.16406874123E+04  0.16406874123E+04  0.00000000000E+00 0. -1.
        -24    2    1    2    0    0  0.28518596931E+03  0.19797132079E+03 -0.72919867129E+03  0.81148950597E+03  0.79125439350E+02 0.  0.
    5000000    2    1    2    0    0 -0.28518596931E+03 -0.19797132079E+03 -0.73231131908E+03  0.10083753283E+04  0.60001437797E+03 0.  0.
        -24    2    4    4    0    0 -0.32868100312E+03  0.11916510879E+03 -0.43351801205E+03  0.56293203414E+03  0.81994410282E+02 0.  0.
         24    2    4    4    0    0  0.43495033813E+02 -0.31713642959E+03 -0.29879330703E+03  0.44544329419E+03  0.81700398253E+02 0.  0.
         13    1    3    3    0    0  0.93391033000E+02  0.71113800806E+02 -0.33688332417E+03  0.35674841529E+03  0.00000000000E+00 0. -1.
        -14    1    3    3    0    0  0.19179493631E+03  0.12685751999E+03 -0.39231534712E+03  0.45474109068E+03  0.00000000000E+00 0.  1.
         15    1    5    5    0    0 -0.25499640722E+03  0.60378981296E+02 -0.34820138522E+03  0.43579370288E+03  0.17770000000E+01 0. -1.
        -16    1    5    5    0    0 -0.73684595906E+02  0.58786127497E+02 -0.85316626834E+02  0.12713833125E+03  0.00000000000E+00 0.  1.
          2    1    6    6  502    0 -0.38521291945E+01 -0.21068188737E+03 -0.22096055855E+03  0.30532812678E+03  0.00000000000E+00 0. -1.
         -1    1    6    6    0  502  0.47347163007E+02 -0.10645454221E+03 -0.77832748475E+02  0.14011516741E+03  0.00000000000E+00 0.  1.
<mgrwt>
<rscale>  0 0.51543875E+03</rscale>
<asrwt>0</asrwt>
<pdfrwt beam="1">  1        1 0.25241345E+00 0.51543875E+03</pdfrwt>
<pdfrwt beam="2">  1       -2 0.27565757E-01 0.51543875E+03</pdfrwt>
<totfact> 0.58239260E+01</totfact>
</mgrwt>
</event>
<event>
12    3  0.1182097E-007  0.9855853E+03  0.7818608E-02  0.9324497E-01
          1   -1    0    0  501    0  0.00000000000E+00  0.00000000000E+00  0.14091306797E+04  0.14091306797E+04  0.00000000000E+00 0. -1.
         -2   -1    0    0    0  501 -0.00000000000E+00 -0.00000000000E+00 -0.14108117463E+04  0.14108117463E+04  0.00000000000E+00 0.  1.
        -24    2    1    2    0    0 -0.50324142339E+03  0.75390605830E+03  0.99264573405E+03  0.13466844567E+04  0.81161552590E+02 0.  0.
    5000000    2    1    2    0    0  0.50324142339E+03 -0.75390605830E+03 -0.99432680067E+03  0.14732579693E+04  0.60014746733E+03 0.  0.
        -24    2    4    4    0    0 -0.11940167412E+03 -0.86556732200E+02 -0.11621479980E+03  0.20347343782E+03  0.78401100332E+02 0.  0.
         24    2    4    4    0    0  0.62264309751E+03 -0.66734932610E+03 -0.87811200087E+03  0.12697845315E+04  0.90733237222E+02 0.  0.
         13    1    3    3    0    0 -0.34935562560E+03  0.45378822954E+03  0.63444866900E+03  0.85469188834E+03  0.00000000000E+00 0. -1.
        -14    1    3    3    0    0 -0.15388579780E+03  0.30011782876E+03  0.35819706505E+03  0.49199256835E+03  0.00000000000E+00 0.  1.
         15    1    5    5    0    0 -0.25599525475E+02 -0.10527978513E+02 -0.68034585879E+02  0.73471332102E+02  0.17770000000E+01 0. -1.
        -16    1    5    5    0    0 -0.93802148643E+02 -0.76028753686E+02 -0.48180213925E+02  0.13000210572E+03  0.00000000000E+00 0.  1.
          4    1    6    6  502    0  0.32565410814E+03 -0.34470284124E+03 -0.39342834963E+03  0.61616273273E+03  0.00000000000E+00 0. -1.
         -3    1    6    6    0  502  0.29698898937E+03 -0.32264648486E+03 -0.48468365124E+03  0.65362179873E+03  0.00000000000E+00 0.  1.
<mgrwt>
<rscale>  0 0.98558527E+03</rscale>
<asrwt>0</asrwt>
<pdfrwt beam="1">  1        1 0.21678934E+00 0.98558527E+03</pdfrwt>
<pdfrwt beam="2">  1       -2 0.21704796E+00 0.98558527E+03</pdfrwt>
<totfact> 0.68648538E-01</totfact>
</mgrwt>
</event>
<event>
12    3  0.1182097E-007  0.2920308E+03  0.7818608E-02  0.1089294E+00
         -2   -1    0    0    0  501 -0.00000000000E+00  0.00000000000E+00  0.22260351165E+03  0.22260351165E+03  0.00000000000E+00 0.  1.
          1   -1    0    0  501    0  0.00000000000E+00 -0.00000000000E+00 -0.64205600312E+03  0.64205600312E+03  0.00000000000E+00 0. -1.
        -24    2    1    2    0    0  0.37511615013E+01 -0.10164374778E+03 -0.82132973578E+01  0.13006655377E+03  0.80649410911E+02 0.  0.
    5000000    2    1    2    0    0 -0.37511615013E+01  0.10164374778E+03 -0.41123919411E+03  0.73459296101E+03  0.60013633527E+03 0.  0.
        -24    2    4    4    0    0  0.65642964571E+02 -0.16895894093E+03  0.36196618451E+02  0.20119475593E+03  0.79454465631E+02 0.  0.
         24    2    4    4    0    0 -0.69394126072E+02  0.27060268871E+03 -0.44743581256E+03  0.53339820508E+03  0.79205296173E+02 0.  0.
         13    1    3    3    0    0 -0.21006033687E+02 -0.68334111959E+02 -0.36078005606E+02  0.80077629817E+02  0.00000000000E+00 0. -1.
        -14    1    3    3    0    0  0.24757195188E+02 -0.33309635822E+02  0.27864708249E+02  0.49988923953E+02  0.00000000000E+00 0.  1.
         15    1    5    5    0    0  0.74567738628E+01 -0.83746678651E+02  0.48823347761E+02  0.97241897745E+02  0.17770000000E+01 0. -1.
        -16    1    5    5    0    0  0.58186190708E+02 -0.85212262283E+02 -0.12626729309E+02  0.10395285819E+03  0.00000000000E+00 0.  1.
          4    1    6    6  502    0 -0.25921358744E+02  0.31629647850E+02 -0.11216944048E+03  0.11939151913E+03  0.00000000000E+00 0. -1.
         -3    1    6    6    0  502 -0.43472767328E+02  0.23897304087E+03 -0.33526637208E+03  0.41400668595E+03  0.00000000000E+00 0.  1.
<mgrwt>
<rscale>  0 0.29203083E+03</rscale>
<asrwt>0</asrwt>
<pdfrwt beam="1">  1        1 0.98777846E-01 0.29203083E+03</pdfrwt>
<pdfrwt beam="2">  1       -2 0.34246694E-01 0.29203083E+03</pdfrwt>
<totfact> 0.22616949E+02</totfact>
</mgrwt>
</event>
<event>
12    3  0.1182097E-007  0.6839391E+03  0.7818608E-02  0.9745100E-01
          1   -1    0    0  501    0  0.00000000000E+00  0.00000000000E+00  0.30891863040E+04  0.30891863040E+04  0.00000000000E+00 0. -1.
         -2   -1    0    0    0  501 -0.00000000000E+00 -0.00000000000E+00 -0.17813368896E+03  0.17813368896E+03  0.00000000000E+00 0.  1.
        -24    2    1    2    0    0  0.14442082866E+03 -0.59445566202E+03  0.10376785469E+04  0.12072599948E+04  0.80405339830E+02 0.  0.
    5000000    2    1    2    0    0 -0.14442082866E+03  0.59445566202E+03  0.18733740682E+04  0.20600599981E+04  0.60006823496E+03 0.  0.
        -24    2    4    4    0    0  0.91060141987E+02  0.47596269441E+03  0.15925730158E+04  0.16665332729E+04  0.78815628618E+02 0.  0.
         24    2    4    4    0    0 -0.23548097064E+03  0.11849296761E+03  0.28080105244E+03  0.39352672520E+03  0.80760024059E+02 0.  0.
         13    1    3    3    0    0  0.11655147068E+02 -0.20024164488E+03  0.35964075416E+03  0.41179367509E+03  0.00000000000E+00 0. -1.
        -14    1    3    3    0    0  0.13276568159E+03 -0.39421401715E+03  0.67803779269E+03  0.79546631974E+03  0.00000000000E+00 0.  1.
         15    1    5    5    0    0  0.47196194980E+02  0.30096929652E+03  0.87074350760E+03  0.92250062982E+03  0.17770000000E+01 0. -1.
        -16    1    5    5    0    0  0.43863947007E+02  0.17499339789E+03  0.72182950816E+03  0.74403264310E+03  0.00000000000E+00 0.  1.
          4    1    6    6  502    0 -0.31353947752E+01  0.87765103698E+01 -0.38270006383E+01  0.10074907868E+02  0.00000000000E+00 0. -1.
         -3    1    6    6    0  502 -0.23234557587E+03  0.10971645724E+03  0.28462805308E+03  0.38345181733E+03  0.00000000000E+00 0.  1.
<mgrwt>
<rscale>  0 0.68393910E+03</rscale>
<asrwt>0</asrwt>
<pdfrwt beam="1">  1        1 0.47525939E+00 0.68393910E+03</pdfrwt>
<pdfrwt beam="2">  1       -2 0.27405185E-01 0.68393910E+03</pdfrwt>
<totfact> 0.59067700E+00</totfact>
</mgrwt>
</event>
<event>
12    3  0.1182097E-007  0.4455375E+03  0.7818608E-02  0.1029061E+00
         -2   -1    0    0    0  501 -0.00000000000E+00  0.00000000000E+00  0.16904476869E+04  0.16904476869E+04  0.00000000000E+00 0.  1.
          1   -1    0    0  501    0  0.00000000000E+00 -0.00000000000E+00 -0.16078686997E+03  0.16078686997E+03  0.00000000000E+00 0. -1.
        -24    2    1    2    0    0 -0.20727117527E+01 -0.32202921656E+03  0.72467533677E+03  0.79701044384E+03  0.79775882469E+02 0.  0.
    5000000    2    1    2    0    0  0.20727117527E+01  0.32202921656E+03  0.80498548019E+03  0.10542241130E+04  0.59973306126E+03 0.  0.
        -24    2    4    4    0    0 -0.12945805304E+03  0.37850902236E+03  0.25699675573E+03  0.48228596143E+03  0.80770963987E+02 0.  0.
         24    2    4    4    0    0  0.13153076480E+03 -0.56479805802E+02  0.54798872445E+03  0.57193815162E+03  0.79569445148E+02 0.  0.
         11    1    3    3    0    0 -0.37099604808E+02 -0.22641297892E+03  0.52182369958E+03  0.57003437716E+03  0.00000000000E+00 0. -1.
        -12    1    3    3    0    0  0.35026893056E+02 -0.95616237637E+02  0.20285163719E+03  0.22697606669E+03  0.00000000000E+00 0.  1.
         15    1    5    5    0    0 -0.74962854223E+02  0.12180408177E+03  0.64922341015E+02  0.15707874440E+03  0.17770000000E+01 0. -1.
        -16    1    5    5    0    0 -0.54495198821E+02  0.25670494059E+03  0.19207441472E+03  0.32520721703E+03  0.00000000000E+00 0.  1.
          2    1    6    6  502    0  0.34637559463E+02  0.10925501535E+02  0.22799184516E+03  0.23086664672E+03  0.00000000000E+00 0. -1.
         -1    1    6    6    0  502  0.96893205334E+02 -0.67405307337E+02  0.31999687930E+03  0.34107150490E+03  0.00000000000E+00 0.  1.
<mgrwt>
<rscale>  0 0.44553747E+03</rscale>
<asrwt>0</asrwt>
<pdfrwt beam="1">  1        1 0.24736443E-01 0.44553747E+03</pdfrwt>
<pdfrwt beam="2">  1       -2 0.26006886E+00 0.44553747E+03</pdfrwt>
<totfact> 0.10324666E+01</totfact>
</mgrwt>
</event>
<event>
12    3  0.1182097E-007  0.1004214E+04  0.7818608E-02  0.9303936E-01
          1   -1    0    0  501    0  0.00000000000E+00  0.00000000000E+00  0.16402927128E+04  0.16402927128E+04  0.00000000000E+00 0. -1.
         -2   -1    0    0    0  501 -0.00000000000E+00 -0.00000000000E+00 -0.82191647119E+03  0.82191647119E+03  0.00000000000E+00 0.  1.
        -24    2    1    2    0    0 -0.43916412043E+03 -0.89225229515E+03  0.83589732093E+03  0.13007300059E+04  0.64768311436E+02 0.  0.
    5000000    2    1    2    0    0  0.43916412043E+03  0.89225229515E+03 -0.17521079283E+02  0.11614791782E+04  0.59978963828E+03 0.  0.
        -24    2    4    4    0    0  0.20448275073E+03  0.61548228576E+03 -0.27513603521E+03  0.70898037718E+03  0.79509105867E+02 0.  0.
         24    2    4    4    0    0  0.23468136970E+03  0.27677000939E+03  0.25761495593E+03  0.45249880097E+03  0.81931166133E+02 0.  0.
         13    1    3    3    0    0 -0.27560749854E+03 -0.61246902984E+03  0.53802843516E+03  0.86055354442E+03  0.00000000000E+00 0. -1.
        -14    1    3    3    0    0 -0.16355662189E+03 -0.27978326531E+03  0.29786888577E+03  0.44017646146E+03  0.00000000000E+00 0.  1.
         15    1    5    5    0    0  0.97431825842E+02  0.25337330663E+03 -0.15565889430E+03  0.31292785479E+03  0.17770000000E+01 0. -1.
        -16    1    5    5    0    0  0.10705092489E+03  0.36210897914E+03 -0.11947714091E+03  0.39605252239E+03  0.00000000000E+00 0.  1.
          2    1    6    6  502    0  0.13314426261E+03  0.17501805838E+03  0.20125484252E+03  0.29809768040E+03  0.00000000000E+00 0. -1.
         -1    1    6    6    0  502  0.10153710709E+03  0.10175195101E+03  0.56360113414E+02  0.15440112057E+03  0.00000000000E+00 0.  1.
<mgrwt>
<rscale>  0 0.10042135E+04</rscale>
<asrwt>0</asrwt>
<pdfrwt beam="1">  1        1 0.25235272E+00 0.10042135E+04</pdfrwt>
<pdfrwt beam="2">  1       -2 0.12644869E+00 0.10042135E+04</pdfrwt>
<totfact> 0.21392959E+00</totfact>
</mgrwt>
</event>
<event>
12    3  0.1182097E-007  0.8842190E+03  0.7818608E-02  0.9445526E-01
          1   -1    0    0  501    0  0.00000000000E+00  0.00000000000E+00  0.14096316391E+04  0.14096316391E+04  0.00000000000E+00 0. -1.
         -2   -1    0    0    0  501 -0.00000000000E+00 -0.00000000000E+00 -0.67949208589E+03  0.67949208589E+03  0.00000000000E+00 0.  1.
        -24    2    1    2    0    0 -0.55673072226E+03  0.56273486936E+03  0.75278041773E+03  0.10955622556E+04  0.83418632198E+02 0.  0.
    5000000    2    1    2    0    0  0.55673072226E+03 -0.56273486936E+03 -0.22640864470E+02  0.99356146948E+03  0.60002679489E+03 0.  0.
        -24    2    4    4    0    0  0.59796148293E+03 -0.63007409621E+03  0.22885537602E+02  0.87246824059E+03  0.78267370124E+02 0.  0.
         24    2    4    4    0    0 -0.41230760673E+02  0.67339226846E+02 -0.45526402072E+02  0.12109322889E+03  0.79726844284E+02 0.  0.
         11    1    3    3    0    0 -0.19031264736E+03  0.19898905771E+03  0.31740326054E+03  0.42019088357E+03  0.00000000000E+00 0. -1.
        -12    1    3    3    0    0 -0.36641807490E+03  0.36374581166E+03  0.43537715719E+03  0.67537137200E+03  0.00000000000E+00 0.  1.
         15    1    5    5    0    0  0.11195661975E+03 -0.15043117596E+03  0.28069069045E+02  0.18961765153E+03  0.17770000000E+01 0. -1.
        -16    1    5    5    0    0  0.48600486318E+03 -0.47964292025E+03 -0.51835314428E+01  0.68285058906E+03  0.00000000000E+00 0.  1.
          2    1    6    6  502    0 -0.16881143621E+02 -0.13741378870E+02  0.52290181255E+01  0.22386181759E+02  0.00000000000E+00 0. -1.
         -1    1    6    6    0  502 -0.24349617052E+02  0.81080605715E+02 -0.50755420197E+02  0.98707047130E+02  0.00000000000E+00 0.  1.
<mgrwt>
<rscale>  0 0.88421896E+03</rscale>
<asrwt>0</asrwt>
<pdfrwt beam="1">  1        1 0.21686641E+00 0.88421896E+03</pdfrwt>
<pdfrwt beam="2">  1       -2 0.10453724E+00 0.88421896E+03</pdfrwt>
<totfact> 0.49948748E+00</totfact>
</mgrwt>
</event>
<event>
12    3  0.1182097E-007  0.1110489E+04  0.7818608E-02  0.9195028E-01
          1   -1    0    0  501    0  0.00000000000E+00  0.00000000000E+00  0.15290862237E+04  0.15290862237E+04  0.00000000000E+00 0. -1.
         -2   -1    0    0    0  501 -0.00000000000E+00 -0.00000000000E+00 -0.84637088087E+03  0.84637088087E+03  0.00000000000E+00 0.  1.
        -24    2    1    2    0    0 -0.63998052526E+03  0.83889521510E+03  0.38161290931E+03  0.11248591233E+04  0.79745721803E+02 0.  0.
    5000000    2    1    2    0    0  0.63998052526E+03 -0.83889521510E+03  0.30110243355E+03  0.12505979813E+04  0.60001031714E+03 0.  0.
        -24    2    4    4    0    0  0.12737536896E+03  0.50936364787E+02  0.13256754879E+03  0.20686646359E+03  0.80003630474E+02 0.  0.
         24    2    4    4    0    0  0.51260515629E+03 -0.88983157988E+03  0.16853488476E+03  0.10437315177E+04  0.80044905083E+02 0.  0.
         13    1    3    3    0    0 -0.39702214015E+03  0.47757229424E+03  0.25549813337E+03  0.67155131759E+03  0.00000000000E+00 0. -1.
        -14    1    3    3    0    0 -0.24295838511E+03  0.36132292086E+03  0.12611477594E+03  0.45330780573E+03  0.00000000000E+00 0.  1.
         15    1    5    5    0    0  0.51513947237E+02  0.23689530043E+02  0.10901239888E+03  0.12288914286E+03  0.17770000000E+01 0. -1.
        -16    1    5    5    0    0  0.75861421726E+02  0.27246834743E+02  0.23555149909E+02  0.83977320730E+02  0.00000000000E+00 0.  1.
          2    1    6    6  502    0  0.19109497514E+03 -0.30940705289E+03  0.96922802448E+02  0.37635627208E+03  0.00000000000E+00 0. -1.
         -1    1    6    6    0  502  0.32151018116E+03 -0.58042452700E+03  0.71612082310E+02  0.66737524561E+03  0.00000000000E+00 0.  1.
<mgrwt>
<rscale>  0 0.11104891E+04</rscale>
<asrwt>0</asrwt>
<pdfrwt beam="1">  1        1 0.23524403E+00 0.11104891E+04</pdfrwt>
<pdfrwt beam="2">  1       -2 0.13021091E+00 0.11104891E+04</pdfrwt>
<totfact> 0.23379472E+00</totfact>
</mgrwt>
</event>
<event>
12    3  0.1182097E-007  0.5127297E+03  0.7818608E-02  0.1010509E+00
          1   -1    0    0  501    0  0.00000000000E+00  0.00000000000E+00  0.37544908151E+03  0.37544908151E+03  0.00000000000E+00 0. -1.
         -2   -1    0    0    0  501 -0.00000000000E+00 -0.00000000000E+00 -0.99947415320E+03  0.99947415320E+03  0.00000000000E+00 0.  1.
        -24    2    1    2    0    0  0.37335975190E+03 -0.15807432212E+03 -0.48369668123E+03  0.63712943668E+03  0.87100195222E+02 0.  0.
    5000000    2    1    2    0    0 -0.37335975190E+03  0.15807432212E+03 -0.14032839046E+03  0.73779379803E+03  0.60021882308E+03 0.  0.
        -24    2    4    4    0    0  0.10932008388E+03  0.14754557778E+02  0.10959122167E+03  0.16961410110E+03  0.67750495998E+02 0.  0.
         24    2    4    4    0    0 -0.48267983578E+03  0.14331976434E+03 -0.24991961214E+03  0.56817969693E+03  0.82752503011E+02 0.  0.
         13    1    3    3    0    0  0.29256645449E+03 -0.10558763434E+03 -0.31389104555E+03  0.44189531260E+03  0.00000000000E+00 0. -1.
        -14    1    3    3    0    0  0.80793297404E+02 -0.52486687783E+02 -0.16980563567E+03  0.19523412408E+03  0.00000000000E+00 0.  1.
         15    1    5    5    0    0  0.32053319643E+02  0.13606758218E+02 -0.78492936807E+00  0.34875966115E+02  0.17770000000E+01 0. -1.
        -16    1    5    5    0    0  0.77266764238E+02  0.11477995601E+01  0.11037615104E+03  0.13473813498E+03  0.00000000000E+00 0.  1.
          4    1    6    6  502    0 -0.34023238573E+03  0.77154779432E+02 -0.20574901216E+03  0.40502295280E+03  0.00000000000E+00 0. -1.
         -3    1    6    6    0  502 -0.14244745005E+03  0.66164984908E+02 -0.44170599978E+02  0.16315674413E+03  0.00000000000E+00 0.  1.
<mgrwt>
<rscale>  0 0.51272967E+03</rscale>
<asrwt>0</asrwt>
<pdfrwt beam="1">  1        1 0.57761397E-01 0.51272967E+03</pdfrwt>
<pdfrwt beam="2">  1       -2 0.15376526E+00 0.51272967E+03</pdfrwt>
<totfact> 0.16698763E+01</totfact>
</mgrwt>
</event>
<event>
12    3  0.1182097E-007  0.1083177E+04  0.7818608E-02  0.9221745E-01
         -2   -1    0    0    0  501 -0.00000000000E+00  0.00000000000E+00  0.64166900601E+03  0.64166900601E+03  0.00000000000E+00 0.  1.
          1   -1    0    0  501    0  0.00000000000E+00 -0.00000000000E+00 -0.30111538360E+04  0.30111538360E+04  0.00000000000E+00 0. -1.
        -24    2    1    2    0    0 -0.10249322406E+04 -0.99152700480E+02 -0.22243001234E+04  0.24523114282E+04  0.77478682964E+02 0.  0.
    5000000    2    1    2    0    0  0.10249322406E+04  0.99152700480E+02 -0.14518470668E+03  0.12005114138E+04  0.59985973338E+03 0.  0.
        -24    2    4    4    0    0  0.68270298453E+02  0.16067708433E+03 -0.14286286390E+03  0.23842461764E+03  0.77191588490E+02 0.  0.
         24    2    4    4    0    0  0.95666194219E+03 -0.61524383854E+02 -0.23218427743E+01  0.96208679618E+03  0.81352879339E+02 0.  0.
         13    1    3    3    0    0 -0.47527942297E+03 -0.79947182100E+02 -0.99443234615E+03  0.11050691258E+04  0.00000000000E+00 0. -1.
        -14    1    3    3    0    0 -0.54965281768E+03 -0.19205518380E+02 -0.12298677772E+04  0.13472423024E+04  0.00000000000E+00 0.  1.
         15    1    5    5    0    0  0.39082316143E+01  0.23505419850E+02  0.74155799201E+01  0.25018544946E+02  0.17770000000E+01 0. -1.
        -16    1    5    5    0    0  0.64362066838E+02  0.13717166448E+03 -0.15027844382E+03  0.21340607269E+03  0.00000000000E+00 0.  1.
          4    1    6    6  502    0  0.66022105202E+03 -0.54573944360E+02 -0.37222221089E+02  0.66351763102E+03  0.00000000000E+00 0. -1.
         -3    1    6    6    0  502  0.29644089017E+03 -0.69504394936E+01  0.34900378315E+02  0.29856916516E+03  0.00000000000E+00 0.  1.
<mgrwt>
<rscale>  0 0.10831775E+04</rscale>
<asrwt>0</asrwt>
<pdfrwt beam="1">  1        1 0.46325444E+00 0.10831775E+04</pdfrwt>
<pdfrwt beam="2">  1       -2 0.98718309E-01 0.10831775E+04</pdfrwt>
<totfact> 0.44269371E-01</totfact>
</mgrwt>
</event>
<event>
12    3  0.1182097E-007  0.3852974E+03  0.7818608E-02  0.1048993E+00
          3   -1    0    0  501    0  0.00000000000E+00  0.00000000000E+00  0.97910401445E+03  0.97910401445E+03  0.00000000000E+00 0. -1.
         -4   -1    0    0    0  501 -0.00000000000E+00 -0.00000000000E+00 -0.21478169034E+03  0.21478169034E+03  0.00000000000E+00 0.  1.
        -24    2    1    2    0    0 -0.15106280617E+03 -0.19625046898E+03  0.29110684744E+03  0.39073047698E+03  0.81196619559E+02 0.  0.
    5000000    2    1    2    0    0  0.15106280617E+03  0.19625046898E+03  0.47321547667E+03  0.80315522781E+03  0.59982598694E+03 0.  0.
        -24    2    4    4    0    0  0.29934014425E+03  0.11023123847E+03  0.51277325099E+03  0.60941667662E+03  0.81834167196E+02 0.  0.
         24    2    4    4    0    0 -0.14827733807E+03  0.86019230509E+02 -0.39557774319E+02  0.19373855119E+03  0.81143895042E+02 0.  0.
         11    1    3    3    0    0 -0.10867211058E+03 -0.77776975890E+02  0.13147406738E+03  0.18746817327E+03  0.00000000000E+00 0. -1.
        -12    1    3    3    0    0 -0.42390695597E+02 -0.11847349309E+03  0.15963278006E+03  0.20326230371E+03  0.00000000000E+00 0.  1.
         15    1    5    5    0    0  0.25019560341E+03  0.11449852920E+03  0.46748397327E+03  0.54245016006E+03  0.17770000000E+01 0. -1.
        -16    1    5    5    0    0  0.49144540837E+02 -0.42672907255E+01  0.45289277721E+02  0.66966516564E+02  0.00000000000E+00 0.  1.
          2    1    6    6  502    0 -0.69838195480E+02  0.82547640336E+02 -0.58278285403E+01  0.10828411730E+03  0.00000000000E+00 0. -1.
         -1    1    6    6    0  502 -0.78439142594E+02  0.34715901730E+01 -0.33729945779E+02  0.85454433890E+02  0.00000000000E+00 0.  1.
<mgrwt>
<rscale>  0 0.38529744E+03</rscale>
<asrwt>0</asrwt>
<pdfrwt beam="1">  1        3 0.15063138E+00 0.38529744E+03</pdfrwt>
<pdfrwt beam="2">  1       -4 0.33043337E-01 0.38529744E+03</pdfrwt>
<totfact> 0.64317140E+00</totfact>
</mgrwt>
</event>
<event>
12    3  0.1182097E-007  0.1283596E+04  0.7818608E-02  0.9042676E-01
          1   -1    0    0  501    0  0.00000000000E+00  0.00000000000E+00  0.14365703908E+04  0.14365703908E+04  0.00000000000E+00 0. -1.
         -2   -1    0    0    0  501 -0.00000000000E+00 -0.00000000000E+00 -0.16253939870E+04  0.16253939870E+04  0.00000000000E+00 0.  1.
        -24    2    1    2    0    0  0.18828111970E+03 -0.12167596441E+04  0.71007709471E+03  0.14237721073E+04  0.83448916185E+02 0.  0.
    5000000    2    1    2    0    0 -0.18828111970E+03  0.12167596441E+04 -0.89890069094E+03  0.16381922705E+04  0.59974798989E+03 0.  0.
        -24    2    4    4    0    0 -0.23047287797E+02  0.11512820866E+04 -0.65888614954E+03  0.13288688277E+04  0.76024882560E+02 0.  0.
         24    2    4    4    0    0 -0.16523383190E+03  0.65477557483E+02 -0.24001454140E+03  0.30932344277E+03  0.80526284084E+02 0.  0.
         11    1    3    3    0    0  0.35412379654E+02 -0.45792626168E+03  0.24144751082E+03  0.51889054554E+03  0.00000000000E+00 0. -1.
        -12    1    3    3    0    0  0.15286874005E+03 -0.75883338243E+03  0.46862958389E+03  0.90488156179E+03  0.00000000000E+00 0.  1.
         15    1    5    5    0    0  0.14987814734E+02  0.37545177296E+03 -0.18333194909E+03  0.41809380490E+03  0.17770000000E+01 0. -1.
        -16    1    5    5    0    0 -0.38035102530E+02  0.77583031367E+03 -0.47555420045E+03  0.91077502282E+03  0.00000000000E+00 0.  1.
          2    1    6    6  502    0 -0.35322118565E+02 -0.10717119521E+01 -0.10388528333E+03  0.10973127502E+03  0.00000000000E+00 0. -1.
         -1    1    6    6    0  502 -0.12991171334E+03  0.66549269435E+02 -0.13612925807E+03  0.19959216775E+03  0.00000000000E+00 0.  1.
<mgrwt>
<rscale>  0 0.12835962E+04</rscale>
<asrwt>0</asrwt>
<pdfrwt beam="1">  1        1 0.22101083E+00 0.12835962E+04</pdfrwt>
<pdfrwt beam="2">  1       -2 0.25006061E+00 0.12835962E+04</pdfrwt>
<totfact> 0.39371377E-01</totfact>
</mgrwt>
</event>
<event>
12    3  0.1182097E-007  0.3857012E+03  0.7818608E-02  0.1048846E+00
          1   -1    0    0  501    0  0.00000000000E+00  0.00000000000E+00  0.12038658006E+04  0.12038658006E+04  0.00000000000E+00 0. -1.
         -2   -1    0    0    0  501 -0.00000000000E+00 -0.00000000000E+00 -0.44969337648E+03  0.44969337648E+03  0.00000000000E+00 0.  1.
        -24    2    1    2    0    0  0.24179871911E+03  0.13281330147E+03 -0.29628601788E+03  0.41276682212E+03  0.80529817079E+02 0.  0.
    5000000    2    1    2    0    0 -0.24179871911E+03 -0.13281330147E+03  0.10504584420E+04  0.12407923550E+04  0.59999728014E+03 0.  0.
        -24    2    4    4    0    0 -0.14265817509E+03 -0.27332286420E+03  0.21641993350E+03  0.38499717229E+03  0.79551819852E+02 0.  0.
         24    2    4    4    0    0 -0.99140544022E+02  0.14050956273E+03  0.83403850853E+03  0.85579518270E+03  0.84813774461E+02 0.  0.
         13    1    3    3    0    0  0.29299632042E+02 -0.45551866662E+01 -0.11486585369E+02  0.31798739076E+02  0.00000000000E+00 0. -1.
        -14    1    3    3    0    0  0.21249908707E+03  0.13736848813E+03 -0.28479943251E+03  0.38096808304E+03  0.00000000000E+00 0.  1.
         15    1    5    5    0    0 -0.11338517333E+03 -0.24610960767E+03  0.15636115816E+03  0.31285476827E+03  0.17770000000E+01 0. -1.
        -16    1    5    5    0    0 -0.29273001761E+02 -0.27213256533E+02  0.60058775339E+02  0.72142404024E+02  0.00000000000E+00 0.  1.
          4    1    6    6  502    0 -0.76096020207E+02  0.13353231537E+03  0.79654013634E+03  0.81123219385E+03  0.00000000000E+00 0. -1.
         -3    1    6    6    0  502 -0.23044523815E+02  0.69772473627E+01  0.37498372196E+02  0.44562988858E+02  0.00000000000E+00 0.  1.
<mgrwt>
<rscale>  0 0.38570117E+03</rscale>
<asrwt>0</asrwt>
<pdfrwt beam="1">  1        1 0.18521012E+00 0.38570117E+03</pdfrwt>
<pdfrwt beam="2">  1       -2 0.69183597E-01 0.38570117E+03</pdfrwt>
<totfact> 0.19303304E+01</totfact>
</mgrwt>
</event>
<event>
12    3  0.1182097E-007  0.1182220E+04  0.7818608E-02  0.9128563E-01
          1   -1    0    0  501    0  0.00000000000E+00  0.00000000000E+00  0.10590702249E+04  0.10590702249E+04  0.00000000000E+00 0. -1.
         -2   -1    0    0    0  501 -0.00000000000E+00 -0.00000000000E+00 -0.13951138775E+04  0.13951138775E+04  0.00000000000E+00 0.  1.
        -24    2    1    2    0    0 -0.81538248673E+03  0.79277055081E+03 -0.76866369650E+02  0.11425085168E+04  0.77996963798E+02 0.  0.
    5000000    2    1    2    0    0  0.81538248673E+03 -0.79277055081E+03 -0.25917728304E+03  0.13116755856E+04  0.59998852640E+03 0.  0.
        -24    2    4    4    0    0  0.11191754521E+03  0.36404592840E+02 -0.16548824121E+03  0.21732046869E+03  0.77401529865E+02 0.  0.
         24    2    4    4    0    0  0.70346494152E+03 -0.82917514365E+03 -0.93689041829E+02  0.10943551169E+04  0.80256728479E+02 0.  0.
         13    1    3    3    0    0 -0.49181277994E+03  0.46044877305E+03 -0.92495475820E+01  0.67377921996E+03  0.00000000000E+00 0. -1.
        -14    1    3    3    0    0 -0.32356970678E+03  0.33232177776E+03 -0.67616822068E+02  0.46872929687E+03  0.00000000000E+00 0.  1.
         15    1    5    5    0    0 -0.11189009550E+02  0.46418272037E+01 -0.68743239768E+01  0.14041173514E+02  0.17770000000E+01 0. -1.
        -16    1    5    5    0    0  0.12310655476E+03  0.31762765636E+02 -0.15861391724E+03  0.20327929517E+03  0.00000000000E+00 0.  1.
          4    1    6    6  502    0  0.33867431645E+03 -0.41251730934E+03 -0.66558589186E+01  0.53377441264E+03  0.00000000000E+00 0. -1.
         -1    1    6    6    0  502  0.36479062507E+03 -0.41665783431E+03 -0.87033182910E+02  0.56058070424E+03  0.00000000000E+00 0.  1.
<mgrwt>
<rscale>  0 0.11822200E+04</rscale>
<asrwt>0</asrwt>
<pdfrwt beam="1">  1        1 0.16293388E+00 0.11822200E+04</pdfrwt>
<pdfrwt beam="2">  1       -2 0.21463291E+00 0.11822200E+04</pdfrwt>
<totfact> 0.12475652E+00</totfact>
</mgrwt>
</event>
<event>
12    3  0.1182097E-007  0.5215346E+03  0.7818608E-02  0.1008306E+00
         -2   -1    0    0    0  501 -0.00000000000E+00  0.00000000000E+00  0.87150044503E+03  0.87150044503E+03  0.00000000000E+00 0.  1.
          1   -1    0    0  501    0  0.00000000000E+00 -0.00000000000E+00 -0.25302504362E+04  0.25302504362E+04  0.00000000000E+00 0. -1.
        -24    2    1    2    0    0  0.13535992248E+02  0.48446974460E+03 -0.23288052237E+04  0.23799901218E+04  0.78262719350E+02 0.  0.
    5000000    2    1    2    0    0 -0.13535992248E+02 -0.48446974460E+03  0.67005523257E+03  0.10217607594E+04  0.60010572259E+03 0.  0.
        -24    2    4    4    0    0 -0.46803833540E+02 -0.37367911937E+02  0.53844264505E+03  0.54767103272E+03  0.80225422363E+02 0.  0.
         24    2    4    4    0    0  0.33267841291E+02 -0.44710183266E+03  0.13161258752E+03  0.47408972670E+03  0.80202230250E+02 0.  0.
         11    1    3    3    0    0 -0.24698903143E+02  0.35075131942E+03 -0.16347394331E+04  0.16721272494E+04  0.00000000000E+00 0. -1.
        -12    1    3    3    0    0  0.38234895392E+02  0.13371842518E+03 -0.69406579058E+03  0.70786287239E+03  0.00000000000E+00 0.  1.
         15    1    5    5    0    0 -0.47606557652E+02 -0.58747171349E+02  0.35388942861E+03  0.36188188665E+03  0.17770000000E+01 0. -1.
        -16    1    5    5    0    0  0.80272411184E+00  0.21379259413E+02  0.18455321644E+03  0.18578914607E+03  0.00000000000E+00 0.  1.
          2    1    6    6  502    0 -0.25587415451E+02 -0.18167563173E+03  0.47854056356E+02  0.18960686091E+03  0.00000000000E+00 0. -1.
         -1    1    6    6    0  502  0.58855256743E+02 -0.26542620093E+03  0.83758531162E+02  0.28448286579E+03  0.00000000000E+00 0.  1.
<mgrwt>
<rscale>  0 0.52153459E+03</rscale>
<asrwt>0</asrwt>
<pdfrwt beam="1">  1        1 0.38926930E+00 0.52153459E+03</pdfrwt>
<pdfrwt beam="2">  1       -2 0.13407699E+00 0.52153459E+03</pdfrwt>
<totfact> 0.51196873E-01</totfact>
</mgrwt>
</event>
<event>
12    3  0.1182097E-007  0.1313237E+04  0.7818608E-02  0.9019133E-01
          1   -1    0    0  501    0  0.00000000000E+00  0.00000000000E+00  0.10946618325E+04  0.10946618325E+04  0.00000000000E+00 0. -1.
         -2   -1    0    0    0  501 -0.00000000000E+00 -0.00000000000E+00 -0.17102827579E+04  0.17102827579E+04  0.00000000000E+00 0.  1.
        -24    2    1    2    0    0  0.41608229626E+03 -0.12321332462E+04 -0.25482021731E+03  0.13279197231E+04  0.84620530672E+02 0.  0.
    5000000    2    1    2    0    0 -0.41608229626E+03  0.12321332462E+04 -0.36080070804E+03  0.14770248673E+04  0.60012373247E+03 0.  0.
        -24    2    4    4    0    0 -0.46220934514E+02  0.73166379525E+02 -0.22043786891E+03  0.24952992127E+03  0.78629725185E+02 0.  0.
         24    2    4    4    0    0 -0.36986136174E+03  0.11589668666E+04 -0.14036283913E+03  0.12274949461E+04  0.83907634571E+02 0.  0.
         13    1    3    3    0    0  0.17525279394E+03 -0.57511427835E+03 -0.15668984415E+03  0.62130643180E+03  0.00000000000E+00 0. -1.
        -14    1    3    3    0    0  0.24082950232E+03 -0.65701896782E+03 -0.98130373155E+02  0.70661329127E+03  0.00000000000E+00 0.  1.
         15    1    5    5    0    0  0.11703400509E+01  0.59364942103E+02 -0.16466149399E+03  0.17504893995E+03  0.17770000000E+01 0. -1.
        -16    1    5    5    0    0 -0.47391274565E+02  0.13801437422E+02 -0.55776374921E+02  0.74480981325E+02  0.00000000000E+00 0.  1.
          2    1    6    6  502    0 -0.30521550972E+03  0.93002745420E+03 -0.14528201114E+03  0.98955264423E+03  0.00000000000E+00 0. -1.
         -1    1    6    6    0  502 -0.64645852022E+02  0.22893941244E+03  0.49191720107E+01  0.23794230184E+03  0.00000000000E+00 0.  1.
<mgrwt>
<rscale>  0 0.13132371E+04</rscale>
<asrwt>0</asrwt>
<pdfrwt beam="1">  1        1 0.16840952E+00 0.13132371E+04</pdfrwt>
<pdfrwt beam="2">  1       -2 0.26312042E+00 0.13132371E+04</pdfrwt>
<totfact> 0.57804002E-01</totfact>
</mgrwt>
</event>
<event>
12    3  0.1182097E-007  0.1019826E+04  0.7818608E-02  0.9287063E-01
         -2   -1    0    0    0  501 -0.00000000000E+00  0.00000000000E+00  0.67377321042E+03  0.67377321042E+03  0.00000000000E+00 0.  1.
          1   -1    0    0  501    0  0.00000000000E+00 -0.00000000000E+00 -0.22440491441E+04  0.22440491441E+04  0.00000000000E+00 0. -1.
        -24    2    1    2    0    0  0.30253676601E+03 -0.94952370144E+03 -0.14315896876E+04  0.17461803735E+04  0.81074710849E+02 0.  0.
    5000000    2    1    2    0    0 -0.30253676601E+03  0.94952370144E+03 -0.13868624607E+03  0.11716419810E+04  0.60032266529E+03 0.  0.
        -24    2    4    4    0    0 -0.34539384620E+03  0.72236795133E+03 -0.32123411253E+03  0.86609535264E+03  0.76272135778E+02 0.  0.
         24    2    4    4    0    0  0.42857080193E+02  0.22715575010E+03  0.18254786646E+03  0.30554662838E+03  0.81231486759E+02 0.  0.
         11    1    3    3    0    0  0.14421850496E+03 -0.38129040012E+03 -0.52721019935E+03  0.66643224764E+03  0.00000000000E+00 0. -1.
        -12    1    3    3    0    0  0.15831826105E+03 -0.56823330132E+03 -0.90437948824E+03  0.10797481258E+04  0.00000000000E+00 0.  1.
         15    1    5    5    0    0 -0.11583967017E+03  0.30026552574E+03 -0.15889181731E+03  0.35892615183E+03  0.17770000000E+01 0. -1.
        -16    1    5    5    0    0 -0.22955417603E+03  0.42210242559E+03 -0.16234229522E+03  0.50716920080E+03  0.00000000000E+00 0.  1.
          2    1    6    6  502    0  0.59842391666E+02  0.17579712875E+03  0.16571974441E+03  0.24889511045E+03  0.00000000000E+00 0. -1.
         -1    1    6    6    0  502 -0.16985311472E+02  0.51358621347E+02  0.16828122048E+02  0.56651517933E+02  0.00000000000E+00 0.  1.
<mgrwt>
<rscale>  0 0.10198263E+04</rscale>
<asrwt>0</asrwt>
<pdfrwt beam="1">  1        1 0.34523833E+00 0.10198263E+04</pdfrwt>
<pdfrwt beam="2">  1       -2 0.10365742E+00 0.10198263E+04</pdfrwt>
<totfact> 0.13611396E+00</totfact>
</mgrwt>
</event>
<event>
12    3  0.1182097E-007  0.3878843E+03  0.7818608E-02  0.1048058E+00
          1   -1    0    0  501    0  0.00000000000E+00  0.00000000000E+00  0.16328674089E+03  0.16328674089E+03  0.00000000000E+00 0. -1.
         -2   -1    0    0    0  501 -0.00000000000E+00 -0.00000000000E+00 -0.17831618169E+04  0.17831618169E+04  0.00000000000E+00 0.  1.
        -24    2    1    2    0    0 -0.23552278489E+03  0.24909981393E+03 -0.32414455518E+03  0.47797874505E+03  0.76630859104E+02 0.  0.
    5000000    2    1    2    0    0  0.23552278489E+03 -0.24909981393E+03 -0.12957305209E+04  0.14684698128E+04  0.59997025659E+03 0.  0.
        -24    2    4    4    0    0  0.23573018925E+03 -0.25942549108E+03 -0.13320279752E+04  0.13797020591E+04  0.80055840299E+02 0.  0.
         24    2    4    4    0    0 -0.20740436278E+00  0.10325677151E+02  0.36297454299E+02  0.88767753718E+02  0.80346414272E+02 0.  0.
         11    1    3    3    0    0 -0.20295608769E+03  0.24527745152E+03 -0.29750802750E+03  0.43573297807E+03  0.00000000000E+00 0. -1.
        -12    1    3    3    0    0 -0.32566697196E+02  0.38223624121E+01 -0.26636527678E+02  0.42245766977E+02  0.00000000000E+00 0.  1.
         15    1    5    5    0    0  0.21525485640E+03 -0.23891938883E+03 -0.11054196536E+04  0.11512484075E+04  0.17770000000E+01 0. -1.
        -16    1    5    5    0    0  0.20475332855E+02 -0.20506102247E+02 -0.22660832158E+03  0.22845365152E+03  0.00000000000E+00 0.  1.
          4    1    6    6  502    0  0.36492739378E+02  0.73930898231E+01  0.24003264048E+00  0.37234868338E+02  0.00000000000E+00 0. -1.
         -3    1    6    6    0  502 -0.36700143741E+02  0.29325873279E+01  0.36057421658E+02  0.51532885381E+02  0.00000000000E+00 0.  1.
<mgrwt>
<rscale>  0 0.38788429E+03</rscale>
<asrwt>0</asrwt>
<pdfrwt beam="1">  1        1 0.25121038E-01 0.38788429E+03</pdfrwt>
<pdfrwt beam="2">  1       -2 0.27433258E+00 0.38788429E+03</pdfrwt>
<totfact> 0.84243379E+00</totfact>
</mgrwt>
</event>
<event>
12    3  0.1182097E-007  0.6984718E+03  0.7818608E-02  0.9719849E-01
          1   -1    0    0  501    0  0.00000000000E+00  0.00000000000E+00  0.17445420577E+04  0.17445420577E+04  0.00000000000E+00 0. -1.
         -2   -1    0    0    0  501 -0.00000000000E+00 -0.00000000000E+00 -0.44506056236E+03  0.44506056236E+03  0.00000000000E+00 0.  1.
        -24    2    1    2    0    0 -0.19876182387E+03  0.60709699508E+03  0.11248988265E+04  0.12960393399E+04  0.79041614228E+02 0.  0.
    5000000    2    1    2    0    0  0.19876182387E+03 -0.60709699508E+03  0.17458266887E+03  0.89356328013E+03  0.59991933064E+03 0.  0.
        -24    2    4    4    0    0  0.79909539784E+02  0.36946212265E+02 -0.12126691481E+03  0.16998052042E+03  0.80231886103E+02 0.  0.
         24    2    4    4    0    0  0.11885228408E+03 -0.64404320734E+03  0.29584958368E+03  0.72358275971E+03  0.84424615074E+02 0.  0.
         13    1    3    3    0    0 -0.10921633012E+03  0.41255062088E+03  0.69094740405E+03  0.81211731709E+03  0.00000000000E+00 0. -1.
        -14    1    3    3    0    0 -0.89545493744E+02  0.19454637420E+03  0.43395142244E+03  0.48392202285E+03  0.00000000000E+00 0.  1.
         15    1    5    5    0    0 -0.46866295609E+01  0.11768765793E+02 -0.62845357208E+02  0.64133961335E+02  0.17770000000E+01 0. -1.
        -16    1    5    5    0    0  0.84596169345E+02  0.25177446471E+02 -0.58421557598E+02  0.10584655909E+03  0.00000000000E+00 0.  1.
          4    1    6    6  502    0  0.42265517309E+02 -0.24916573959E+03  0.69829262528E+02  0.26219470941E+03  0.00000000000E+00 0. -1.
         -3    1    6    6    0  502  0.76586766775E+02 -0.39487746775E+03  0.22602032115E+03  0.46138805030E+03  0.00000000000E+00 0.  1.
<mgrwt>
<rscale>  0 0.69847176E+03</rscale>
<asrwt>0</asrwt>
<pdfrwt beam="1">  1        1 0.26839108E+00 0.69847176E+03</pdfrwt>
<pdfrwt beam="2">  1       -2 0.68470856E-01 0.69847176E+03</pdfrwt>
<totfact> 0.79542089E+00</totfact>
</mgrwt>
</event>
<event>
12    3  0.1182097E-007  0.1212530E+04  0.7818608E-02  0.9101959E-01
         -2   -1    0    0    0  501 -0.00000000000E+00  0.00000000000E+00  0.43093077611E+03  0.43093077611E+03  0.00000000000E+00 0.  1.
          1   -1    0    0  501    0  0.00000000000E+00 -0.00000000000E+00 -0.50266531683E+04  0.50266531683E+04  0.00000000000E+00 0. -1.
        -24    2    1    2    0    0  0.11146204221E+04  0.28929405144E+03 -0.69702734926E+03  0.13483390650E+04  0.78111299073E+02 0.  0.
    5000000    2    1    2    0    0 -0.11146204221E+04 -0.28929405144E+03 -0.38986950429E+04  0.41092448794E+04  0.60000058990E+03 0.  0.
        -24    2    4    4    0    0 -0.66352823659E+03  0.10334712227E+03 -0.23991282815E+04  0.24928579170E+04  0.87027210070E+02 0.  0.
         24    2    4    4    0    0 -0.45109218549E+03 -0.39264117371E+03 -0.14995667614E+04  0.16163869624E+04  0.79718811722E+02 0.  0.
         13    1    3    3    0    0  0.95387471837E+03  0.21926177233E+03 -0.59769819092E+03  0.11468198771E+04  0.00000000000E+00 0. -1.
        -14    1    3    3    0    0  0.16074570370E+03  0.70032279115E+02 -0.99329158338E+02  0.20151918785E+03  0.00000000000E+00 0.  1.
         15    1    5    5    0    0 -0.22786713984E+03  0.22630189031E+02 -0.67867719502E+03  0.71626911957E+03  0.17770000000E+01 0. -1.
        -16    1    5    5    0    0 -0.43566109674E+03  0.80716933236E+02 -0.17204510864E+04  0.17765887975E+04  0.00000000000E+00 0.  1.
          2    1    6    6  502    0 -0.68642374128E+02 -0.75739409239E+02 -0.33712391488E+03  0.35227938859E+03  0.00000000000E+00 0. -1.
         -1    1    6    6    0  502 -0.38244981136E+03 -0.31690176447E+03 -0.11624428466E+04  0.12641075738E+04  0.00000000000E+00 0.  1.
<mgrwt>
<rscale>  0 0.12125300E+04</rscale>
<asrwt>0</asrwt>
<pdfrwt beam="1">  1        1 0.77333128E+00 0.12125300E+04</pdfrwt>
<pdfrwt beam="2">  1       -2 0.66297041E-01 0.12125300E+04</pdfrwt>
<totfact> 0.15380617E-02</totfact>
</mgrwt>
</event>
<event>
12    3  0.1182097E-007  0.9950023E+03  0.7818608E-02  0.9314043E-01
         -2   -1    0    0    0  501 -0.00000000000E+00  0.00000000000E+00  0.58049852990E+03  0.58049852990E+03  0.00000000000E+00 0.  1.
          1   -1    0    0  501    0  0.00000000000E+00 -0.00000000000E+00 -0.19871479902E+04  0.19871479902E+04  0.00000000000E+00 0. -1.
        -24    2    1    2    0    0  0.52840003537E+03 -0.82982330267E+03 -0.53389261476E+03  0.11221276639E+04  0.79472378053E+02 0.  0.
    5000000    2    1    2    0    0 -0.52840003537E+03  0.82982330267E+03 -0.87275684552E+03  0.14455188562E+04  0.60000578435E+03 0.  0.
        -24    2    4    4    0    0 -0.27170576644E+03  0.56248068715E+03 -0.86042178921E+03  0.10662390857E+04  0.79571261607E+02 0.  0.
         24    2    4    4    0    0 -0.25669426893E+03  0.26734261552E+03 -0.12335056309E+02  0.37927977048E+03  0.79605080923E+02 0.  0.
         11    1    3    3    0    0  0.16134470805E+03 -0.21786868645E+03 -0.11349004553E+03  0.29390282371E+03  0.00000000000E+00 0. -1.
        -12    1    3    3    0    0  0.36705532732E+03 -0.61195461622E+03 -0.42040256922E+03  0.82822484015E+03  0.00000000000E+00 0.  1.
         15    1    5    5    0    0 -0.26691806996E+03  0.52794385214E+03 -0.78325547012E+03  0.98156113222E+03  0.17770000000E+01 0. -1.
        -16    1    5    5    0    0 -0.47876964855E+01  0.34536835001E+02 -0.77166319085E+02  0.84677953510E+02  0.00000000000E+00 0.  1.
          4    1    6    6  502    0 -0.26160962788E+03  0.26718112515E+03 -0.13675794941E+02  0.37418227965E+03  0.00000000000E+00 0. -1.
         -3    1    6    6    0  502  0.49153589488E+01  0.16149037074E+00  0.13407386324E+01  0.50974908353E+01  0.00000000000E+00 0.  1.
<mgrwt>
<rscale>  0 0.99500230E+03</rscale>
<asrwt>0</asrwt>
<pdfrwt beam="1">  1        1 0.30571508E+00 0.99500230E+03</pdfrwt>
<pdfrwt beam="2">  1       -2 0.89307465E-01 0.99500230E+03</pdfrwt>
<totfact> 0.28919604E+00</totfact>
</mgrwt>
</event>
<event>
12    3  0.1182097E-007  0.7974764E+03  0.7818608E-02  0.9563677E-01
         -2   -1    0    0    0  501 -0.00000000000E+00  0.00000000000E+00  0.63535397241E+03  0.63535397241E+03  0.00000000000E+00 0.  1.
          1   -1    0    0  501    0  0.00000000000E+00 -0.00000000000E+00 -0.11393642839E+04  0.11393642839E+04  0.00000000000E+00 0. -1.
        -24    2    1    2    0    0  0.62799163985E+03  0.27967541662E+03 -0.51415896537E+03  0.86203189336E+03  0.78407302761E+02 0.  0.
    5000000    2    1    2    0    0 -0.62799163985E+03 -0.27967541662E+03  0.10148653905E+02  0.91268636291E+03  0.60025125030E+03 0.  0.
        -24    2    4    4    0    0 -0.52604557569E+03  0.71998567058E+02 -0.20482318253E+02  0.53721106725E+03  0.79173632310E+02 0.  0.
         24    2    4    4    0    0 -0.10194606416E+03 -0.35167398368E+03  0.30630972158E+02  0.37547529566E+03  0.77303624765E+02 0.  0.
         13    1    3    3    0    0  0.51812076138E+03  0.26073214745E+03 -0.42039157361E+03  0.71635148583E+03  0.00000000000E+00 0. -1.
        -14    1    3    3    0    0  0.10987087847E+03  0.18943269169E+02 -0.93767391757E+02  0.14568040754E+03  0.00000000000E+00 0.  1.
         15    1    5    5    0    0 -0.26922643892E+03  0.34200465872E+02  0.29035343238E+02  0.27294460274E+03  0.17770000000E+01 0. -1.
        -16    1    5    5    0    0 -0.25681913677E+03  0.37798101186E+02 -0.49517661491E+02  0.26426646451E+03  0.00000000000E+00 0.  1.
          2    1    6    6  502    0 -0.11647641080E+02 -0.16161259895E+03  0.31432603745E+02  0.16505244094E+03  0.00000000000E+00 0. -1.
         -1    1    6    6    0  502 -0.90298423076E+02 -0.19006138473E+03 -0.80163158709E+00  0.21042285472E+03  0.00000000000E+00 0.  1.
<mgrwt>
<rscale>  0 0.79747643E+03</rscale>
<asrwt>0</asrwt>
<pdfrwt beam="1">  1        1 0.17528681E+00 0.79747643E+03</pdfrwt>
<pdfrwt beam="2">  1       -2 0.97746766E-01 0.79747643E+03</pdfrwt>
<totfact> 0.92400651E+00</totfact>
</mgrwt>
</event>
<event>
12    3  0.1182097E-007  0.4693053E+03  0.7818608E-02  0.1022116E+00
          1   -1    0    0  501    0  0.00000000000E+00  0.00000000000E+00  0.12019200073E+04  0.12019200073E+04  0.00000000000E+00 0. -1.
         -2   -1    0    0    0  501 -0.00000000000E+00 -0.00000000000E+00 -0.23855559446E+03  0.23855559446E+03  0.00000000000E+00 0.  1.
        -24    2    1    2    0    0 -0.34798015233E+03  0.44792076629E+01  0.46360185149E+03  0.58551410119E+03  0.82400462831E+02 0.  0.
    5000000    2    1    2    0    0  0.34798015233E+03 -0.44792076629E+01  0.49976256135E+03  0.85496150057E+03  0.60007191236E+03 0.  0.
        -24    2    4    4    0    0  0.25505680272E+03  0.21656951025E+03  0.49379946328E+03  0.60281739763E+03  0.87146885062E+02 0.  0.
         24    2    4    4    0    0  0.92923349612E+02 -0.22104871791E+03  0.59630980768E+01  0.25214410293E+03  0.77741916043E+02 0.  0.
         13    1    3    3    0    0 -0.31525554300E+03  0.26990433372E+02  0.39339929061E+03  0.50485398161E+03  0.00000000000E+00 0. -1.
        -14    1    3    3    0    0 -0.32724609331E+02 -0.22511225709E+02  0.70202560875E+02  0.80660119589E+02  0.00000000000E+00 0.  1.
         15    1    5    5    0    0  0.15484245011E+03  0.13664326188E+03  0.37469638626E+03  0.42784121468E+03  0.17770000000E+01 0. -1.
        -16    1    5    5    0    0  0.10021435261E+03  0.79926248367E+02  0.11910307702E+03  0.17497618296E+03  0.00000000000E+00 0.  1.
          2    1    6    6  502    0  0.72961521754E+02 -0.21481118656E+03  0.18739580793E+02  0.22763655553E+03  0.00000000000E+00 0. -1.
         -1    1    6    6    0  502  0.19961827858E+02 -0.62375313565E+01 -0.12776482717E+02  0.24507547398E+02  0.00000000000E+00 0.  1.
<mgrwt>
<rscale>  0 0.46930527E+03</rscale>
<asrwt>0</asrwt>
<pdfrwt beam="1">  1        1 0.18491077E+00 0.46930527E+03</pdfrwt>
<pdfrwt beam="2">  1       -2 0.36700861E-01 0.46930527E+03</pdfrwt>
<totfact> 0.68828586E+01</totfact>
</mgrwt>
</event>
<event>
12    3  0.1182097E-007  0.6314773E+03  0.7818608E-02  0.9842170E-01
          1   -1    0    0  501    0  0.00000000000E+00  0.00000000000E+00  0.65105969713E+03  0.65105969713E+03  0.00000000000E+00 0. -1.
         -2   -1    0    0    0  501 -0.00000000000E+00 -0.00000000000E+00 -0.62739296008E+03  0.62739296008E+03  0.00000000000E+00 0.  1.
        -24    2    1    2    0    0  0.49256242244E+03  0.41779985378E+02 -0.22721139842E+01  0.50064236856E+03  0.79210551809E+02 0.  0.
    5000000    2    1    2    0    0 -0.49256242244E+03 -0.41779985378E+02  0.25938851030E+02  0.77781028865E+03  0.59996059367E+03 0.  0.
        -24    2    4    4    0    0 -0.24263457245E+02 -0.24605267718E+03 -0.95147448583E+01  0.25961208335E+03  0.78595598779E+02 0.  0.
         24    2    4    4    0    0 -0.46829896520E+03  0.20427269180E+03  0.35453595888E+02  0.51819820530E+03  0.79001070215E+02 0.  0.
         13    1    3    3    0    0  0.14897729853E+03  0.35935777280E+02  0.27584499945E+02  0.15571294167E+03  0.00000000000E+00 0. -1.
        -14    1    3    3    0    0  0.34358512391E+03  0.58442080984E+01 -0.29856613929E+02  0.34492942690E+03  0.00000000000E+00 0.  1.
         15    1    5    5    0    0 -0.23501425869E+02 -0.75060916378E+02  0.29849087289E+02  0.84146205656E+02  0.17770000000E+01 0. -1.
        -16    1    5    5    0    0 -0.76203137565E+00 -0.17099176080E+03 -0.39363832147E+02  0.17546587769E+03  0.00000000000E+00 0.  1.
          4    1    6    6  502    0 -0.39683887872E+03  0.14157723477E+03  0.38435960174E+02  0.42308690846E+03  0.00000000000E+00 0. -1.
         -3    1    6    6    0  502 -0.71460086474E+02  0.62695457027E+02 -0.29823642854E+01  0.95111296844E+02  0.00000000000E+00 0.  1.
<mgrwt>
<rscale>  0 0.63147725E+03</rscale>
<asrwt>0</asrwt>
<pdfrwt beam="1">  1        1 0.10016303E+00 0.63147725E+03</pdfrwt>
<pdfrwt beam="2">  1       -2 0.96521994E-01 0.63147725E+03</pdfrwt>
<totfact> 0.24627684E+01</totfact>
</mgrwt>
</event>
<event>
12    3  0.1182097E-007  0.5479256E+03  0.7818608E-02  0.1001975E+00
          1   -1    0    0  501    0  0.00000000000E+00  0.00000000000E+00  0.34014847217E+03  0.34014847217E+03  0.00000000000E+00 0. -1.
         -2   -1    0    0    0  501 -0.00000000000E+00 -0.00000000000E+00 -0.19921119454E+04  0.19921119454E+04  0.00000000000E+00 0.  1.
        -24    2    1    2    0    0  0.28221211981E+03  0.26728289162E+03  0.12670767088E+03  0.41527234411E+03  0.72886632526E+02 0.  0.
    5000000    2    1    2    0    0 -0.28221211981E+03 -0.26728289162E+03 -0.17786711441E+04  0.19169880734E+04  0.60007367064E+03 0.  0.
        -24    2    4    4    0    0 -0.74504133537E+02 -0.42567677383E+03 -0.10434069479E+04  0.11320905125E+04  0.78608446446E+02 0.  0.
         24    2    4    4    0    0 -0.20770798628E+03  0.15839388221E+03 -0.73526419618E+03  0.78489756094E+03  0.84967720401E+02 0.  0.
         11    1    3    3    0    0  0.51878663222E+02  0.17895227090E+02  0.28681736317E+02  0.61921537839E+02  0.00000000000E+00 0. -1.
        -12    1    3    3    0    0  0.23033345659E+03  0.24938766453E+03  0.98025934561E+02  0.35335080627E+03  0.00000000000E+00 0.  1.
         15    1    5    5    0    0 -0.84853345753E+02 -0.29134120028E+03 -0.75779366601E+03  0.81629295185E+03  0.17770000000E+01 0. -1.
        -16    1    5    5    0    0  0.10349212216E+02 -0.13433557355E+03 -0.28561328188E+03  0.31579756063E+03  0.00000000000E+00 0.  1.
          4    1    6    6  502    0 -0.69398239515E+02  0.33971221631E+02 -0.33072164667E+03  0.33962768899E+03  0.00000000000E+00 0. -1.
         -3    1    6    6    0  502 -0.13830974676E+03  0.12442266058E+03 -0.40454254950E+03  0.44526987196E+03  0.00000000000E+00 0.  1.
<mgrwt>
<rscale>  0 0.54792563E+03</rscale>
<asrwt>0</asrwt>
<pdfrwt beam="1">  1        1 0.52330536E-01 0.54792563E+03</pdfrwt>
<pdfrwt beam="2">  1       -2 0.30647875E+00 0.54792563E+03</pdfrwt>
<totfact> 0.20456452E+00</totfact>
</mgrwt>
</event>
<event>
12    3  0.1182097E-007  0.9649155E+03  0.7818608E-02  0.9347885E-01
          1   -1    0    0  501    0  0.00000000000E+00  0.00000000000E+00  0.15103727001E+04  0.15103727001E+04  0.00000000000E+00 0. -1.
         -2   -1    0    0    0  501 -0.00000000000E+00 -0.00000000000E+00 -0.62906048458E+03  0.62906048458E+03  0.00000000000E+00 0.  1.
        -24    2    1    2    0    0 -0.85543875209E+03  0.20637615389E+03  0.42063522669E+03  0.97898548862E+03  0.84332778381E+02 0.  0.
    5000000    2    1    2    0    0  0.85543875209E+03 -0.20637615389E+03  0.46067698883E+03  0.11604476961E+04  0.60004082510E+03 0.  0.
        -24    2    4    4    0    0  0.77914958409E+03  0.49593932232E+02  0.36274852934E+03  0.86447676279E+03  0.78739731830E+02 0.  0.
         24    2    4    4    0    0  0.76289168008E+02 -0.25597008612E+03  0.97928459495E+02  0.29597093328E+03  0.81658361625E+02 0.  0.
         11    1    3    3    0    0 -0.37898458867E+03  0.64456487572E+02  0.21965482474E+03  0.44275523630E+03  0.00000000000E+00 0. -1.
        -12    1    3    3    0    0 -0.47645416342E+03  0.14191966632E+03  0.20098040196E+03  0.53623025231E+03  0.00000000000E+00 0.  1.
         15    1    5    5    0    0  0.76125101775E+03  0.49225744844E+02  0.33910017625E+03  0.83481637097E+03  0.17770000000E+01 0. -1.
        -16    1    5    5    0    0  0.17898566334E+02  0.36818738861E+00  0.23648353091E+02  0.29660391816E+02  0.00000000000E+00 0.  1.
          4    1    6    6  502    0  0.74253722865E+02 -0.25418918175E+03  0.10766723842E+03  0.28586358583E+03  0.00000000000E+00 0. -1.
         -3    1    6    6    0  502  0.20354451429E+01 -0.17809043745E+01 -0.97387789301E+01  0.10107347445E+02  0.00000000000E+00 0.  1.
<mgrwt>
<rscale>  0 0.96491549E+03</rscale>
<asrwt>0</asrwt>
<pdfrwt beam="1">  1        1 0.23236503E+00 0.96491549E+03</pdfrwt>
<pdfrwt beam="2">  1       -2 0.96778536E-01 0.96491549E+03</pdfrwt>
<totfact> 0.50632808E+00</totfact>
</mgrwt>
</event>
<event>
12    3  0.1182097E-007  0.7679211E+03  0.7818608E-02  0.9607647E-01
         -4   -1    0    0    0  501 -0.00000000000E+00  0.00000000000E+00  0.63245299165E+03  0.63245299165E+03  0.00000000000E+00 0.  1.
          3   -1    0    0  501    0  0.00000000000E+00 -0.00000000000E+00 -0.17995164375E+04  0.17995164375E+04  0.00000000000E+00 0. -1.
        -24    2    1    2    0    0 -0.65245950646E+03  0.30288716119E+03  0.22154955061E+03  0.75693506580E+03  0.80140192648E+02 0.  0.
    5000000    2    1    2    0    0  0.65245950646E+03 -0.30288716119E+03 -0.13886129965E+04  0.16750343633E+04  0.60004168560E+03 0.  0.
        -24    2    4    4    0    0  0.65374777060E+03 -0.19856312819E+03 -0.13818306549E+04  0.15435726638E+04  0.79668978613E+02 0.  0.
         24    2    4    4    0    0 -0.12882641372E+01 -0.10432403301E+03 -0.67823415236E+01  0.13146169952E+03  0.79693254391E+02 0.  0.
         13    1    3    3    0    0 -0.21158683583E+03  0.12537890245E+03  0.10605681505E+03  0.26783746246E+03  0.00000000000E+00 0. -1.
        -14    1    3    3    0    0 -0.44087267063E+03  0.17750825874E+03  0.11549273556E+03  0.48909760334E+03  0.00000000000E+00 0.  1.
         15    1    5    5    0    0  0.17582184076E+03 -0.68097596843E+02 -0.31103015970E+03  0.36372176228E+03  0.17770000000E+01 0. -1.
        -16    1    5    5    0    0  0.47792592984E+03 -0.13046553134E+03 -0.10708004952E+04  0.11798509016E+04  0.00000000000E+00 0.  1.
          2    1    6    6  502    0 -0.14120424684E+02 -0.11382288650E+03 -0.17037666972E+01  0.11470805859E+03  0.00000000000E+00 0. -1.
         -1    1    6    6    0  502  0.12832160546E+02  0.94988534933E+01 -0.50785748264E+01  0.16753640925E+02  0.00000000000E+00 0.  1.
<mgrwt>
<rscale>  0 0.76792109E+03</rscale>
<asrwt>0</asrwt>
<pdfrwt beam="1">  1        3 0.27684868E+00 0.76792109E+03</pdfrwt>
<pdfrwt beam="2">  1       -4 0.97300461E-01 0.76792109E+03</pdfrwt>
<totfact> 0.10425868E-01</totfact>
</mgrwt>
</event>
<event>
12    3  0.1182097E-007  0.6939735E+03  0.7818608E-02  0.9727594E-01
          1   -1    0    0  501    0  0.00000000000E+00  0.00000000000E+00  0.93939279407E+03  0.93939279407E+03  0.00000000000E+00 0. -1.
         -2   -1    0    0    0  501 -0.00000000000E+00 -0.00000000000E+00 -0.13641922281E+04  0.13641922281E+04  0.00000000000E+00 0.  1.
        -24    2    1    2    0    0 -0.41985312735E+03 -0.53983126535E+03  0.61414743849E+03  0.92241483323E+03  0.77314971209E+02 0.  0.
    5000000    2    1    2    0    0  0.41985312735E+03  0.53983126535E+03 -0.10389468725E+04  0.13811701889E+04  0.60043820936E+03 0.  0.
        -24    2    4    4    0    0  0.33241623856E+03  0.47265021652E+03 -0.35141909225E+03  0.68085757365E+03  0.78567641943E+02 0.  0.
         24    2    4    4    0    0  0.87436888784E+02  0.67181048828E+02 -0.68752778023E+03  0.70031261524E+03  0.74731570563E+02 0.  0.
         13    1    3    3    0    0 -0.24667546821E+03 -0.37578229728E+03  0.41131961913E+03  0.60929873678E+03  0.00000000000E+00 0. -1.
        -14    1    3    3    0    0 -0.17317765914E+03 -0.16404896807E+03  0.20282781935E+03  0.31311609645E+03  0.00000000000E+00 0.  1.
         15    1    5    5    0    0  0.10836023388E+03  0.19956460212E+03 -0.17056794465E+03  0.28401505625E+03  0.17770000000E+01 0. -1.
        -16    1    5    5    0    0  0.22405600469E+03  0.27308561440E+03 -0.18085114760E+03  0.39684251740E+03  0.00000000000E+00 0.  1.
          2    1    6    6  502    0  0.90586952386E+02  0.52824591394E+02 -0.43900325295E+03  0.45135384068E+03  0.00000000000E+00 0. -1.
         -1    1    6    6    0  502 -0.31500636023E+01  0.14356457434E+02 -0.24852452728E+03  0.24895877456E+03  0.00000000000E+00 0.  1.
<mgrwt>
<rscale>  0 0.69397349E+03</rscale>
<asrwt>0</asrwt>
<pdfrwt beam="1">  1        1 0.14452197E+00 0.69397349E+03</pdfrwt>
<pdfrwt beam="2">  1       -2 0.20987573E+00 0.69397349E+03</pdfrwt>
<totfact> 0.17716080E+00</totfact>
</mgrwt>
</event>
<event>
12    3  0.1182097E-007  0.4475514E+03  0.7818608E-02  0.1028455E+00
          1   -1    0    0  501    0  0.00000000000E+00  0.00000000000E+00  0.10311804166E+04  0.10311804166E+04  0.00000000000E+00 0. -1.
         -2   -1    0    0    0  501 -0.00000000000E+00 -0.00000000000E+00 -0.23474518458E+03  0.23474518458E+03  0.00000000000E+00 0.  1.
        -24    2    1    2    0    0  0.12835515840E+03 -0.27091320485E+03  0.31978638001E+03  0.44314554774E+03  0.65158548130E+02 0.  0.
    5000000    2    1    2    0    0 -0.12835515840E+03  0.27091320485E+03  0.47664885204E+03  0.82278005347E+03  0.59991989214E+03 0.  0.
        -24    2    4    4    0    0 -0.10437318920E+02  0.39812652118E+03  0.48428604095E+03  0.63188649488E+03  0.78319272566E+02 0.  0.
         24    2    4    4    0    0 -0.11791783948E+03 -0.12721331633E+03 -0.76371889068E+01  0.19089355859E+03  0.79335864134E+02 0.  0.
         11    1    3    3    0    0  0.42246591529E+02 -0.16234978963E+03  0.16303541399E+03  0.23392899543E+03  0.00000000000E+00 0. -1.
        -12    1    3    3    0    0  0.86108566869E+02 -0.10856341522E+03  0.15675096602E+03  0.20921655231E+03  0.00000000000E+00 0.  1.
         15    1    5    5    0    0 -0.49090766764E+01  0.13881293480E+03  0.11348622022E+03  0.17937505348E+03  0.17770000000E+01 0. -1.
        -16    1    5    5    0    0 -0.55282422434E+01  0.25931358638E+03  0.37079982073E+03  0.45251144140E+03  0.00000000000E+00 0.  1.
          4    1    6    6  502    0 -0.36246401175E+02  0.34477919099E+01 -0.52682609231E+01  0.36789175587E+02  0.00000000000E+00 0. -1.
         -3    1    6    6    0  502 -0.81671438304E+02 -0.13066110824E+03 -0.23689279837E+01  0.15410438300E+03  0.00000000000E+00 0.  1.
<mgrwt>
<rscale>  0 0.44755141E+03</rscale>
<asrwt>0</asrwt>
<pdfrwt beam="1">  1        1 0.15864314E+00 0.44755141E+03</pdfrwt>
<pdfrwt beam="2">  1       -2 0.36114644E-01 0.44755141E+03</pdfrwt>
<totfact> 0.94908632E+01</totfact>
</mgrwt>
</event>
<event>
12    3  0.1182097E-007  0.5426824E+03  0.7818608E-02  0.1003202E+00
          1   -1    0    0  501    0  0.00000000000E+00  0.00000000000E+00  0.13248795928E+04  0.13248795928E+04  0.00000000000E+00 0. -1.
         -2   -1    0    0    0  501 -0.00000000000E+00 -0.00000000000E+00 -0.23200412519E+03  0.23200412519E+03  0.00000000000E+00 0.  1.
        -24    2    1    2    0    0  0.36965399370E+03 -0.11048259727E+03  0.42989385134E+03  0.58291142228E+03  0.78272111504E+02 0.  0.
    5000000    2    1    2    0    0 -0.36965399370E+03  0.11048259727E+03  0.66298161627E+03  0.97397229572E+03  0.60018907851E+03 0.  0.
        -24    2    4    4    0    0 -0.29532910225E+03  0.34148400172E+03  0.43975628454E+03  0.63525268531E+03  0.79559929281E+02 0.  0.
         24    2    4    4    0    0 -0.74324891458E+02 -0.23100140445E+03  0.22322533173E+03  0.33871961041E+03  0.77560217902E+02 0.  0.
         11    1    3    3    0    0  0.15916491538E+03 -0.71894872889E+02  0.23992440840E+03  0.29675927076E+03  0.00000000000E+00 0. -1.
        -12    1    3    3    0    0  0.21048907833E+03 -0.38587724383E+02  0.18996944294E+03  0.28615215152E+03  0.00000000000E+00 0.  1.
         15    1    5    5    0    0 -0.38817775855E+02  0.65049721726E+02  0.39969878610E+02  0.85668167624E+02  0.17770000000E+01 0. -1.
        -16    1    5    5    0    0 -0.25651132639E+03  0.27643427999E+03  0.39978640593E+03  0.54958451769E+03  0.00000000000E+00 0.  1.
          2    1    6    6  502    0 -0.22183654519E+01 -0.33632232619E+02  0.22402193034E+01  0.33779680264E+02  0.00000000000E+00 0. -1.
         -1    1    6    6    0  502 -0.72106526006E+02 -0.19736917183E+03  0.22098511243E+03  0.30493993014E+03  0.00000000000E+00 0.  1.
<mgrwt>
<rscale>  0 0.54268239E+03</rscale>
<asrwt>0</asrwt>
<pdfrwt beam="1">  1        1 0.20382763E+00 0.54268239E+03</pdfrwt>
<pdfrwt beam="2">  1       -2 0.35692943E-01 0.54268239E+03</pdfrwt>
<totfact> 0.58857738E+01</totfact>
</mgrwt>
</event>
<event>
12    3  0.1182097E-007  0.5187984E+03  0.7818608E-02  0.1008985E+00
         -2   -1    0    0    0  501 -0.00000000000E+00  0.00000000000E+00  0.33728062459E+03  0.33728062459E+03  0.00000000000E+00 0.  1.
          1   -1    0    0  501    0  0.00000000000E+00 -0.00000000000E+00 -0.10326280009E+04  0.10326280009E+04  0.00000000000E+00 0. -1.
        -24    2    1    2    0    0  0.24910396737E+03  0.34973079877E+03 -0.32608738409E+03  0.54487844176E+03  0.78709059584E+02 0.  0.
    5000000    2    1    2    0    0 -0.24910396737E+03 -0.34973079877E+03 -0.36925999227E+03  0.82503018377E+03  0.59996453568E+03 0.  0.
        -24    2    4    4    0    0 -0.27724751239E+03 -0.30310187442E+02 -0.39920453686E+03  0.49355867420E+03  0.80318192467E+02 0.  0.
         24    2    4    4    0    0  0.28143545022E+02 -0.31942061133E+03  0.29944544592E+02  0.33147150957E+03  0.78454444333E+02 0.  0.
         11    1    3    3    0    0  0.10399355960E+03  0.10686262175E+03 -0.76432547340E+02  0.16755958540E+03  0.00000000000E+00 0. -1.
        -12    1    3    3    0    0  0.14511040777E+03  0.24286817702E+03 -0.24965483675E+03  0.37731885636E+03  0.00000000000E+00 0.  1.
         15    1    5    5    0    0 -0.71108051178E+02 -0.83534854602E+01 -0.17022740909E+03  0.18467989657E+03  0.17770000000E+01 0. -1.
        -16    1    5    5    0    0 -0.20613946121E+03 -0.21956701982E+02 -0.22897712776E+03  0.30887877763E+03  0.00000000000E+00 0.  1.
          2    1    6    6  502    0  0.29890538847E+02 -0.58288948165E+02 -0.13119634638E+02  0.66806965234E+02  0.00000000000E+00 0. -1.
         -1    1    6    6    0  502 -0.17469938246E+01 -0.26113166317E+03  0.43064179230E+02  0.26466454434E+03  0.00000000000E+00 0.  1.
<mgrwt>
<rscale>  0 0.51879837E+03</rscale>
<asrwt>0</asrwt>
<pdfrwt beam="1">  1        1 0.15886585E+00 0.51879837E+03</pdfrwt>
<pdfrwt beam="2">  1       -2 0.51889327E-01 0.51879837E+03</pdfrwt>
<totfact> 0.45991075E+01</totfact>
</mgrwt>
</event>
<event>
12    3  0.1182097E-007  0.2201711E+04  0.7818608E-02  0.8517716E-01
          1   -1    0    0  501    0  0.00000000000E+00  0.00000000000E+00  0.19067720786E+04  0.19067720786E+04  0.00000000000E+00 0. -1.
         -2   -1    0    0    0  501 -0.00000000000E+00 -0.00000000000E+00 -0.30977997072E+04  0.30977997072E+04  0.00000000000E+00 0.  1.
        -24    2    1    2    0    0  0.19634363601E+04 -0.98877169578E+03 -0.15590897288E+04  0.26962918353E+04  0.80480259908E+02 0.  0.
    5000000    2    1    2    0    0 -0.19634363601E+04  0.98877169578E+03  0.36806210017E+03  0.23082799504E+04  0.59994567532E+03 0.  0.
        -24    2    4    4    0    0 -0.99124343542E+03  0.55315125489E+03 -0.98970631045E+02  0.11422308069E+04  0.79725600582E+02 0.  0.
         24    2    4    4    0    0 -0.97219292469E+03  0.43562044089E+03  0.46703273122E+03  0.11660491435E+04  0.81405047248E+02 0.  0.
         13    1    3    3    0    0  0.11415369012E+04 -0.61917642326E+03 -0.92112781549E+03  0.15921565226E+04  0.00000000000E+00 0. -1.
        -14    1    3    3    0    0  0.82189945894E+03 -0.36959527252E+03 -0.63796191334E+03  0.11041353128E+04  0.00000000000E+00 0.  1.
         15    1    5    5    0    0 -0.78494133394E+03  0.46968702503E+03 -0.94920747627E+02  0.91964770715E+03  0.17770000000E+01 0. -1.
        -16    1    5    5    0    0 -0.20630210148E+03  0.83464229856E+02 -0.40498834182E+01  0.22258309975E+03  0.00000000000E+00 0.  1.
          4    1    6    6  502    0 -0.58881864444E+03  0.23916941186E+03  0.31419433168E+03  0.70896225687E+03  0.00000000000E+00 0. -1.
         -3    1    6    6    0  502 -0.38337428025E+03  0.19645102903E+03  0.15283839954E+03  0.45708688664E+03  0.00000000000E+00 0.  1.
<mgrwt>
<rscale>  0 0.22017112E+04</rscale>
<asrwt>0</asrwt>
<pdfrwt beam="1">  1        1 0.29334955E+00 0.22017112E+04</pdfrwt>
<pdfrwt beam="2">  1       -2 0.47658457E+00 0.22017112E+04</pdfrwt>
<totfact> 0.60604798E-03</totfact>
</mgrwt>
</event>
<event>
12    3  0.1182097E-007  0.5710362E+03  0.7818608E-02  0.9967388E-01
          1   -1    0    0  501    0  0.00000000000E+00  0.00000000000E+00  0.63373553300E+03  0.63373553300E+03  0.00000000000E+00 0. -1.
         -2   -1    0    0    0  501 -0.00000000000E+00 -0.00000000000E+00 -0.23591332095E+04  0.23591332095E+04  0.00000000000E+00 0.  1.
        -24    2    1    2    0    0  0.41598044346E+03 -0.51177120358E+02 -0.21192630385E+04  0.21617591161E+04  0.79169581776E+02 0.  0.
    5000000    2    1    2    0    0 -0.41598044346E+03  0.51177120358E+02  0.39386536193E+03  0.83110962647E+03  0.59996204954E+03 0.  0.
        -24    2    4    4    0    0 -0.25843949391E+03  0.31142746425E+03  0.17521704683E+03  0.44849759439E+03  0.81676441974E+02 0.  0.
         24    2    4    4    0    0 -0.15754094955E+03 -0.26025034389E+03  0.21864831510E+03  0.38261203208E+03  0.77688410408E+02 0.  0.
         13    1    3    3    0    0  0.48002575456E+02 -0.85095871473E+00 -0.14143260266E+03  0.14935913924E+03  0.00000000000E+00 0. -1.
        -14    1    3    3    0    0  0.36797786800E+03 -0.50326161643E+02 -0.19778304358E+04  0.20123999768E+04  0.00000000000E+00 0.  1.
         15    1    5    5    0    0 -0.11544281493E+02  0.52269072882E+02  0.10954477173E+02  0.54667034987E+02  0.17770000000E+01 0. -1.
        -16    1    5    5    0    0 -0.24689521241E+03  0.25915839137E+03  0.16426256966E+03  0.39383055940E+03  0.00000000000E+00 0.  1.
          4    1    6    6  502    0 -0.95732817034E+02 -0.21246114905E+03  0.14052091757E+03  0.27212247314E+03  0.00000000000E+00 0. -1.
         -3    1    6    6    0  502 -0.61808132520E+02 -0.47789194841E+02  0.78127397528E+02  0.11048955893E+03  0.00000000000E+00 0.  1.
<mgrwt>
<rscale>  0 0.57103619E+03</rscale>
<asrwt>0</asrwt>
<pdfrwt beam="1">  1        1 0.97497771E-01 0.57103619E+03</pdfrwt>
<pdfrwt beam="2">  1       -2 0.36294358E+00 0.57103619E+03</pdfrwt>
<totfact> 0.39610710E-01</totfact>
</mgrwt>
</event>
<event>
12    3  0.1182097E-007  0.6490461E+03  0.7818608E-02  0.9808571E-01
         -2   -1    0    0    0  501 -0.00000000000E+00  0.00000000000E+00  0.53280276820E+03  0.53280276820E+03  0.00000000000E+00 0.  1.
          1   -1    0    0  501    0  0.00000000000E+00 -0.00000000000E+00 -0.11035489349E+04  0.11035489349E+04  0.00000000000E+00 0. -1.
        -24    2    1    2    0    0 -0.24493992945E+03  0.57995205250E+03 -0.85097230648E+02  0.64025612674E+03  0.79664401853E+02 0.  0.
    5000000    2    1    2    0    0  0.24493992945E+03 -0.57995205250E+03 -0.48564893609E+03  0.99609557639E+03  0.60000962988E+03 0.  0.
        -24    2    4    4    0    0  0.49802166113E+02 -0.31672434959E+03 -0.56021606606E+03  0.65087126641E+03  0.83646849237E+02 0.  0.
         24    2    4    4    0    0  0.19513776334E+03 -0.26322770291E+03  0.74567129973E+02  0.34522430999E+03  0.79069571105E+02 0.  0.
         13    1    3    3    0    0 -0.68020530309E+02  0.26086689268E+03 -0.29606590787E+02  0.27121002647E+03  0.00000000000E+00 0. -1.
        -14    1    3    3    0    0 -0.17691939914E+03  0.31908515982E+03 -0.55490639861E+02  0.36904610027E+03  0.00000000000E+00 0.  1.
         15    1    5    5    0    0  0.58210142351E+02 -0.31104657486E+03 -0.51439297967E+03  0.60393848003E+03  0.17770000000E+01 0. -1.
        -16    1    5    5    0    0 -0.84079762380E+01 -0.56777747355E+01 -0.45823086390E+02  0.46932786372E+02  0.00000000000E+00 0.  1.
          4    1    6    6  502    0  0.15379472085E+03 -0.25023669594E+03  0.66214498943E+02  0.30109065084E+03  0.00000000000E+00 0. -1.
         -3    1    6    6    0  502  0.41343042488E+02 -0.12991006970E+02  0.83526310295E+01  0.44133659143E+02  0.00000000000E+00 0.  1.
<mgrwt>
<rscale>  0 0.64904613E+03</rscale>
<asrwt>0</asrwt>
<pdfrwt beam="1">  1        1 0.16977676E+00 0.64904613E+03</pdfrwt>
<pdfrwt beam="2">  1       -2 0.81969658E-01 0.64904613E+03</pdfrwt>
<totfact> 0.15008573E+01</totfact>
</mgrwt>
</event>
<event>
12    3  0.1182097E-007  0.1316699E+04  0.7818608E-02  0.9016427E-01
         -4   -1    0    0    0  501 -0.00000000000E+00  0.00000000000E+00  0.11510054118E+04  0.11510054118E+04  0.00000000000E+00 0.  1.
          1   -1    0    0  501    0  0.00000000000E+00 -0.00000000000E+00 -0.16638144056E+04  0.16638144056E+04  0.00000000000E+00 0. -1.
        -24    2    1    2    0    0  0.12178679377E+03  0.12483108623E+04 -0.65518433874E+03  0.14172905632E+04  0.79586373608E+02 0.  0.
    5000000    2    1    2    0    0 -0.12178679377E+03 -0.12483108623E+04  0.14237534495E+03  0.13975292542E+04  0.59975432095E+03 0.  0.
        -24    2    4    4    0    0  0.21313372267E+03 -0.30760572437E+03  0.98193179344E+02  0.39494406411E+03  0.79319908588E+02 0.  0.
         24    2    4    4    0    0 -0.33492051644E+03 -0.94070513792E+03  0.44182165605E+02  0.10025851901E+04  0.78275735903E+02 0.  0.
         13    1    3    3    0    0  0.72608031135E+02  0.46369224275E+03 -0.27578318882E+03  0.54437008497E+03  0.00000000000E+00 0. -1.
        -14    1    3    3    0    0  0.49178762635E+02  0.78461861954E+03 -0.37940114992E+03  0.87292047827E+03  0.00000000000E+00 0.  1.
         15    1    5    5    0    0  0.80419909715E+02 -0.73853515875E+02  0.56430859791E+02  0.12291990625E+03  0.17770000000E+01 0. -1.
        -16    1    5    5    0    0  0.13271381296E+03 -0.23375220849E+03  0.41762319553E+02  0.27202415786E+03  0.00000000000E+00 0.  1.
          4    1    6    6  502    0 -0.12959962387E+03 -0.29186297460E+03 -0.13209170703E+02  0.31961623963E+03  0.00000000000E+00 0. -1.
         -3    1    6    6    0  502 -0.20532089257E+03 -0.64884216332E+03  0.57391336308E+02  0.68296895047E+03  0.00000000000E+00 0.  1.
<mgrwt>
<rscale>  0 0.13166988E+04</rscale>
<asrwt>0</asrwt>
<pdfrwt beam="1">  1        1 0.25597145E+00 0.13166988E+04</pdfrwt>
<pdfrwt beam="2">  1       -4 0.17707776E+00 0.13166988E+04</pdfrwt>
<totfact> 0.43791820E-01</totfact>
</mgrwt>
</event>
<event>
12    3  0.1182097E-007  0.1535281E+04  0.7818608E-02  0.8861324E-01
         -2   -1    0    0    0  501 -0.00000000000E+00  0.00000000000E+00  0.18852362787E+04  0.18852362787E+04  0.00000000000E+00 0.  1.
          1   -1    0    0  501    0  0.00000000000E+00 -0.00000000000E+00 -0.13286941076E+04  0.13286941076E+04  0.00000000000E+00 0. -1.
        -24    2    1    2    0    0  0.90548712965E+03 -0.12266823849E+04  0.24302085328E+03  0.15458258124E+04  0.76561686989E+02 0.  0.
    5000000    2    1    2    0    0 -0.90548712965E+03  0.12266823849E+04  0.31352131786E+03  0.16681045739E+04  0.59968378119E+03 0.  0.
        -24    2    4    4    0    0 -0.36702598108E+03  0.33548849133E+03  0.36606257038E+03  0.62250700861E+03  0.79073204878E+02 0.  0.
         24    2    4    4    0    0 -0.53846114857E+03  0.89119389353E+03 -0.52541252514E+02  0.10455975653E+04  0.79666309973E+02 0.  0.
         13    1    3    3    0    0  0.45837913665E+03 -0.57063991101E+03  0.92418535816E+02  0.73775505875E+03  0.00000000000E+00 0. -1.
        -14    1    3    3    0    0  0.44710799300E+03 -0.65604247385E+03  0.15060231747E+03  0.80807075367E+03  0.00000000000E+00 0.  1.
         15    1    5    5    0    0 -0.93730816377E+01 -0.40067349953E+01  0.66062320077E+01  0.12276343717E+02  0.17770000000E+01 0. -1.
        -16    1    5    5    0    0 -0.35765289944E+03  0.33949522633E+03  0.35945633837E+03  0.61023066489E+03  0.00000000000E+00 0.  1.
          2    1    6    6  502    0 -0.38590564834E+03  0.63942458674E+03 -0.73563498550E+02  0.75046556208E+03  0.00000000000E+00 0. -1.
         -1    1    6    6    0  502 -0.15255550023E+03  0.25176930679E+03  0.21022246036E+02  0.29513200321E+03  0.00000000000E+00 0.  1.
<mgrwt>
<rscale>  0 0.15352813E+04</rscale>
<asrwt>0</asrwt>
<pdfrwt beam="1">  1        1 0.20441448E+00 0.15352813E+04</pdfrwt>
<pdfrwt beam="2">  1       -2 0.29003635E+00 0.15352813E+04</pdfrwt>
<totfact> 0.26027787E-01</totfact>
</mgrwt>
</event>
<event>
12    3  0.1182097E-007  0.6478175E+03  0.7818608E-02  0.9810883E-01
         -2   -1    0    0    0  501 -0.00000000000E+00  0.00000000000E+00  0.22887485468E+03  0.22887485468E+03  0.00000000000E+00 0.  1.
          1   -1    0    0  501    0  0.00000000000E+00 -0.00000000000E+00 -0.23460673685E+04  0.23460673685E+04  0.00000000000E+00 0. -1.
        -24    2    1    2    0    0  0.16321861104E+03 -0.57816785469E+03 -0.73243226425E+03  0.95063168955E+03  0.79531152791E+02 0.  0.
    5000000    2    1    2    0    0 -0.16321861104E+03  0.57816785469E+03 -0.13847602496E+04  0.16243105337E+04  0.59992114293E+03 0.  0.
        -24    2    4    4    0    0 -0.33881347896E+02  0.53509334413E+03 -0.54071446827E+03  0.76571101043E+03  0.80426255769E+02 0.  0.
         24    2    4    4    0    0 -0.12933726315E+03  0.43074510560E+02 -0.84404578131E+03  0.85859952323E+03  0.78716702450E+02 0.  0.
         11    1    3    3    0    0  0.53783837503E+02 -0.31126887463E+03 -0.34760050874E+03  0.46968832981E+03  0.00000000000E+00 0. -1.
        -12    1    3    3    0    0  0.10943477354E+03 -0.26689898006E+03 -0.38483175552E+03  0.48094335973E+03  0.00000000000E+00 0.  1.
         15    1    5    5    0    0  0.33738105680E+01  0.21825110326E+03 -0.17034485953E+03  0.27688527510E+03  0.17770000000E+01 0. -1.
        -16    1    5    5    0    0 -0.37255158464E+02  0.31684224088E+03 -0.37036960874E+03  0.48882573532E+03  0.00000000000E+00 0.  1.
          4    1    6    6  502    0 -0.10827434666E+03  0.25440599987E+01 -0.50442588392E+03  0.51592177581E+03  0.00000000000E+00 0. -1.
         -3    1    6    6    0  502 -0.21062916486E+02  0.40530450561E+02 -0.33961989739E+03  0.34267774742E+03  0.00000000000E+00 0.  1.
<mgrwt>
<rscale>  0 0.64781747E+03</rscale>
<asrwt>0</asrwt>
<pdfrwt beam="1">  1        1 0.36093345E+00 0.64781747E+03</pdfrwt>
<pdfrwt beam="2">  1       -2 0.35211516E-01 0.64781747E+03</pdfrwt>
<totfact> 0.12246105E+01</totfact>
</mgrwt>
</event>
<event>
12    3  0.1182097E-007  0.6235289E+03  0.7818608E-02  0.9857759E-01
          1   -1    0    0  501    0  0.00000000000E+00  0.00000000000E+00  0.30552761093E+03  0.30552761093E+03  0.00000000000E+00 0. -1.
         -2   -1    0    0    0  501 -0.00000000000E+00 -0.00000000000E+00 -0.16376844249E+04  0.16376844249E+04  0.00000000000E+00 0.  1.
        -24    2    1    2    0    0  0.44734375159E+02 -0.55440810596E+03 -0.35251128273E+03  0.66680690789E+03  0.10487008956E+03 0.  0.
    5000000    2    1    2    0    0 -0.44734375159E+02  0.55440810596E+03 -0.97964553124E+03  0.12764051279E+04  0.60011263233E+03 0.  0.
        -24    2    4    4    0    0 -0.13214741103E+03  0.54877959033E+03 -0.10048489505E+04  0.11552632247E+04  0.79307806092E+02 0.  0.
         24    2    4    4    0    0  0.87413035873E+02  0.56285156328E+01  0.25203419247E+02  0.12114190321E+03  0.79796173742E+02 0.  0.
         11    1    3    3    0    0 -0.28615214834E+02 -0.84119965334E+02 -0.40245400550E+02  0.97543279385E+02  0.00000000000E+00 0. -1.
        -12    1    3    3    0    0  0.73349589993E+02 -0.47028814062E+03 -0.31226588218E+03  0.56926362851E+03  0.00000000000E+00 0.  1.
         15    1    5    5    0    0 -0.51492182499E+02  0.18725634723E+03 -0.27326119262E+03  0.33524800008E+03  0.17770000000E+01 0. -1.
        -16    1    5    5    0    0 -0.80655228534E+02  0.36152324309E+03 -0.73158775787E+03  0.82001522465E+03  0.00000000000E+00 0.  1.
          4    1    6    6  502    0  0.46092350988E+02  0.42148250185E+02  0.59891670308E+01  0.62744321934E+02  0.00000000000E+00 0. -1.
         -3    1    6    6    0  502  0.41320684886E+02 -0.36519734552E+02  0.19214252216E+02  0.58397581280E+02  0.00000000000E+00 0.  1.
<mgrwt>
<rscale>  0 0.62352888E+03</rscale>
<asrwt>0</asrwt>
<pdfrwt beam="1">  1        1 0.47004247E-01 0.62352888E+03</pdfrwt>
<pdfrwt beam="2">  1       -2 0.25195146E+00 0.62352888E+03</pdfrwt>
<totfact> 0.49098824E+00</totfact>
</mgrwt>
</event>
<event>
12    3  0.1182097E-007  0.7158266E+03  0.7818608E-02  0.9690543E-01
         -2   -1    0    0    0  501 -0.00000000000E+00  0.00000000000E+00  0.71107858007E+03  0.71107858007E+03  0.00000000000E+00 0.  1.
          1   -1    0    0  501    0  0.00000000000E+00 -0.00000000000E+00 -0.17541293031E+04  0.17541293031E+04  0.00000000000E+00 0. -1.
        -24    2    1    2    0    0 -0.35110225743E+03 -0.51298223248E+03 -0.13972050007E+04  0.15312976239E+04  0.79164594010E+02 0.  0.
    5000000    2    1    2    0    0  0.35110225743E+03  0.51298223248E+03  0.35415427760E+03  0.93391025934E+03  0.60028289510E+03 0.  0.
        -24    2    4    4    0    0  0.38303597088E+03  0.11476889883E+03  0.23238041295E+02  0.40886125822E+03  0.82091819203E+02 0.  0.
         24    2    4    4    0    0 -0.31933713455E+02  0.39821333365E+03  0.33091623630E+03  0.52504900113E+03  0.81100412945E+02 0.  0.
         11    1    3    3    0    0 -0.13473462941E+03 -0.14587677301E+03 -0.38951189600E+03  0.43721044177E+03  0.00000000000E+00 0. -1.
        -12    1    3    3    0    0 -0.21636762801E+03 -0.36710545947E+03 -0.10076931047E+04  0.10940871821E+04  0.00000000000E+00 0.  1.
         15    1    5    5    0    0  0.17561803490E+03  0.90616441754E+02 -0.76249993758E+01  0.19777343614E+03  0.17770000000E+01 0. -1.
        -16    1    5    5    0    0  0.20741793598E+03  0.24152457077E+02  0.30863040671E+02  0.21108782208E+03  0.00000000000E+00 0.  1.
          4    1    6    6  502    0 -0.36849852904E+02  0.31526946994E+03  0.21888741065E+03  0.38557029045E+03  0.00000000000E+00 0. -1.
         -3    1    6    6    0  502  0.49161394497E+01  0.82943863712E+02  0.11202882566E+03  0.13947871068E+03  0.00000000000E+00 0.  1.
<mgrwt>
<rscale>  0 0.71582660E+03</rscale>
<asrwt>0</asrwt>
<pdfrwt beam="1">  1        1 0.26986604E+00 0.71582660E+03</pdfrwt>
<pdfrwt beam="2">  1       -2 0.10939671E+00 0.71582660E+03</pdfrwt>
<totfact> 0.26730401E+00</totfact>
</mgrwt>
</event>
<event>
12    3  0.1182097E-007  0.3833023E+03  0.7818608E-02  0.1049720E+00
          1   -1    0    0  501    0  0.00000000000E+00  0.00000000000E+00  0.15414379590E+03  0.15414379590E+03  0.00000000000E+00 0. -1.
         -2   -1    0    0    0  501 -0.00000000000E+00 -0.00000000000E+00 -0.12234743763E+04  0.12234743763E+04  0.00000000000E+00 0.  1.
        -24    2    1    2    0    0  0.19109128424E+03 -0.10476740274E+03 -0.29742201584E+03  0.37591943286E+03  0.73235762504E+02 0.  0.
    5000000    2    1    2    0    0 -0.19109128424E+03  0.10476740274E+03 -0.77190856454E+03  0.10016987393E+04  0.60005453480E+03 0.  0.
        -24    2    4    4    0    0  0.15304192604E+03  0.11409146049E+03 -0.74599182840E+02  0.21990694592E+03  0.79720350600E+02 0.  0.
         24    2    4    4    0    0 -0.34413321028E+03 -0.93240577493E+01 -0.69730938170E+03  0.78179179339E+03  0.80270978171E+02 0.  0.
         11    1    3    3    0    0  0.10186600105E+03 -0.38155580105E+02 -0.92888544683E+02  0.14304129542E+03  0.00000000000E+00 0. -1.
        -12    1    3    3    0    0  0.89225283193E+02 -0.66611822633E+02 -0.20453347116E+03  0.23287813744E+03  0.00000000000E+00 0.  1.
         15    1    5    5    0    0  0.85598842107E+02  0.10113737126E+03 -0.72834676282E+02  0.15120839075E+03  0.17770000000E+01 0. -1.
        -16    1    5    5    0    0  0.67443083935E+02  0.12954089223E+02 -0.17645065582E+01  0.68698555164E+02  0.00000000000E+00 0.  1.
          4    1    6    6  502    0 -0.27653680103E+03 -0.18103617777E+02 -0.48245740388E+03  0.55638609783E+03  0.00000000000E+00 0. -1.
         -3    1    6    6    0  502 -0.67596409249E+02  0.87795600278E+01 -0.21485197782E+03  0.22540569556E+03  0.00000000000E+00 0.  1.
<mgrwt>
<rscale>  0 0.38330228E+03</rscale>
<asrwt>0</asrwt>
<pdfrwt beam="1">  1        1 0.23714430E-01 0.38330228E+03</pdfrwt>
<pdfrwt beam="2">  1       -2 0.18822683E+00 0.38330228E+03</pdfrwt>
<totfact> 0.30561411E+01</totfact>
</mgrwt>
</event>
<event>
12    3  0.1182097E-007  0.1019509E+04  0.7818608E-02  0.9287403E-01
         -2   -1    0    0    0  501 -0.00000000000E+00  0.00000000000E+00  0.15069385820E+04  0.15069385820E+04  0.00000000000E+00 0.  1.
          1   -1    0    0  501    0  0.00000000000E+00 -0.00000000000E+00 -0.77672763967E+03  0.77672763967E+03  0.00000000000E+00 0. -1.
        -24    2    1    2    0    0  0.87131029955E+03 -0.38600032572E+03  0.27532324335E+02  0.95609024051E+03  0.71920995329E+02 0.  0.
    5000000    2    1    2    0    0 -0.87131029955E+03  0.38600032572E+03  0.70267861800E+03  0.13275759812E+04  0.60043555525E+03 0.  0.
        -24    2    4    4    0    0 -0.73977793984E+03  0.51364562139E+03  0.67223195640E+03  0.11266026751E+04  0.78959228098E+02 0.  0.
         24    2    4    4    0    0 -0.13153235970E+03 -0.12764529566E+03  0.30446661605E+02  0.20097330606E+03  0.76610621917E+02 0.  0.
         13    1    3    3    0    0  0.74500154090E+03 -0.31813594935E+03 -0.22679570424E-03  0.81008504382E+03  0.00000000000E+00 0. -1.
        -14    1    3    3    0    0  0.12630875864E+03 -0.67864376377E+02  0.27532551131E+02  0.14600519670E+03  0.00000000000E+00 0.  1.
         15    1    5    5    0    0 -0.10674889002E+03  0.97580746738E+02  0.13563395341E+03  0.19828528614E+03  0.17770000000E+01 0. -1.
        -16    1    5    5    0    0 -0.63302904982E+03  0.41606487465E+03  0.53659800299E+03  0.92831738896E+03  0.00000000000E+00 0.  1.
          2    1    6    6  502    0 -0.12148760832E+03 -0.11551920913E+03  0.50864722033E+02  0.17518888835E+03  0.00000000000E+00 0. -1.
         -1    1    6    6    0  502 -0.10044751382E+02 -0.12126086537E+02 -0.20418060427E+02  0.25784417710E+02  0.00000000000E+00 0.  1.
<mgrwt>
<rscale>  0 0.10195089E+04</rscale>
<asrwt>0</asrwt>
<pdfrwt beam="1">  1        1 0.11949656E+00 0.10195089E+04</pdfrwt>
<pdfrwt beam="2">  1       -2 0.23183670E+00 0.10195089E+04</pdfrwt>
<totfact> 0.16866931E+00</totfact>
</mgrwt>
</event>
<event>
12    3  0.1182097E-007  0.5403346E+03  0.7818608E-02  0.1003756E+00
         -4   -1    0    0    0  501 -0.00000000000E+00  0.00000000000E+00  0.46542015858E+03  0.46542015858E+03  0.00000000000E+00 0.  1.
          1   -1    0    0  501    0  0.00000000000E+00 -0.00000000000E+00 -0.81817315412E+03  0.81817315412E+03  0.00000000000E+00 0. -1.
        -24    2    1    2    0    0  0.37178444564E+03 -0.11800455027E+03 -0.40257016387E+03  0.56634729127E+03  0.80856475209E+02 0.  0.
    5000000    2    1    2    0    0 -0.37178444564E+03  0.11800455027E+03  0.49817168332E+02  0.71724602144E+03  0.59984277699E+03 0.  0.
        -24    2    4    4    0    0 -0.19443663794E+02 -0.19503196902E+03 -0.73311794417E+02  0.22392564112E+03  0.79702876651E+02 0.  0.
         24    2    4    4    0    0 -0.35234078184E+03  0.31303651929E+03  0.12312896275E+03  0.49332038032E+03  0.77899725360E+02 0.  0.
         11    1    3    3    0    0  0.79704711544E+02  0.61106190023E+01 -0.65064749090E+02  0.10307086048E+03  0.00000000000E+00 0. -1.
        -12    1    3    3    0    0  0.29207973409E+03 -0.12411516927E+03 -0.33750541478E+03  0.46327643078E+03  0.00000000000E+00 0.  1.
         15    1    5    5    0    0  0.30714516775E+02 -0.81801348509E+02 -0.24044408896E+02  0.90642889885E+02  0.17770000000E+01 0. -1.
        -16    1    5    5    0    0 -0.50158180568E+02 -0.11323062052E+03 -0.49267385521E+02  0.13328275123E+03  0.00000000000E+00 0.  1.
          4    1    6    6  502    0 -0.28020283802E+03  0.23332854260E+03  0.12597204109E+03  0.38577816730E+03  0.00000000000E+00 0. -1.
         -3    1    6    6    0  502 -0.72137943824E+02  0.79707976694E+02 -0.28430783427E+01  0.10754221302E+03  0.00000000000E+00 0.  1.
<mgrwt>
<rscale>  0 0.54033459E+03</rscale>
<asrwt>0</asrwt>
<pdfrwt beam="1">  1        1 0.12587279E+00 0.54033459E+03</pdfrwt>
<pdfrwt beam="2">  1       -4 0.71603102E-01 0.54033459E+03</pdfrwt>
<totfact> 0.18639728E+01</totfact>
</mgrwt>
</event>
<event>
12    3  0.1182097E-007  0.5295609E+03  0.7818608E-02  0.1006339E+00
         -2   -1    0    0    0  501 -0.00000000000E+00  0.00000000000E+00  0.52717906443E+03  0.52717906443E+03  0.00000000000E+00 0.  1.
          1   -1    0    0  501    0  0.00000000000E+00 -0.00000000000E+00 -0.10020327898E+04  0.10020327898E+04  0.00000000000E+00 0. -1.
        -24    2    1    2    0    0  0.36944904279E+03 -0.26512850662E+02  0.29848518116E+03  0.48266366984E+03  0.81702437811E+02 0.  0.
    5000000    2    1    2    0    0 -0.36944904279E+03  0.26512850662E+02 -0.77333890651E+03  0.10465481844E+04  0.60001209271E+03 0.  0.
        -24    2    4    4    0    0  0.82223757369E+02  0.18545822799E+03 -0.28343732765E+03  0.35711836848E+03  0.77725863064E+02 0.  0.
         24    2    4    4    0    0 -0.45167280016E+03 -0.15894537733E+03 -0.48990157885E+03  0.68942981589E+03  0.77704328632E+02 0.  0.
         13    1    3    3    0    0  0.22539225780E+03 -0.42741102930E+02  0.14424046579E+03  0.27098668552E+03  0.00000000000E+00 0. -1.
        -14    1    3    3    0    0  0.14405678499E+03  0.16228252268E+02  0.15424471537E+03  0.21167698433E+03  0.00000000000E+00 0.  1.
         15    1    5    5    0    0  0.75898841698E+02  0.16913734112E+03 -0.20350367166E+03  0.27529071260E+03  0.17770000000E+01 0. -1.
        -16    1    5    5    0    0  0.63249156715E+01  0.16320886870E+02 -0.79933655991E+02  0.81827655878E+02  0.00000000000E+00 0.  1.
          2    1    6    6  502    0 -0.15698416107E+03 -0.28380711310E+02 -0.12582298345E+03  0.20317705276E+03  0.00000000000E+00 0. -1.
         -1    1    6    6    0  502 -0.29468863909E+03 -0.13056466602E+03 -0.36407859540E+03  0.48625276313E+03  0.00000000000E+00 0.  1.
<mgrwt>
<rscale>  0 0.52956087E+03</rscale>
<asrwt>0</asrwt>
<pdfrwt beam="1">  1        1 0.15415889E+00 0.52956087E+03</pdfrwt>
<pdfrwt beam="2">  1       -2 0.81104473E-01 0.52956087E+03</pdfrwt>
<totfact> 0.18647487E+01</totfact>
</mgrwt>
</event>
<event>
12    3  0.1182097E-007  0.1109203E+04  0.7818608E-02  0.9196268E-01
         -2   -1    0    0    0  501 -0.00000000000E+00  0.00000000000E+00  0.11212410772E+04  0.11212410772E+04  0.00000000000E+00 0.  1.
          1   -1    0    0  501    0  0.00000000000E+00 -0.00000000000E+00 -0.12455763010E+04  0.12455763010E+04  0.00000000000E+00 0. -1.
        -24    2    1    2    0    0 -0.21485527875E+03  0.10779628765E+04 -0.16286072674E+03  0.11139790519E+04  0.79113575933E+02 0.  0.
    5000000    2    1    2    0    0  0.21485527875E+03 -0.10779628765E+04  0.38525502996E+02  0.12528383263E+04  0.59996075174E+03 0.  0.
        -24    2    4    4    0    0  0.82396165464E+02 -0.80730082867E+03  0.27635480277E+03  0.86093060359E+03  0.79408885676E+02 0.  0.
         24    2    4    4    0    0  0.13245911329E+03 -0.27066204781E+03 -0.23782929977E+03  0.39190772273E+03  0.78902005605E+02 0.  0.
         13    1    3    3    0    0 -0.12242158890E+03  0.78738669936E+03 -0.12815749591E+03  0.80708686244E+03  0.00000000000E+00 0. -1.
        -14    1    3    3    0    0 -0.92433689847E+02  0.29057617713E+03 -0.34703230832E+02  0.30689218948E+03  0.00000000000E+00 0.  1.
         15    1    5    5    0    0  0.21629294488E+02 -0.21603440049E+03  0.11167647914E+03  0.24415872357E+03  0.17770000000E+01 0. -1.
        -16    1    5    5    0    0  0.60766870976E+02 -0.59126642819E+03  0.16467832363E+03  0.61677188002E+03  0.00000000000E+00 0.  1.
          2    1    6    6  502    0  0.72121029843E+02 -0.94185784374E+02 -0.55078427581E+02  0.13079005355E+03  0.00000000000E+00 0. -1.
         -1    1    6    6    0  502  0.60338083446E+02 -0.17647626344E+03 -0.18275087219E+03  0.26111766918E+03  0.00000000000E+00 0.  1.
<mgrwt>
<rscale>  0 0.11092033E+04</rscale>
<asrwt>0</asrwt>
<pdfrwt beam="1">  1        1 0.19162712E+00 0.11092033E+04</pdfrwt>
<pdfrwt beam="2">  1       -2 0.17249863E+00 0.11092033E+04</pdfrwt>
<totfact> 0.17481504E+00</totfact>
</mgrwt>
</event>
<event>
12    3  0.1182097E-007  0.2138746E+04  0.7818608E-02  0.8544365E-01
         -2   -1    0    0    0  501 -0.00000000000E+00  0.00000000000E+00  0.17086207256E+04  0.17086207256E+04  0.00000000000E+00 0.  1.
          1   -1    0    0  501    0  0.00000000000E+00 -0.00000000000E+00 -0.27093159333E+04  0.27093159333E+04  0.00000000000E+00 0. -1.
        -24    2    1    2    0    0 -0.17775837500E+04 -0.11181094242E+04 -0.29175306802E+03  0.21217008881E+04  0.80759725169E+02 0.  0.
    5000000    2    1    2    0    0  0.17775837500E+04  0.11181094242E+04 -0.70894213966E+03  0.22962357708E+04  0.60010589479E+03 0.  0.
        -24    2    4    4    0    0  0.84068108692E+03  0.19781963866E+03 -0.31677517181E+03  0.92330888335E+03  0.79217960423E+02 0.  0.
         24    2    4    4    0    0  0.93690266310E+03  0.92028978550E+03 -0.39216696785E+03  0.13729268874E+04  0.80083819715E+02 0.  0.
         11    1    3    3    0    0 -0.34695819126E+03 -0.21764914263E+03 -0.89350088596E+02  0.41920707783E+03  0.00000000000E+00 0. -1.
        -12    1    3    3    0    0 -0.14306255588E+04 -0.90046028153E+03 -0.20240297942E+03  0.17024938103E+04  0.00000000000E+00 0.  1.
         15    1    5    5    0    0  0.41088259232E+03  0.83568726601E+02 -0.19363711470E+03  0.46185141188E+03  0.17770000000E+01 0. -1.
        -16    1    5    5    0    0  0.42979849460E+03  0.11425091206E+03 -0.12313805711E+03  0.46145747147E+03  0.00000000000E+00 0.  1.
          2    1    6    6  502    0  0.38244891848E+03  0.39109943777E+03 -0.20299860917E+03  0.58346754905E+03  0.00000000000E+00 0. -1.
         -1    1    6    6    0  502  0.55445374462E+03  0.52919034773E+03 -0.18916835868E+03  0.78945933839E+03  0.00000000000E+00 0.  1.
<mgrwt>
<rscale>  0 0.21387465E+04</rscale>
<asrwt>0</asrwt>
<pdfrwt beam="1">  1        1 0.41681784E+00 0.21387465E+04</pdfrwt>
<pdfrwt beam="2">  1       -2 0.26286473E+00 0.21387465E+04</pdfrwt>
<totfact> 0.39803052E-02</totfact>
</mgrwt>
</event>
<event>
12    3  0.1182097E-007  0.3921292E+03  0.7818608E-02  0.1046540E+00
         -4   -1    0    0    0  501 -0.00000000000E+00  0.00000000000E+00  0.55763938778E+03  0.55763938778E+03  0.00000000000E+00 0.  1.
          3   -1    0    0  501    0  0.00000000000E+00 -0.00000000000E+00 -0.58475206044E+03  0.58475206044E+03  0.00000000000E+00 0. -1.
        -24    2    1    2    0    0  0.22160127760E+03  0.28318535644E+03  0.18426544634E+03  0.41163209875E+03  0.78652130745E+02 0.  0.
    5000000    2    1    2    0    0 -0.22160127760E+03 -0.28318535644E+03 -0.21137811901E+03  0.73075934947E+03  0.60002287065E+03 0.  0.
        -24    2    4    4    0    0 -0.95252030624E+02 -0.23303171368E+03 -0.40268034459E+03  0.48147578917E+03  0.79314227733E+02 0.  0.
         24    2    4    4    0    0 -0.12634924697E+03 -0.50153642765E+02  0.19130222558E+03  0.24928356030E+03  0.84060881681E+02 0.  0.
         13    1    3    3    0    0  0.19457361594E+03  0.20475958535E+03  0.12091181739E+03  0.30725404375E+03  0.00000000000E+00 0. -1.
        -14    1    3    3    0    0  0.27027661661E+02  0.78425771087E+02  0.63353628950E+02  0.10437805500E+03  0.00000000000E+00 0.  1.
         15    1    5    5    0    0 -0.38662591892E+02 -0.16993679097E+03 -0.22492164067E+03  0.28454562219E+03  0.17770000000E+01 0. -1.
        -16    1    5    5    0    0 -0.56589438731E+02 -0.63094922708E+02 -0.17775870393E+03  0.19693016698E+03  0.00000000000E+00 0.  1.
          4    1    6    6  502    0 -0.51626779469E+02 -0.65619226537E+02  0.10238255985E+03  0.13211130085E+03  0.00000000000E+00 0. -1.
         -3    1    6    6    0  502 -0.74722467505E+02  0.15465583772E+02  0.88919665735E+02  0.11717225945E+03  0.00000000000E+00 0.  1.
<mgrwt>
<rscale>  0 0.39212918E+03</rscale>
<asrwt>0</asrwt>
<pdfrwt beam="1">  1        3 0.89961855E-01 0.39212918E+03</pdfrwt>
<pdfrwt beam="2">  1       -4 0.85790676E-01 0.39212918E+03</pdfrwt>
<totfact> 0.29690303E+00</totfact>
</mgrwt>
</event>
<event>
12    3  0.1182097E-007  0.5373002E+03  0.7818608E-02  0.1004477E+00
         -2   -1    0    0    0  501 -0.00000000000E+00  0.00000000000E+00  0.12417138420E+03  0.12417138420E+03  0.00000000000E+00 0.  1.
          1   -1    0    0  501    0  0.00000000000E+00 -0.00000000000E+00 -0.29257962816E+04  0.29257962816E+04  0.00000000000E+00 0. -1.
        -24    2    1    2    0    0 -0.25259541788E+02  0.43096930998E+03 -0.13729719023E+04  0.14414153177E+04  0.79080231483E+02 0.  0.
    5000000    2    1    2    0    0  0.25259541788E+02 -0.43096930998E+03 -0.14286529951E+04  0.16085523481E+04  0.60001557110E+03 0.  0.
        -24    2    4    4    0    0 -0.19530489183E+03 -0.33861129645E+03 -0.12098637884E+04  0.12748464623E+04  0.93067207876E+02 0.  0.
         24    2    4    4    0    0  0.22056443361E+03 -0.92358013533E+02 -0.21878920679E+03  0.33370588585E+03  0.79449538719E+02 0.  0.
         13    1    3    3    0    0 -0.14907817139E+02  0.40542789855E+03 -0.13287770602E+04  0.13893316737E+04  0.00000000000E+00 0. -1.
        -14    1    3    3    0    0 -0.10351724650E+02  0.25541411426E+02 -0.44194842125E+02  0.52083643991E+02  0.00000000000E+00 0.  1.
         15    1    5    5    0    0 -0.13118947146E+03 -0.29210433094E+03 -0.10212727887E+04  0.10702975681E+04  0.17770000000E+01 0. -1.
        -16    1    5    5    0    0 -0.64115420367E+02 -0.46506965511E+02 -0.18859099964E+03  0.20454889419E+03  0.00000000000E+00 0.  1.
          2    1    6    6  502    0  0.10995615783E+03 -0.26209643613E+02 -0.56211724798E+02  0.12624206932E+03  0.00000000000E+00 0. -1.
         -1    1    6    6    0  502  0.11060827579E+03 -0.66148369920E+02 -0.16257748200E+03  0.20746381653E+03  0.00000000000E+00 0.  1.
<mgrwt>
<rscale>  0 0.53730020E+03</rscale>
<asrwt>0</asrwt>
<pdfrwt beam="1">  1        1 0.45012248E+00 0.53730020E+03</pdfrwt>
<pdfrwt beam="2">  1       -2 0.19103291E-01 0.53730020E+03</pdfrwt>
<totfact> 0.15122097E+01</totfact>
</mgrwt>
</event>
<event>
12    3  0.1182097E-007  0.1026938E+04  0.7818608E-02  0.9279483E-01
          3   -1    0    0  501    0  0.00000000000E+00  0.00000000000E+00  0.15004940832E+04  0.15004940832E+04  0.00000000000E+00 0. -1.
         -4   -1    0    0    0  501 -0.00000000000E+00 -0.00000000000E+00 -0.84904330757E+03  0.84904330757E+03  0.00000000000E+00 0.  1.
        -24    2    1    2    0    0 -0.83317701319E+03  0.48326764850E+03  0.73124345922E+03  0.12119344998E+04  0.79603264110E+02 0.  0.
    5000000    2    1    2    0    0  0.83317701319E+03 -0.48326764850E+03 -0.79792683544E+02  0.11376028911E+04  0.60003492399E+03 0.  0.
        -24    2    4    4    0    0  0.84753207667E+03 -0.29871584112E+03 -0.16825812478E+03  0.91775704012E+03  0.80158676479E+02 0.  0.
         24    2    4    4    0    0 -0.14355063483E+02 -0.18455180738E+03  0.88465441239E+02  0.21984585093E+03  0.78997635571E+02 0.  0.
         11    1    3    3    0    0 -0.49333175916E+03  0.30219756917E+03  0.39289634974E+03  0.69933335188E+03  0.00000000000E+00 0. -1.
        -12    1    3    3    0    0 -0.33984525402E+03  0.18107007932E+03  0.33834710948E+03  0.51260114787E+03  0.00000000000E+00 0.  1.
         15    1    5    5    0    0  0.13001739819E+03 -0.28480237216E+02 -0.15262837499E+01  0.13312075351E+03  0.17770000000E+01 0. -1.
        -16    1    5    5    0    0  0.71751467848E+03 -0.27023560390E+03 -0.16673184103E+03  0.78463628661E+03  0.00000000000E+00 0.  1.
          4    1    6    6  502    0  0.15480437682E+02 -0.41047872847E+02  0.53450999594E+02  0.69148978110E+02  0.00000000000E+00 0. -1.
         -3    1    6    6    0  502 -0.29835501164E+02 -0.14350393453E+03  0.35014441645E+02  0.15069687282E+03  0.00000000000E+00 0.  1.
<mgrwt>
<rscale>  0 0.10269383E+04</rscale>
<asrwt>0</asrwt>
<pdfrwt beam="1">  1        3 0.23084524E+00 0.10269383E+04</pdfrwt>
<pdfrwt beam="2">  1       -4 0.13062205E+00 0.10269383E+04</pdfrwt>
<totfact> 0.90137274E-02</totfact>
</mgrwt>
</event>
<event>
12    3  0.1182097E-007  0.3724846E+03  0.7818608E-02  0.1053747E+00
         -2   -1    0    0    0  501 -0.00000000000E+00  0.00000000000E+00  0.50498076947E+03  0.50498076947E+03  0.00000000000E+00 0.  1.
          1   -1    0    0  501    0  0.00000000000E+00 -0.00000000000E+00 -0.70141406041E+03  0.70141406041E+03  0.00000000000E+00 0. -1.
        -24    2    1    2    0    0 -0.25539450249E+03  0.12529470980E+03  0.26551807891E+03  0.39753745486E+03  0.81308434848E+02 0.  0.
    5000000    2    1    2    0    0  0.25539450249E+03 -0.12529470980E+03 -0.46195136986E+03  0.80885737503E+03  0.59993838752E+03 0.  0.
        -24    2    4    4    0    0 -0.27224525525E+02  0.63094826426E+02 -0.44702812110E+03  0.45964613163E+03  0.81965195994E+02 0.  0.
         24    2    4    4    0    0  0.28261902801E+03 -0.18838953623E+03 -0.14923248761E+02  0.34921124340E+03  0.79759995038E+02 0.  0.
         13    1    3    3    0    0 -0.19303194777E+03  0.54297341681E+02  0.19421191179E+03  0.27915551375E+03  0.00000000000E+00 0. -1.
        -14    1    3    3    0    0 -0.62362554720E+02  0.70997368121E+02  0.71306167121E+02  0.11838194111E+03  0.00000000000E+00 0.  1.
         15    1    5    5    0    0 -0.50499143065E+02  0.16786188807E+02 -0.18346165487E+03  0.19103213374E+03  0.17770000000E+01 0. -1.
        -16    1    5    5    0    0  0.23274617540E+02  0.46308637620E+02 -0.26356646623E+03  0.26861399788E+03  0.00000000000E+00 0.  1.
          4    1    6    6  502    0  0.20085001360E+03 -0.16469854246E+03  0.11721306871E+02  0.26000716699E+03  0.00000000000E+00 0. -1.
         -3    1    6    6    0  502  0.81769014409E+02 -0.23690993773E+02 -0.26644555632E+02  0.89204076410E+02  0.00000000000E+00 0.  1.
<mgrwt>
<rscale>  0 0.37248459E+03</rscale>
<asrwt>0</asrwt>
<pdfrwt beam="1">  1        1 0.10790986E+00 0.37248459E+03</pdfrwt>
<pdfrwt beam="2">  1       -2 0.77689349E-01 0.37248459E+03</pdfrwt>
<totfact> 0.37378775E+01</totfact>
</mgrwt>
</event>
<event>
12    3  0.1182097E-007  0.6536786E+03  0.7818608E-02  0.9799901E-01
          1   -1    0    0  501    0  0.00000000000E+00  0.00000000000E+00  0.15296458529E+04  0.15296458529E+04  0.00000000000E+00 0. -1.
         -2   -1    0    0    0  501 -0.00000000000E+00 -0.00000000000E+00 -0.37736868413E+03  0.37736868413E+03  0.00000000000E+00 0.  1.
        -24    2    1    2    0    0  0.73649910988E+02 -0.55443129078E+03  0.10158486073E+03  0.57409663287E+03  0.80306253521E+02 0.  0.
    5000000    2    1    2    0    0 -0.73649910988E+02  0.55443129078E+03  0.10506923080E+04  0.13329179041E+04  0.59991453347E+03 0.  0.
        -24    2    4    4    0    0 -0.11062636567E+02 -0.76435924007E+02  0.42268897536E+03  0.43712096546E+03  0.80274131262E+02 0.  0.
         24    2    4    4    0    0 -0.62587274421E+02  0.63086721479E+03  0.62800333265E+03  0.89579693867E+03  0.78443354729E+02 0.  0.
         11    1    3    3    0    0  0.76800445893E+02 -0.32422097244E+03  0.81330784109E+02  0.34297557334E+03  0.00000000000E+00 0. -1.
        -12    1    3    3    0    0 -0.31505349044E+01 -0.23021031834E+03  0.20254076624E+02  0.23112105953E+03  0.00000000000E+00 0.  1.
         15    1    5    5    0    0  0.22160117947E+02 -0.70279629134E+02  0.23096221767E+03  0.24243968491E+03  0.17770000000E+01 0. -1.
        -16    1    5    5    0    0 -0.33222754514E+02 -0.61562948735E+01  0.19172675768E+03  0.19468128055E+03  0.00000000000E+00 0.  1.
          2    1    6    6  502    0 -0.32074004648E+01  0.31590430181E+03  0.35027268175E+03  0.47169562951E+03  0.00000000000E+00 0. -1.
         -1    1    6    6    0  502 -0.59379873957E+02  0.31496291298E+03  0.27773065090E+03  0.42410130916E+03  0.00000000000E+00 0.  1.
<mgrwt>
<rscale>  0 0.65367860E+03</rscale>
<asrwt>0</asrwt>
<pdfrwt beam="1">  1        1 0.23533013E+00 0.65367860E+03</pdfrwt>
<pdfrwt beam="2">  1       -2 0.58056721E-01 0.65367860E+03</pdfrwt>
<totfact> 0.15891559E+01</totfact>
</mgrwt>
</event>
<event>
12    3  0.1182097E-007  0.8289125E+03  0.7818608E-02  0.9519085E-01
          1   -1    0    0  501    0  0.00000000000E+00  0.00000000000E+00  0.77911569447E+03  0.77911569447E+03  0.00000000000E+00 0. -1.
         -2   -1    0    0    0  501 -0.00000000000E+00 -0.00000000000E+00 -0.10190294004E+04  0.10190294004E+04  0.00000000000E+00 0.  1.
        -24    2    1    2    0    0 -0.76734478048E+03  0.17682199701E+03 -0.11566579136E+03  0.80038982653E+03  0.84624277669E+02 0.  0.
    5000000    2    1    2    0    0  0.76734478048E+03 -0.17682199701E+03 -0.12424791455E+03  0.99775526831E+03  0.59999500033E+03 0.  0.
        -24    2    4    4    0    0  0.16472806238E+03  0.96564134364E+02 -0.24468490238E+03  0.32046700016E+03  0.79802444544E+02 0.  0.
         24    2    4    4    0    0  0.60261671810E+03 -0.27338613137E+03  0.12043698783E+03  0.67728826816E+03  0.79545234823E+02 0.  0.
         11    1    3    3    0    0 -0.51295136112E+03  0.11614018191E+03 -0.11728653442E+03  0.53885412857E+03  0.00000000000E+00 0. -1.
        -12    1    3    3    0    0 -0.25439341937E+03  0.60681815097E+02  0.16207430573E+01  0.26153569796E+03  0.00000000000E+00 0.  1.
         15    1    5    5    0    0  0.61645908104E+02 -0.53870818965E+01 -0.69676528731E+02  0.93205230660E+02  0.17770000000E+01 0. -1.
        -16    1    5    5    0    0  0.10308215427E+03  0.10195121626E+03 -0.17500837365E+03  0.22726176950E+03  0.00000000000E+00 0.  1.
          2    1    6    6  502    0  0.34541410460E+03 -0.13050774178E+03  0.34949211046E+02  0.37089704996E+03  0.00000000000E+00 0. -1.
         -1    1    6    6    0  502  0.25720261351E+03 -0.14287838959E+03  0.85487776788E+02  0.30639121820E+03  0.00000000000E+00 0.  1.
<mgrwt>
<rscale>  0 0.82891246E+03</rscale>
<asrwt>0</asrwt>
<pdfrwt beam="1">  1        1 0.11986395E+00 0.82891246E+03</pdfrwt>
<pdfrwt beam="2">  1       -2 0.15677375E+00 0.82891246E+03</pdfrwt>
<totfact> 0.54541646E+00</totfact>
</mgrwt>
</event>
<event>
12    3  0.1182097E-007  0.6519473E+03  0.7818608E-02  0.9803132E-01
         -2   -1    0    0    0  501 -0.00000000000E+00  0.00000000000E+00  0.72176633251E+03  0.72176633251E+03  0.00000000000E+00 0.  1.
          1   -1    0    0  501    0  0.00000000000E+00 -0.00000000000E+00 -0.89322154872E+03  0.89322154872E+03  0.00000000000E+00 0. -1.
        -24    2    1    2    0    0  0.61034997907E+03  0.11724498806E+03 -0.37104428148E+03  0.72813000930E+03  0.78904799873E+02 0.  0.
    5000000    2    1    2    0    0 -0.61034997907E+03 -0.11724498806E+03  0.19958906527E+03  0.88685787193E+03  0.60033957545E+03 0.  0.
        -24    2    4    4    0    0 -0.58070829057E+02 -0.75190137910E+02 -0.17372296731E+03  0.21342983397E+03  0.79667098797E+02 0.  0.
         24    2    4    4    0    0 -0.55227915002E+03 -0.42054850149E+02  0.37331203258E+03  0.67342803796E+03  0.85805469943E+02 0.  0.
         13    1    3    3    0    0  0.52069445425E+03  0.90077959104E+02 -0.34433195819E+03  0.63071487285E+03  0.00000000000E+00 0. -1.
        -14    1    3    3    0    0  0.89655524828E+02  0.27167028955E+02 -0.26712323286E+02  0.97415136451E+02  0.00000000000E+00 0.  1.
         15    1    5    5    0    0 -0.31459025197E+02  0.11312610468E+02 -0.47703960274E+02  0.58279249967E+02  0.17770000000E+01 0. -1.
        -16    1    5    5    0    0 -0.26611803859E+02 -0.86502748378E+02 -0.12601900704E+03  0.15515058400E+03  0.00000000000E+00 0.  1.
          4    1    6    6  502    0 -0.19117475753E+03  0.16888623909E+02  0.97721556055E+02  0.21536600487E+03  0.00000000000E+00 0. -1.
         -3    1    6    6    0  502 -0.36110439249E+03 -0.58943474058E+02  0.27559047653E+03  0.45806203309E+03  0.00000000000E+00 0.  1.
<mgrwt>
<rscale>  0 0.65194728E+03</rscale>
<asrwt>0</asrwt>
<pdfrwt beam="1">  1        1 0.13741870E+00 0.65194728E+03</pdfrwt>
<pdfrwt beam="2">  1       -2 0.11104097E+00 0.65194728E+03</pdfrwt>
<totfact> 0.10737683E+01</totfact>
</mgrwt>
</event>
<event>
12    3  0.1182097E-007  0.3569967E+03  0.7818608E-02  0.1059779E+00
          1   -1    0    0  501    0  0.00000000000E+00  0.00000000000E+00  0.75637005779E+03  0.75637005779E+03  0.00000000000E+00 0. -1.
         -2   -1    0    0    0  501 -0.00000000000E+00 -0.00000000000E+00 -0.35897829855E+03  0.35897829855E+03  0.00000000000E+00 0.  1.
        -24    2    1    2    0    0  0.33559442853E+02 -0.17313214295E+03 -0.18038027075E+03  0.26416984480E+03  0.78407204375E+02 0.  0.
    5000000    2    1    2    0    0 -0.33559442853E+02  0.17313214295E+03  0.57777202999E+03  0.85117851154E+03  0.59965270344E+03 0.  0.
        -24    2    4    4    0    0 -0.95086364591E+02 -0.14981289642E+03  0.45231895031E+03  0.49285716383E+03  0.82646418384E+02 0.  0.
         24    2    4    4    0    0  0.61526921738E+02  0.32294503937E+03  0.12545307969E+03  0.35832134771E+03  0.67650960549E+02 0.  0.
         13    1    3    3    0    0 -0.17473730413E+02 -0.76913199081E+02 -0.46415947399E+02  0.91517274983E+02  0.00000000000E+00 0. -1.
        -14    1    3    3    0    0  0.51033173266E+02 -0.96218943871E+02 -0.13396432335E+03  0.17265256982E+03  0.00000000000E+00 0.  1.
         15    1    5    5    0    0 -0.89384582343E+02 -0.75387954721E+02  0.22467855727E+03  0.25329145091E+03  0.17770000000E+01 0. -1.
        -16    1    5    5    0    0 -0.57017822482E+01 -0.74424941702E+02  0.22764039304E+03  0.23956571293E+03  0.00000000000E+00 0.  1.
          4    1    6    6  502    0  0.36807832455E+02  0.29508588334E+03  0.12003326694E+03  0.32068439352E+03  0.00000000000E+00 0. -1.
         -3    1    6    6    0  502  0.24719089283E+02  0.27859156040E+02  0.54198127415E+01  0.37636954185E+02  0.00000000000E+00 0.  1.
<mgrwt>
<rscale>  0 0.35699667E+03</rscale>
<asrwt>0</asrwt>
<pdfrwt beam="1">  1        1 0.11636462E+00 0.35699667E+03</pdfrwt>
<pdfrwt beam="2">  1       -2 0.55227431E-01 0.35699667E+03</pdfrwt>
<totfact> 0.69200875E+01</totfact>
</mgrwt>
</event>
<event>
12    3  0.1182097E-007  0.5471663E+03  0.7818608E-02  0.1002152E+00
          3   -1    0    0  501    0  0.00000000000E+00  0.00000000000E+00  0.32753832622E+03  0.32753832622E+03  0.00000000000E+00 0. -1.
         -4   -1    0    0    0  501 -0.00000000000E+00 -0.00000000000E+00 -0.12855973969E+04  0.12855973969E+04  0.00000000000E+00 0.  1.
        -24    2    1    2    0    0 -0.41900796371E+03 -0.12353721183E+03 -0.61011520602E+02  0.44904387993E+03  0.84195511122E+02 0.  0.
    5000000    2    1    2    0    0  0.41900796371E+03  0.12353721183E+03 -0.89704755010E+03  0.11640918432E+04  0.59965523088E+03 0.  0.
        -24    2    4    4    0    0  0.51194366654E+03  0.16486590639E+03 -0.47507075231E+03  0.72188242417E+03  0.78453360868E+02 0.  0.
         24    2    4    4    0    0 -0.92935702826E+02 -0.41328694563E+02 -0.42197679779E+03  0.44220941904E+03  0.84496429245E+02 0.  0.
         13    1    3    3    0    0 -0.40250408576E+03 -0.97715226410E+02 -0.58305923367E+02  0.41827907577E+03  0.00000000000E+00 0. -1.
        -14    1    3    3    0    0 -0.16503877947E+02 -0.25821985418E+02 -0.27055972349E+01  0.30764804154E+02  0.00000000000E+00 0.  1.
         15    1    5    5    0    0  0.21226214368E+03  0.95631989197E+02 -0.16670852028E+03  0.28634870955E+03  0.17770000000E+01 0. -1.
        -16    1    5    5    0    0  0.29968152286E+03  0.69233917194E+02 -0.30836223202E+03  0.43553371462E+03  0.00000000000E+00 0.  1.
          2    1    6    6  502    0 -0.51733393480E+02 -0.14422379682E+01 -0.32844376223E+03  0.33249620900E+03  0.00000000000E+00 0. -1.
         -3    1    6    6    0  502 -0.41202309346E+02 -0.39886456595E+02 -0.93533035568E+02  0.10971321004E+03  0.00000000000E+00 0.  1.
<mgrwt>
<rscale>  0 0.54716629E+03</rscale>
<asrwt>0</asrwt>
<pdfrwt beam="1">  1        3 0.50390512E-01 0.54716629E+03</pdfrwt>
<pdfrwt beam="2">  1       -4 0.19778421E+00 0.54716629E+03</pdfrwt>
<totfact> 0.12178833E+00</totfact>
</mgrwt>
</event>
<event>
12    3  0.1182097E-007  0.1077294E+04  0.7818608E-02  0.9227610E-01
         -2   -1    0    0    0  501 -0.00000000000E+00  0.00000000000E+00  0.72351587577E+03  0.72351587577E+03  0.00000000000E+00 0.  1.
          1   -1    0    0  501    0  0.00000000000E+00 -0.00000000000E+00 -0.20014441463E+04  0.20014441463E+04  0.00000000000E+00 0. -1.
        -24    2    1    2    0    0 -0.98112911173E+03 -0.32309701446E+03 -0.89797074894E+02  0.10400615646E+04  0.81599809153E+02 0.  0.
    5000000    2    1    2    0    0  0.98112911173E+03  0.32309701446E+03 -0.11881311956E+04  0.16848984575E+04  0.60018418780E+03 0.  0.
        -24    2    4    4    0    0  0.11446758010E+03 -0.10029486859E+03 -0.40593227763E+03  0.44078001182E+03  0.79649966944E+02 0.  0.
         24    2    4    4    0    0  0.86666153163E+03  0.42339188306E+03 -0.78219891801E+03  0.12441184457E+04  0.75051065460E+02 0.  0.
         11    1    3    3    0    0 -0.57209148111E+03 -0.18343156013E+03 -0.92308924040E+02  0.60782952994E+03  0.00000000000E+00 0. -1.
        -12    1    3    3    0    0 -0.40903763062E+03 -0.13966545434E+03  0.25118491458E+01  0.43223203466E+03  0.00000000000E+00 0.  1.
         15    1    5    5    0    0  0.62167541287E+02 -0.72387011060E+02 -0.33504798427E+03  0.34837478676E+03  0.17770000000E+01 0. -1.
        -16    1    5    5    0    0  0.52300038813E+02 -0.27907857532E+02 -0.70884293363E+02  0.92405225055E+02  0.00000000000E+00 0.  1.
          2    1    6    6  502    0  0.45399992159E+03  0.25888016870E+03 -0.40092293885E+03  0.65869118215E+03  0.00000000000E+00 0. -1.
         -1    1    6    6    0  502  0.41266161004E+03  0.16451171435E+03 -0.38127597917E+03  0.58542726350E+03  0.00000000000E+00 0.  1.
<mgrwt>
<rscale>  0 0.10772937E+04</rscale>
<asrwt>0</asrwt>
<pdfrwt beam="1">  1        1 0.30791448E+00 0.10772937E+04</pdfrwt>
<pdfrwt beam="2">  1       -2 0.11131014E+00 0.10772937E+04</pdfrwt>
<totfact> 0.16580011E+00</totfact>
</mgrwt>
</event>
<event>
12    3  0.1182097E-007  0.1008234E+04  0.7818608E-02  0.9299559E-01
         -2   -1    0    0    0  501 -0.00000000000E+00  0.00000000000E+00  0.49830507286E+03  0.49830507286E+03  0.00000000000E+00 0.  1.
          1   -1    0    0  501    0  0.00000000000E+00 -0.00000000000E+00 -0.21671672680E+04  0.21671672680E+04  0.00000000000E+00 0. -1.
        -24    2    1    2    0    0  0.93095078625E+03  0.32935602971E+02 -0.10101418196E+04  0.13763737152E+04  0.79145359603E+02 0.  0.
    5000000    2    1    2    0    0 -0.93095078625E+03 -0.32935602971E+02 -0.65872037561E+03  0.12890986257E+04  0.60009050411E+03 0.  0.
        -24    2    4    4    0    0  0.53199053482E+02 -0.10543326805E+02  0.87353745339E+01  0.97125891615E+02  0.80098882777E+02 0.  0.
         24    2    4    4    0    0 -0.98414983974E+03 -0.22392276166E+02 -0.66745575015E+03  0.11919727341E+04  0.79053774608E+02 0.  0.
         13    1    3    3    0    0  0.40247308432E+03  0.53272721178E+02 -0.44475723376E+03  0.60218897649E+03  0.00000000000E+00 0. -1.
        -14    1    3    3    0    0  0.52847770193E+03 -0.20337118207E+02 -0.56538458581E+03  0.77418473873E+03  0.00000000000E+00 0.  1.
         15    1    5    5    0    0 -0.11655081160E+02  0.21404063176E+02  0.22649908608E+01  0.24541042151E+02  0.17770000000E+01 0. -1.
        -16    1    5    5    0    0  0.64854134642E+02 -0.31947389981E+02  0.64703836731E+01  0.72584849463E+02  0.00000000000E+00 0.  1.
          4    1    6    6  502    0 -0.67705392209E+03 -0.11563151859E+01 -0.49892671290E+03  0.84102985400E+03  0.00000000000E+00 0. -1.
         -3    1    6    6    0  502 -0.30709591765E+03 -0.21235960981E+02 -0.16852903725E+03  0.35094288007E+03  0.00000000000E+00 0.  1.
<mgrwt>
<rscale>  0 0.10082343E+04</rscale>
<asrwt>0</asrwt>
<pdfrwt beam="1">  1        1 0.33341034E+00 0.10082343E+04</pdfrwt>
<pdfrwt beam="2">  1       -2 0.76662321E-01 0.10082343E+04</pdfrwt>
<totfact> 0.30897265E+00</totfact>
</mgrwt>
</event>
<event>
12    3  0.1182097E-007  0.5657331E+03  0.7818608E-02  0.9979165E-01
          1   -1    0    0  501    0  0.00000000000E+00  0.00000000000E+00  0.64909568592E+03  0.64909568592E+03  0.00000000000E+00 0. -1.
         -2   -1    0    0    0  501 -0.00000000000E+00 -0.00000000000E+00 -0.61582267378E+03  0.61582267378E+03  0.00000000000E+00 0.  1.
        -24    2    1    2    0    0  0.21062572491E+03 -0.38852274501E+03  0.21672488929E+03  0.49752194307E+03  0.72424352317E+02 0.  0.
    5000000    2    1    2    0    0 -0.21062572491E+03  0.38852274501E+03 -0.18345187714E+03  0.76739641663E+03  0.59994128850E+03 0.  0.
        -24    2    4    4    0    0  0.48945376200E+02 -0.11041900672E+03  0.55554867751E+02  0.15119083093E+03  0.72002202255E+02 0.  0.
         24    2    4    4    0    0 -0.25957110110E+03  0.49894175173E+03 -0.23900674489E+03  0.61620558571E+03  0.79152205292E+02 0.  0.
         11    1    3    3    0    0  0.50913865142E+02 -0.42803906463E+02  0.24071479115E+02  0.70737770526E+02  0.00000000000E+00 0. -1.
        -12    1    3    3    0    0  0.15971185976E+03 -0.34571883855E+03  0.19265341017E+03  0.42678417254E+03  0.00000000000E+00 0.  1.
         15    1    5    5    0    0  0.15828412417E+02 -0.51016755618E+02 -0.12596956265E+02  0.54909826348E+02  0.17770000000E+01 0. -1.
        -16    1    5    5    0    0  0.33116963783E+02 -0.59402251098E+02  0.68151824016E+02  0.96281004577E+02  0.00000000000E+00 0.  1.
          4    1    6    6  502    0 -0.14446598525E+03  0.25976277120E+03 -0.16805113662E+03  0.34145029318E+03  0.00000000000E+00 0. -1.
         -3    1    6    6    0  502 -0.11510511586E+03  0.23917898054E+03 -0.70955608273E+02  0.27475529253E+03  0.00000000000E+00 0.  1.
<mgrwt>
<rscale>  0 0.56573312E+03</rscale>
<asrwt>0</asrwt>
<pdfrwt beam="1">  1        1 0.99860875E-01 0.56573312E+03</pdfrwt>
<pdfrwt beam="2">  1       -2 0.94741949E-01 0.56573312E+03</pdfrwt>
<totfact> 0.26021822E+01</totfact>
</mgrwt>
</event>
<event>
12    3  0.1182097E-007  0.3809663E+03  0.7818608E-02  0.1050577E+00
         -2   -1    0    0    0  501 -0.00000000000E+00  0.00000000000E+00  0.50196162512E+03  0.50196162512E+03  0.00000000000E+00 0.  1.
          1   -1    0    0  501    0  0.00000000000E+00 -0.00000000000E+00 -0.57087078140E+03  0.57087078140E+03  0.00000000000E+00 0. -1.
        -24    2    1    2    0    0  0.34450183143E+03 -0.33627391888E+00 -0.13419430004E+03  0.37789872105E+03  0.78215780180E+02 0.  0.
    5000000    2    1    2    0    0 -0.34450183143E+03  0.33627391888E+00  0.65285143763E+02  0.69493368547E+03  0.59999087682E+03 0.  0.
        -24    2    4    4    0    0 -0.34880769156E+03 -0.25654564019E+02  0.28429104974E+03  0.45722440425E+03  0.76862165812E+02 0.  0.
         24    2    4    4    0    0  0.43058601323E+01  0.25990837938E+02 -0.21900590598E+03  0.23770928122E+03  0.88589228676E+02 0.  0.
         11    1    3    3    0    0  0.17967919832E+03 -0.23975509645E+02 -0.10300594872E+03  0.20849380049E+03  0.00000000000E+00 0. -1.
        -12    1    3    3    0    0  0.16482263311E+03  0.23639235726E+02 -0.31188351317E+02  0.16940492056E+03  0.00000000000E+00 0.  1.
         15    1    5    5    0    0 -0.88408705554E+02  0.17677467236E+02  0.10348273425E+03  0.13726043159E+03  0.17770000000E+01 0. -1.
        -16    1    5    5    0    0 -0.26039898600E+03 -0.43332031255E+02  0.18080831549E+03  0.31996397265E+03  0.00000000000E+00 0.  1.
          4    1    6    6  502    0  0.10436285200E+02  0.41777108536E+02 -0.42874656007E+02  0.60765771402E+02  0.00000000000E+00 0. -1.
         -3    1    6    6    0  502 -0.61304250673E+01 -0.15786270598E+02 -0.17613124997E+03  0.17694350982E+03  0.00000000000E+00 0.  1.
<mgrwt>
<rscale>  0 0.38096631E+03</rscale>
<asrwt>0</asrwt>
<pdfrwt beam="1">  1        1 0.87826274E-01 0.38096631E+03</pdfrwt>
<pdfrwt beam="2">  1       -2 0.77224865E-01 0.38096631E+03</pdfrwt>
<totfact> 0.50819620E+01</totfact>
</mgrwt>
</event>
<event>
12    3  0.1182097E-007  0.7123464E+03  0.7818608E-02  0.9696348E-01
          1   -1    0    0  501    0  0.00000000000E+00  0.00000000000E+00  0.15614435392E+04  0.15614435392E+04  0.00000000000E+00 0. -1.
         -2   -1    0    0    0  501 -0.00000000000E+00 -0.00000000000E+00 -0.66771190611E+03  0.66771190611E+03  0.00000000000E+00 0.  1.
        -24    2    1    2    0    0  0.67837146730E+03  0.15165297034E+03  0.10854246837E+04  0.12912752977E+04  0.77837519381E+02 0.  0.
    5000000    2    1    2    0    0 -0.67837146730E+03 -0.15165297034E+03 -0.19169305064E+03  0.93788014758E+03  0.59973867184E+03 0.  0.
        -24    2    4    4    0    0 -0.24726665537E+03 -0.14103621382E+03  0.19097788554E+03  0.35636995210E+03  0.97442175329E+02 0.  0.
         24    2    4    4    0    0 -0.43110481193E+03 -0.10616756527E+02 -0.38267093619E+03  0.58151019547E+03  0.75848451851E+02 0.  0.
         11    1    3    3    0    0  0.33698063889E+03  0.10394012289E+03  0.49880013915E+03  0.61086911769E+03  0.00000000000E+00 0. -1.
        -12    1    3    3    0    0  0.34139082841E+03  0.47712847447E+02  0.58662454456E+03  0.68040618003E+03  0.00000000000E+00 0.  1.
         15    1    5    5    0    0 -0.18117321860E+03 -0.59415188350E+02  0.15375228734E+03  0.24494248986E+03  0.17770000000E+01 0. -1.
        -16    1    5    5    0    0 -0.66093436762E+02 -0.81621025465E+02  0.37225598199E+02  0.11142746225E+03  0.00000000000E+00 0.  1.
          2    1    6    6  502    0 -0.18514096588E+03  0.46534989597E+01 -0.11660808965E+03  0.21885218498E+03  0.00000000000E+00 0. -1.
         -1    1    6    6    0  502 -0.24596384606E+03 -0.15270255487E+02 -0.26606284654E+03  0.36265801050E+03  0.00000000000E+00 0.  1.
<mgrwt>
<rscale>  0 0.71234641E+03</rscale>
<asrwt>0</asrwt>
<pdfrwt beam="1">  1        1 0.24022208E+00 0.71234641E+03</pdfrwt>
<pdfrwt beam="2">  1       -2 0.10272491E+00 0.71234641E+03</pdfrwt>
<totfact> 0.41960894E+00</totfact>
</mgrwt>
</event>
<event>
12    3  0.1182097E-007  0.6625981E+03  0.7818608E-02  0.9783423E-01
         -2   -1    0    0    0  501 -0.00000000000E+00  0.00000000000E+00  0.40363328836E+03  0.40363328836E+03  0.00000000000E+00 0.  1.
          1   -1    0    0  501    0  0.00000000000E+00 -0.00000000000E+00 -0.11566354951E+04  0.11566354951E+04  0.00000000000E+00 0. -1.
        -24    2    1    2    0    0  0.35027936066E+03  0.39895375471E+03 -0.14957386156E+03  0.55726729696E+03  0.79465535277E+02 0.  0.
    5000000    2    1    2    0    0 -0.35027936066E+03 -0.39895375471E+03 -0.60342834516E+03  0.10030014865E+04  0.60002207063E+03 0.  0.
        -24    2    4    4    0    0  0.15672291740E+03 -0.64500596435E+02 -0.14981868855E+03  0.24070309470E+03  0.82279648661E+02 0.  0.
         24    2    4    4    0    0 -0.50700227806E+03 -0.33445315827E+03 -0.45360965661E+03  0.76229839178E+03  0.80167901927E+02 0.  0.
         13    1    3    3    0    0  0.10501371940E+03  0.69461495000E+02 -0.29436585455E+02  0.12930310558E+03  0.00000000000E+00 0. -1.
        -14    1    3    3    0    0  0.24526564126E+03  0.32949225971E+03 -0.12013727611E+03  0.42796419138E+03  0.00000000000E+00 0.  1.
         15    1    5    5    0    0  0.96227045773E+02 -0.63823288553E+02 -0.13642238150E+03  0.17873802170E+03  0.17770000000E+01 0. -1.
        -16    1    5    5    0    0  0.60495871623E+02 -0.67730788213E+00 -0.13396307052E+02  0.61965073001E+02  0.00000000000E+00 0.  1.
          2    1    6    6  502    0 -0.18815995122E+03 -0.17099240477E+03 -0.19498306386E+03  0.32040749823E+03  0.00000000000E+00 0. -1.
         -3    1    6    6    0  502 -0.31884232683E+03 -0.16346075351E+03 -0.25862659276E+03  0.44189089355E+03  0.00000000000E+00 0.  1.
<mgrwt>
<rscale>  0 0.66259813E+03</rscale>
<asrwt>0</asrwt>
<pdfrwt beam="1">  1        1 0.17794392E+00 0.66259813E+03</pdfrwt>
<pdfrwt beam="2">  1       -2 0.62097431E-01 0.66259813E+03</pdfrwt>
<totfact> 0.25142673E+01</totfact>
</mgrwt>
</event>
<event>
12    3  0.1182097E-007  0.8191833E+03  0.7818608E-02  0.9532658E-01
         -4   -1    0    0    0  501 -0.00000000000E+00  0.00000000000E+00  0.74622310968E+03  0.74622310968E+03  0.00000000000E+00 0.  1.
          1   -1    0    0  501    0  0.00000000000E+00 -0.00000000000E+00 -0.14306820069E+04  0.14306820069E+04  0.00000000000E+00 0. -1.
        -24    2    1    2    0    0 -0.78950660764E+02  0.71161479577E+03  0.33472421495E+03  0.79437537586E+03  0.79769125102E+02 0.  0.
    5000000    2    1    2    0    0  0.78950660764E+02 -0.71161479577E+03 -0.10191831122E+04  0.13825297407E+04  0.60002120252E+03 0.  0.
        -24    2    4    4    0    0  0.43277491911E+02 -0.79772624714E+03 -0.94361108240E+03  0.12389430591E+04  0.79611068236E+02 0.  0.
         24    2    4    4    0    0  0.35673168853E+02  0.86111451375E+02 -0.75572029769E+02  0.14358668162E+03  0.78855858514E+02 0.  0.
         13    1    3    3    0    0 -0.52094555396E+02  0.27672773086E+03  0.95715342835E+02  0.29741134239E+03  0.00000000000E+00 0. -1.
        -14    1    3    3    0    0 -0.26856105368E+02  0.43488706491E+03  0.23900887211E+03  0.49696403348E+03  0.00000000000E+00 0.  1.
         15    1    5    5    0    0  0.23123787235E+02 -0.61681167732E+02 -0.91723542859E+02  0.11294087848E+03  0.17770000000E+01 0. -1.
        -16    1    5    5    0    0  0.20153704676E+02 -0.73604507941E+03 -0.85188753954E+03  0.11260021806E+04  0.00000000000E+00 0.  1.
          4    1    6    6  502    0  0.16074736209E+02 -0.11191795438E+02 -0.26244528900E+02  0.32747957593E+02  0.00000000000E+00 0. -1.
         -3    1    6    6    0  502  0.19598432644E+02  0.97303246813E+02 -0.49327500869E+02  0.11083872403E+03  0.00000000000E+00 0.  1.
<mgrwt>
<rscale>  0 0.81918326E+03</rscale>
<asrwt>0</asrwt>
<pdfrwt beam="1">  1        1 0.22010492E+00 0.81918326E+03</pdfrwt>
<pdfrwt beam="2">  1       -4 0.11480356E+00 0.81918326E+03</pdfrwt>
<totfact> 0.20986024E+00</totfact>
</mgrwt>
</event>
<event>
12    3  0.1182097E-007  0.4687588E+03  0.7818608E-02  0.1022271E+00
          1   -1    0    0  501    0  0.00000000000E+00  0.00000000000E+00  0.73868800428E+03  0.73868800428E+03  0.00000000000E+00 0. -1.
         -2   -1    0    0    0  501 -0.00000000000E+00 -0.00000000000E+00 -0.34244438237E+03  0.34244438237E+03  0.00000000000E+00 0.  1.
        -24    2    1    2    0    0  0.12337988638E+03  0.27210140537E+03  0.14135019068E+02  0.30941832642E+03  0.79234656529E+02 0.  0.
    5000000    2    1    2    0    0 -0.12337988638E+03 -0.27210140537E+03  0.38210860284E+03  0.77171406023E+03  0.60022815264E+03 0.  0.
        -24    2    4    4    0    0 -0.31139660343E+03 -0.23472076566E+02  0.84105298163E+02  0.33314335697E+03  0.79950060092E+02 0.  0.
         24    2    4    4    0    0  0.18801671705E+03 -0.24862932880E+03  0.29800330468E+03  0.43857070326E+03  0.79821445283E+02 0.  0.
         11    1    3    3    0    0  0.10898476072E+03  0.14625123919E+03  0.10524587552E+02  0.18269611374E+03  0.00000000000E+00 0. -1.
        -12    1    3    3    0    0  0.14395125654E+02  0.12585016618E+03  0.36104315162E+01  0.12672221268E+03  0.00000000000E+00 0.  1.
         15    1    5    5    0    0 -0.23699753790E+03 -0.25688591298E+02  0.97420103088E+02  0.25752974762E+03  0.17770000000E+01 0. -1.
        -16    1    5    5    0    0 -0.74399065523E+02  0.22165147324E+01 -0.13314804924E+02  0.75613609347E+02  0.00000000000E+00 0.  1.
          4    1    6    6  502    0  0.82636644260E+02 -0.70311829502E+02  0.14479786677E+03  0.18093919024E+03  0.00000000000E+00 0. -1.
         -1    1    6    6    0  502  0.10538007279E+03 -0.17831749930E+03  0.15320543791E+03  0.25763151302E+03  0.00000000000E+00 0.  1.
<mgrwt>
<rscale>  0 0.46875877E+03</rscale>
<asrwt>0</asrwt>
<pdfrwt beam="1">  1        1 0.11364431E+00 0.46875877E+03</pdfrwt>
<pdfrwt beam="2">  1       -2 0.52683751E-01 0.46875877E+03</pdfrwt>
<totfact> 0.77890462E+01</totfact>
</mgrwt>
</event>
<event>
12    3  0.1182097E-007  0.8773447E+03  0.7818608E-02  0.9454353E-01
         -4   -1    0    0    0  501 -0.00000000000E+00  0.00000000000E+00  0.83949531269E+03  0.83949531269E+03  0.00000000000E+00 0.  1.
          3   -1    0    0  501    0  0.00000000000E+00 -0.00000000000E+00 -0.11658404325E+04  0.11658404325E+04  0.00000000000E+00 0. -1.
        -24    2    1    2    0    0  0.73323208678E+03  0.25717703069E+03  0.30449401169E+03  0.83846440609E+03  0.80849483177E+02 0.  0.
    5000000    2    1    2    0    0 -0.73323208678E+03 -0.25717703069E+03 -0.63083913152E+03  0.11668713391E+04  0.59988448388E+03 0.  0.
        -24    2    4    4    0    0 -0.58061519886E+03  0.90522294506E+02 -0.38956072727E+03  0.70942151418E+03  0.78822773342E+02 0.  0.
         24    2    4    4    0    0 -0.15261688792E+03 -0.34769932520E+03 -0.24127840425E+03  0.45744982493E+03  0.82815087733E+02 0.  0.
         13    1    3    3    0    0  0.11982712176E+03  0.32235214869E+02  0.19285184081E+02  0.12557693464E+03  0.00000000000E+00 0. -1.
        -14    1    3    3    0    0  0.61340496502E+03  0.22494181582E+03  0.28520882761E+03  0.71288747146E+03  0.00000000000E+00 0.  1.
         15    1    5    5    0    0 -0.29562590974E+03  0.79123245452E+01 -0.18088302416E+03  0.34666858748E+03  0.17770000000E+01 0. -1.
        -16    1    5    5    0    0 -0.28498928912E+03  0.82609969961E+02 -0.20867770311E+03  0.36275292670E+03  0.00000000000E+00 0.  1.
          2    1    6    6  502    0 -0.12295511024E+03 -0.20499942863E+03 -0.11813780309E+03  0.26664445502E+03  0.00000000000E+00 0. -1.
         -1    1    6    6    0  502 -0.29661777675E+02 -0.14269989657E+03 -0.12314060116E+03  0.19080536992E+03  0.00000000000E+00 0.  1.
<mgrwt>
<rscale>  0 0.87734473E+03</rscale>
<asrwt>0</asrwt>
<pdfrwt beam="1">  1        3 0.17936007E+00 0.87734473E+03</pdfrwt>
<pdfrwt beam="2">  1       -4 0.12915313E+00 0.87734473E+03</pdfrwt>
<totfact> 0.19666322E-01</totfact>
</mgrwt>
</event>
<event>
12    3  0.1182097E-007  0.6975845E+03  0.7818608E-02  0.9721372E-01
         -2   -1    0    0    0  501 -0.00000000000E+00  0.00000000000E+00  0.36757349800E+03  0.36757349800E+03  0.00000000000E+00 0.  1.
          1   -1    0    0  501    0  0.00000000000E+00 -0.00000000000E+00 -0.13589049358E+04  0.13589049358E+04  0.00000000000E+00 0. -1.
        -24    2    1    2    0    0 -0.39794424676E+03  0.41489382543E+03 -0.45335079370E+03  0.73660738746E+03  0.81036974258E+02 0.  0.
    5000000    2    1    2    0    0  0.39794424676E+03 -0.41489382543E+03 -0.53798064415E+03  0.98987104639E+03  0.59993750099E+03 0.  0.
        -24    2    4    4    0    0  0.32646404074E+03 -0.55817201302E+03 -0.44320688693E+03  0.78774277449E+03  0.77275922000E+02 0.  0.
         24    2    4    4    0    0  0.71480206026E+02  0.14327818760E+03 -0.94773757219E+02  0.20212827190E+03  0.78966539419E+02 0.  0.
         13    1    3    3    0    0 -0.22122942723E+03  0.17235300488E+03 -0.21474477147E+03  0.35321853665E+03  0.00000000000E+00 0. -1.
        -14    1    3    3    0    0 -0.17671481954E+03  0.24254082054E+03 -0.23860602223E+03  0.38338885080E+03  0.00000000000E+00 0.  1.
         15    1    5    5    0    0  0.62072241609E+02 -0.93376170980E+02 -0.44133664849E+02  0.12051145417E+03  0.17770000000E+01 0. -1.
        -16    1    5    5    0    0  0.26439179913E+03 -0.46479584204E+03 -0.39907322208E+03  0.66723132032E+03  0.00000000000E+00 0.  1.
          2    1    6    6  502    0  0.47291208545E+02  0.40762771727E+02 -0.31337553899E+01  0.62513057735E+02  0.00000000000E+00 0. -1.
         -3    1    6    6    0  502  0.24188997481E+02  0.10251541587E+03 -0.91640001829E+02  0.13961521416E+03  0.00000000000E+00 0.  1.
<mgrwt>
<rscale>  0 0.69758451E+03</rscale>
<asrwt>0</asrwt>
<pdfrwt beam="1">  1        1 0.20906230E+00 0.69758451E+03</pdfrwt>
<pdfrwt beam="2">  1       -2 0.56549768E-01 0.69758451E+03</pdfrwt>
<totfact> 0.21873791E+01</totfact>
</mgrwt>
</event>
<event>
12    3  0.1182097E-007  0.8631190E+03  0.7818608E-02  0.9472896E-01
         -2   -1    0    0    0  501 -0.00000000000E+00  0.00000000000E+00  0.22264911528E+03  0.22264911528E+03  0.00000000000E+00 0.  1.
          1   -1    0    0  501    0  0.00000000000E+00 -0.00000000000E+00 -0.36850631607E+04  0.36850631607E+04  0.00000000000E+00 0. -1.
        -24    2    1    2    0    0 -0.59932616912E+03  0.52999061785E+03 -0.13645134913E+04  0.15836484061E+04  0.77222368603E+02 0.  0.
    5000000    2    1    2    0    0  0.59932616912E+03 -0.52999061785E+03 -0.20979005541E+04  0.23240638698E+04  0.60000352023E+03 0.  0.
        -24    2    4    4    0    0  0.33770714705E+02 -0.32007166019E+03 -0.39237652929E+03  0.51383217722E+03  0.80485009688E+02 0.  0.
         24    2    4    4    0    0  0.56555545441E+03 -0.20991895766E+03 -0.17055240248E+04  0.18102316926E+04  0.64866331976E+02 0.  0.
         13    1    3    3    0    0 -0.50681725023E+03  0.43184542239E+03 -0.10795215565E+04  0.12683536513E+04  0.00000000000E+00 0. -1.
        -14    1    3    3    0    0 -0.92508918890E+02  0.98145195462E+02 -0.28499193485E+03  0.31529475479E+03  0.00000000000E+00 0.  1.
         15    1    5    5    0    0  0.18366668605E+02 -0.17462377603E+03 -0.27507387548E+03  0.32634275290E+03  0.17770000000E+01 0. -1.
        -16    1    5    5    0    0  0.15404046100E+02 -0.14544788415E+03 -0.11730265382E+03  0.18748942432E+03  0.00000000000E+00 0.  1.
          2    1    6    6  502    0  0.23599948158E+03 -0.99229933247E+02 -0.81457127827E+03  0.85385519987E+03  0.00000000000E+00 0. -1.
         -1    1    6    6    0  502  0.32955597283E+03 -0.11068902442E+03 -0.89095274650E+03  0.95637649274E+03  0.00000000000E+00 0.  1.
<mgrwt>
<rscale>  0 0.86311899E+03</rscale>
<asrwt>0</asrwt>
<pdfrwt beam="1">  1        1 0.56693281E+00 0.86311899E+03</pdfrwt>
<pdfrwt beam="2">  1       -2 0.34253709E-01 0.86311899E+03</pdfrwt>
<totfact> 0.13267753E+00</totfact>
</mgrwt>
</event>
<event>
12    3  0.1182097E-007  0.8419200E+03  0.7818608E-02  0.9501246E-01
          1   -1    0    0  501    0  0.00000000000E+00  0.00000000000E+00  0.63654752852E+03  0.63654752852E+03  0.00000000000E+00 0. -1.
         -2   -1    0    0    0  501 -0.00000000000E+00 -0.00000000000E+00 -0.13893972083E+04  0.13893972083E+04  0.00000000000E+00 0.  1.
        -24    2    1    2    0    0 -0.82608798941E+03 -0.17090443427E+02 -0.51606461308E+03  0.97767887349E+03  0.82582354639E+02 0.  0.
    5000000    2    1    2    0    0  0.82608798941E+03  0.17090443427E+02 -0.23678506668E+03  0.10482658633E+04  0.60006724865E+03 0.  0.
        -24    2    4    4    0    0  0.81009400179E+03 -0.14566691341E+02 -0.36533908611E+03  0.89239512947E+03  0.80199370525E+02 0.  0.
         24    2    4    4    0    0  0.15993987620E+02  0.31657134768E+02  0.12855401943E+03  0.15587073385E+03  0.80694286899E+02 0.  0.
         11    1    3    3    0    0 -0.54117440293E+03 -0.22986806052E+02 -0.38153551714E+03  0.66254620857E+03  0.00000000000E+00 0. -1.
        -12    1    3    3    0    0 -0.28491358647E+03  0.58963626252E+01 -0.13452909594E+03  0.31513266493E+03  0.00000000000E+00 0.  1.
         15    1    5    5    0    0  0.18850201228E+03  0.27988914818E+02 -0.71680963075E+02  0.20361165532E+03  0.17770000000E+01 0. -1.
        -16    1    5    5    0    0  0.62159198951E+03 -0.42555606159E+02 -0.29365812304E+03  0.68878347415E+03  0.00000000000E+00 0.  1.
          2    1    6    6  502    0  0.22502754912E+02  0.19442215243E+02  0.13664156978E+03  0.13984023850E+03  0.00000000000E+00 0. -1.
         -1    1    6    6    0  502 -0.65087672912E+01  0.12214919525E+02 -0.80875503473E+01  0.16030495353E+02  0.00000000000E+00 0.  1.
<mgrwt>
<rscale>  0 0.84192005E+03</rscale>
<asrwt>0</asrwt>
<pdfrwt beam="1">  1        1 0.97930389E-01 0.84192005E+03</pdfrwt>
<pdfrwt beam="2">  1       -2 0.21375342E+00 0.84192005E+03</pdfrwt>
<totfact> 0.30298652E+00</totfact>
</mgrwt>
</event>
<event>
12    3  0.1182097E-007  0.3700380E+03  0.7818608E-02  0.1054678E+00
         -2   -1    0    0    0  501 -0.00000000000E+00  0.00000000000E+00  0.97387679770E+02  0.97387679770E+02  0.00000000000E+00 0.  1.
          1   -1    0    0  501    0  0.00000000000E+00 -0.00000000000E+00 -0.19741142538E+04  0.19741142538E+04  0.00000000000E+00 0. -1.
        -24    2    1    2    0    0 -0.17342537378E+03 -0.12012012127E+03 -0.33727971509E+03  0.40591568431E+03  0.80651923444E+02 0.  0.
    5000000    2    1    2    0    0  0.17342537378E+03  0.12012012127E+03 -0.15394468589E+04  0.16655862493E+04  0.59981306956E+03 0.  0.
        -24    2    4    4    0    0  0.31560707068E+03 -0.15652154400E+02 -0.44952970263E+03  0.55537218111E+03  0.80675231718E+02 0.  0.
         24    2    4    4    0    0 -0.14218169690E+03  0.13577227567E+03 -0.10899171563E+04  0.11102140681E+04  0.77499185167E+02 0.  0.
         13    1    3    3    0    0 -0.10241108311E+03 -0.52391602636E+02 -0.24742542901E+03  0.27285940133E+03  0.00000000000E+00 0. -1.
        -14    1    3    3    0    0 -0.71014290665E+02 -0.67728518629E+02 -0.89854286072E+02  0.13305628298E+03  0.00000000000E+00 0.  1.
         15    1    5    5    0    0  0.61537365679E+02 -0.66887703472E+01 -0.41235732137E+02  0.74398456686E+02  0.17770000000E+01 0. -1.
        -16    1    5    5    0    0  0.25406970500E+03 -0.89633840531E+01 -0.40829397049E+03  0.48097372443E+03  0.00000000000E+00 0.  1.
          4    1    6    6  502    0 -0.10876234843E+03  0.13976574462E+03 -0.88411387235E+03  0.90167679968E+03  0.00000000000E+00 0. -1.
         -3    1    6    6    0  502 -0.33419348472E+02 -0.39934689503E+01 -0.20580328396E+03  0.20853726846E+03  0.00000000000E+00 0.  1.
<mgrwt>
<rscale>  0 0.37003805E+03</rscale>
<asrwt>0</asrwt>
<pdfrwt beam="1">  1        1 0.30370987E+00 0.37003805E+03</pdfrwt>
<pdfrwt beam="2">  1       -2 0.14982721E-01 0.37003805E+03</pdfrwt>
<totfact> 0.10383065E+02</totfact>
</mgrwt>
</event>
<event>
12    3  0.1182097E-007  0.2401727E+03  0.7818608E-02  0.1119678E+00
         -2   -1    0    0    0  501 -0.00000000000E+00  0.00000000000E+00  0.30169231219E+03  0.30169231219E+03  0.00000000000E+00 0.  1.
          1   -1    0    0  501    0  0.00000000000E+00 -0.00000000000E+00 -0.55004844019E+03  0.55004844019E+03  0.00000000000E+00 0. -1.
        -24    2    1    2    0    0 -0.11681006427E+03  0.53306536613E+02  0.61603104570E+02  0.16444024354E+03  0.82216015727E+02 0.  0.
    5000000    2    1    2    0    0  0.11681006427E+03 -0.53306536613E+02 -0.30995923256E+03  0.68730050885E+03  0.59985088618E+03 0.  0.
        -24    2    4    4    0    0  0.12352362861E+03  0.10881773151E+03  0.12140424591E+03  0.21967181322E+03  0.80108233540E+02 0.  0.
         24    2    4    4    0    0 -0.67135643482E+01 -0.16212426812E+03 -0.43136347848E+03  0.46762869562E+03  0.79200985776E+02 0.  0.
         13    1    3    3    0    0  0.66216842516E+00  0.22890722198E+02  0.32320498211E+02  0.39611087266E+02  0.00000000000E+00 0. -1.
        -14    1    3    3    0    0 -0.11747223269E+03  0.30415814415E+02  0.29282606359E+02  0.12482915627E+03  0.00000000000E+00 0.  1.
         15    1    5    5    0    0  0.17358343270E+02  0.31766784443E+02  0.69912572762E+02  0.78748753858E+02  0.17770000000E+01 0. -1.
        -16    1    5    5    0    0  0.10616528534E+03  0.77050947069E+02  0.51491673149E+02  0.14092305936E+03  0.00000000000E+00 0.  1.
          2    1    6    6  502    0 -0.26106522648E+02 -0.74804046834E+02 -0.12098805768E+03  0.14462125033E+03  0.00000000000E+00 0. -1.
         -1    1    6    6    0  502  0.19392958300E+02 -0.87320221291E+02 -0.31037542080E+03  0.32300744529E+03  0.00000000000E+00 0.  1.
<mgrwt>
<rscale>  0 0.24017269E+03</rscale>
<asrwt>0</asrwt>
<pdfrwt beam="1">  1        1 0.84622836E-01 0.24017269E+03</pdfrwt>
<pdfrwt beam="2">  1       -2 0.46414202E-01 0.24017269E+03</pdfrwt>
<totfact> 0.15752525E+02</totfact>
</mgrwt>
</event>
<event>
12    3  0.1182097E-007  0.2689473E+03  0.7818608E-02  0.1101884E+00
          1   -1    0    0  501    0  0.00000000000E+00  0.00000000000E+00  0.51320890653E+03  0.51320890653E+03  0.00000000000E+00 0. -1.
         -2   -1    0    0    0  501 -0.00000000000E+00 -0.00000000000E+00 -0.39001195619E+03  0.39001195619E+03  0.00000000000E+00 0.  1.
        -24    2    1    2    0    0 -0.12243674459E+02  0.11368640419E+03  0.24379531733E+03  0.28086815095E+03  0.79851458360E+02 0.  0.
    5000000    2    1    2    0    0  0.12243674459E+02 -0.11368640419E+03 -0.12059836698E+03  0.62235271177E+03  0.59975363748E+03 0.  0.
        -24    2    4    4    0    0 -0.93443308206E+02  0.11233416155E+03  0.16683630325E+03  0.23602026463E+03  0.80750216916E+02 0.  0.
         24    2    4    4    0    0  0.10568698267E+03 -0.22602056574E+03 -0.28743467024E+03  0.38633244715E+03  0.66174282158E+02 0.  0.
         13    1    3    3    0    0  0.19923496211E+02  0.83639801665E+02  0.20458995302E+03  0.22192253378E+03  0.00000000000E+00 0. -1.
        -14    1    3    3    0    0 -0.32167170670E+02  0.30046602528E+02  0.39205364312E+02  0.58945617167E+02  0.00000000000E+00 0.  1.
         15    1    5    5    0    0 -0.24617231589E+02  0.55721836489E+02  0.12173947928E+03  0.13614179996E+03  0.17770000000E+01 0. -1.
        -16    1    5    5    0    0 -0.68826076617E+02  0.56612325062E+02  0.45096823974E+02  0.99878464666E+02  0.00000000000E+00 0.  1.
          4    1    6    6  502    0  0.35383346189E+02 -0.15072049074E+03 -0.16340779290E+03  0.22510165325E+03  0.00000000000E+00 0. -1.
         -3    1    6    6    0  502  0.70303636477E+02 -0.75300075003E+02 -0.12402687734E+03  0.16123079389E+03  0.00000000000E+00 0.  1.
<mgrwt>
<rscale>  0 0.26894728E+03</rscale>
<asrwt>0</asrwt>
<pdfrwt beam="1">  1        1 0.78955216E-01 0.26894728E+03</pdfrwt>
<pdfrwt beam="2">  1       -2 0.60001840E-01 0.26894728E+03</pdfrwt>
<totfact> 0.10250207E+02</totfact>
</mgrwt>
</event>
<event>
12    3  0.1182097E-007  0.8021019E+03  0.7818608E-02  0.9556980E-01
         -2   -1    0    0    0  501 -0.00000000000E+00  0.00000000000E+00  0.11717381777E+04  0.11717381777E+04  0.00000000000E+00 0.  1.
          1   -1    0    0  501    0  0.00000000000E+00 -0.00000000000E+00 -0.66177157051E+03  0.66177157051E+03  0.00000000000E+00 0. -1.
        -24    2    1    2    0    0 -0.57714448542E+03 -0.39337912935E+03  0.57809475201E+03  0.91011962779E+03  0.79254641094E+02 0.  0.
    5000000    2    1    2    0    0  0.57714448542E+03  0.39337912935E+03 -0.68128144854E+02  0.92339012040E+03  0.60013746248E+03 0.  0.
        -24    2    4    4    0    0  0.25552446124E+03  0.49041321321E+03  0.45603322291E+02  0.56048642837E+03  0.79167565293E+02 0.  0.
         24    2    4    4    0    0  0.32162002417E+03 -0.97034083865E+02 -0.11373146715E+03  0.36290369203E+03  0.76871253973E+02 0.  0.
         13    1    3    3    0    0 -0.33355929252E+03 -0.18157888862E+03  0.32719028171E+03  0.50128452486E+03  0.00000000000E+00 0. -1.
        -14    1    3    3    0    0 -0.24358519289E+03 -0.21180024073E+03  0.25090447029E+03  0.40883510292E+03  0.00000000000E+00 0.  1.
         15    1    5    5    0    0  0.19920593049E+03  0.30123303116E+03  0.34437293282E+02  0.36278564842E+03  0.17770000000E+01 0. -1.
        -16    1    5    5    0    0  0.56318530755E+02  0.18918018205E+03  0.11166029009E+02  0.19770077994E+03  0.00000000000E+00 0.  1.
          4    1    6    6  502    0  0.23595197494E+03 -0.37826816993E+02 -0.63348765482E+02  0.24721907016E+03  0.00000000000E+00 0. -1.
         -3    1    6    6    0  502  0.85668049231E+02 -0.59207266873E+02 -0.50382701663E+02  0.11568462187E+03  0.00000000000E+00 0.  1.
<mgrwt>
<rscale>  0 0.80210194E+03</rscale>
<asrwt>0</asrwt>
<pdfrwt beam="1">  1        1 0.10181101E+00 0.80210194E+03</pdfrwt>
<pdfrwt beam="2">  1       -2 0.18026741E+00 0.80210194E+03</pdfrwt>
<totfact> 0.47726387E+00</totfact>
</mgrwt>
</event>
<event>
12    3  0.1182097E-007  0.8023292E+03  0.7818608E-02  0.9556652E-01
          1   -1    0    0  501    0  0.00000000000E+00  0.00000000000E+00  0.79999843935E+03  0.79999843935E+03  0.00000000000E+00 0. -1.
         -2   -1    0    0    0  501 -0.00000000000E+00 -0.00000000000E+00 -0.10188381839E+04  0.10188381839E+04  0.00000000000E+00 0.  1.
        -24    2    1    2    0    0  0.48429974085E+03  0.63443382281E+03 -0.27050831194E+02  0.80244367138E+03  0.78304430027E+02 0.  0.
    5000000    2    1    2    0    0 -0.48429974085E+03 -0.63443382281E+03 -0.19178891331E+03  0.10163929518E+04  0.59934892237E+03 0.  0.
        -24    2    4    4    0    0 -0.27749372818E+03 -0.37059395449E+03 -0.39763495089E+03  0.61516832166E+03  0.77303696737E+02 0.  0.
         24    2    4    4    0    0 -0.20680601267E+03 -0.26383986832E+03  0.20584603758E+03  0.40122463016E+03  0.78920274164E+02 0.  0.
         13    1    3    3    0    0  0.23808176512E+03  0.25518425588E+03  0.62105679546E+01  0.34905658923E+03  0.00000000000E+00 0. -1.
        -14    1    3    3    0    0  0.24621797573E+03  0.37924956692E+03 -0.33261399148E+02  0.45338708215E+03  0.00000000000E+00 0.  1.
         15    1    5    5    0    0 -0.16874456322E+03 -0.16890993231E+03 -0.22729794700E+03  0.32965558889E+03  0.17770000000E+01 0. -1.
        -16    1    5    5    0    0 -0.10874916496E+03 -0.20168402217E+03 -0.17033700389E+03  0.28551273277E+03  0.00000000000E+00 0.  1.
          2    1    6    6  502    0 -0.40598396748E+02 -0.42231588366E+02  0.74158690810E+02  0.94505281848E+02  0.00000000000E+00 0. -1.
         -1    1    6    6    0  502 -0.16620761592E+03 -0.22160827995E+03  0.13168734677E+03  0.30671934831E+03  0.00000000000E+00 0.  1.
<mgrwt>
<rscale>  0 0.80232915E+03</rscale>
<asrwt>0</asrwt>
<pdfrwt beam="1">  1        1 0.12307668E+00 0.80232915E+03</pdfrwt>
<pdfrwt beam="2">  1       -2 0.15674434E+00 0.80232915E+03</pdfrwt>
<totfact> 0.52482727E+00</totfact>
</mgrwt>
</event>
<event>
12    3  0.1182097E-007  0.4927004E+03  0.7818608E-02  0.1015702E+00
          1   -1    0    0  501    0  0.00000000000E+00  0.00000000000E+00  0.41249673793E+03  0.41249673793E+03  0.00000000000E+00 0. -1.
         -2   -1    0    0    0  501 -0.00000000000E+00 -0.00000000000E+00 -0.75207177525E+03  0.75207177525E+03  0.00000000000E+00 0.  1.
        -24    2    1    2    0    0 -0.37479663190E+03 -0.85552861449E+02 -0.19107337341E+03  0.43666765369E+03  0.79861119282E+02 0.  0.
    5000000    2    1    2    0    0  0.37479663190E+03  0.85552861449E+02 -0.14850166391E+03  0.72790085949E+03  0.59999592472E+03 0.  0.
        -24    2    4    4    0    0  0.16859055420E+03 -0.17710723504E+03 -0.26160103628E+03  0.36687149194E+03  0.79811288350E+02 0.  0.
         24    2    4    4    0    0  0.20620607770E+03  0.26266009649E+03  0.11309937237E+03  0.36102936755E+03  0.77713984814E+02 0.  0.
         11    1    3    3    0    0 -0.31887743549E+03 -0.43998321050E+02 -0.14435464044E+03  0.35278454238E+03  0.00000000000E+00 0. -1.
        -12    1    3    3    0    0 -0.55919196402E+02 -0.41554540399E+02 -0.46718732971E+02  0.83883111318E+02  0.00000000000E+00 0.  1.
         15    1    5    5    0    0  0.93221302307E+02 -0.15023853845E+03 -0.18919753498E+03  0.25896079744E+03  0.17770000000E+01 0. -1.
        -16    1    5    5    0    0  0.75369251892E+02 -0.26868696590E+02 -0.72403501294E+02  0.10791069450E+03  0.00000000000E+00 0.  1.
          4    1    6    6  502    0  0.18532924650E+03  0.20853317461E+03  0.11777741513E+03  0.30282756485E+03  0.00000000000E+00 0. -1.
         -3    1    6    6    0  502  0.20876831203E+02  0.54126921877E+02 -0.46780427620E+01  0.58201802696E+02  0.00000000000E+00 0.  1.
<mgrwt>
<rscale>  0 0.49270044E+03</rscale>
<asrwt>0</asrwt>
<pdfrwt beam="1">  1        1 0.63461037E-01 0.49270044E+03</pdfrwt>
<pdfrwt beam="2">  1       -2 0.11570335E+00 0.49270044E+03</pdfrwt>
<totfact> 0.30436346E+01</totfact>
</mgrwt>
</event>
<event>
12    3  0.1182097E-007  0.9052505E+03  0.7818608E-02  0.9419042E-01
         -2   -1    0    0    0  501 -0.00000000000E+00  0.00000000000E+00  0.12643947944E+04  0.12643947944E+04  0.00000000000E+00 0.  1.
          1   -1    0    0  501    0  0.00000000000E+00 -0.00000000000E+00 -0.66106362354E+03  0.66106362354E+03  0.00000000000E+00 0. -1.
        -24    2    1    2    0    0 -0.80494204001E+03 -0.68130838969E+02  0.16507128560E+03  0.82793809698E+03  0.75229409922E+02 0.  0.
    5000000    2    1    2    0    0  0.80494204001E+03  0.68130838969E+02  0.43825988528E+03  0.10975203210E+04  0.59992135230E+03 0.  0.
        -24    2    4    4    0    0  0.43979900791E+03  0.32342981312E+03  0.26488688942E+03  0.61243211681E+03  0.82933841919E+02 0.  0.
         24    2    4    4    0    0  0.36514303209E+03 -0.25529897415E+03  0.17337299585E+03  0.48508820418E+03  0.82130201835E+02 0.  0.
         11    1    3    3    0    0 -0.61678035625E+03 -0.45548540725E+02  0.15786143532E+03  0.63828904908E+03  0.00000000000E+00 0. -1.
        -12    1    3    3    0    0 -0.18816168376E+03 -0.22582298245E+02  0.72098502796E+01  0.18964904790E+03  0.00000000000E+00 0.  1.
         15    1    5    5    0    0  0.27906199420E+02  0.43242730329E+02  0.43021688013E+02  0.67102258239E+02  0.17770000000E+01 0. -1.
        -16    1    5    5    0    0  0.41189280849E+03  0.28018708279E+03  0.22186520141E+03  0.54532985857E+03  0.00000000000E+00 0.  1.
          4    1    6    6  502    0  0.22913498441E+03 -0.20626566382E+03  0.11177190765E+03  0.32793493942E+03  0.00000000000E+00 0. -1.
         -3    1    6    6    0  502  0.13600804769E+03 -0.49033310327E+02  0.61601088199E+02  0.15715326476E+03  0.00000000000E+00 0.  1.
<mgrwt>
<rscale>  0 0.90525051E+03</rscale>
<asrwt>0</asrwt>
<pdfrwt beam="1">  1        1 0.10170210E+00 0.90525051E+03</pdfrwt>
<pdfrwt beam="2">  1       -2 0.19452228E+00 0.90525051E+03</pdfrwt>
<totfact> 0.37878900E+00</totfact>
</mgrwt>
</event>
<event>
12    3  0.1182097E-007  0.9866570E+03  0.7818608E-02  0.9323301E-01
          1   -1    0    0  501    0  0.00000000000E+00  0.00000000000E+00  0.83826411767E+03  0.83826411767E+03  0.00000000000E+00 0. -1.
         -2   -1    0    0    0  501 -0.00000000000E+00 -0.00000000000E+00 -0.11786119897E+04  0.11786119897E+04  0.00000000000E+00 0.  1.
        -24    2    1    2    0    0 -0.24694251150E+03 -0.86723576687E+03 -0.14836801320E+03  0.91690191232E+03  0.74950451250E+02 0.  0.
    5000000    2    1    2    0    0  0.24694251150E+03  0.86723576687E+03 -0.19197985886E+03  0.10999741951E+04  0.60000707020E+03 0.  0.
        -24    2    4    4    0    0 -0.12648064439E+03  0.58470243022E+03 -0.15603682933E+03  0.62336006386E+03  0.79724474338E+02 0.  0.
         24    2    4    4    0    0  0.37342315588E+03  0.28253333666E+03 -0.35943029529E+02  0.47661413121E+03  0.81235392677E+02 0.  0.
         13    1    3    3    0    0 -0.24414780914E+03 -0.77914871769E+03 -0.13933865731E+03  0.82830920458E+03  0.00000000000E+00 0. -1.
        -14    1    3    3    0    0 -0.27947023596E+01 -0.88087049187E+02 -0.90293558930E+01  0.88592707733E+02  0.00000000000E+00 0.  1.
         15    1    5    5    0    0 -0.82243692064E+02  0.26661422347E+03 -0.10530997697E+03  0.29822896911E+03  0.17770000000E+01 0. -1.
        -16    1    5    5    0    0 -0.44236952322E+02  0.31808820675E+03 -0.50726852353E+02  0.32513109475E+03  0.00000000000E+00 0.  1.
          2    1    6    6  502    0  0.19906947536E+03  0.14106147386E+03 -0.58672322219E+02  0.25093711726E+03  0.00000000000E+00 0. -1.
         -1    1    6    6    0  502  0.17435368053E+03  0.14147186280E+03  0.22729292689E+02  0.22567701395E+03  0.00000000000E+00 0.  1.
<mgrwt>
<rscale>  0 0.98665697E+03</rscale>
<asrwt>0</asrwt>
<pdfrwt beam="1">  1        1 0.12896371E+00 0.98665697E+03</pdfrwt>
<pdfrwt beam="2">  1       -2 0.18132492E+00 0.98665697E+03</pdfrwt>
<totfact> 0.31807311E+00</totfact>
</mgrwt>
</event>
<event>
12    3  0.1182097E-007  0.4132830E+03  0.7818608E-02  0.1039275E+00
         -2   -1    0    0    0  501 -0.00000000000E+00  0.00000000000E+00  0.74129918686E+02  0.74129918686E+02  0.00000000000E+00 0.  1.
          1   -1    0    0  501    0  0.00000000000E+00 -0.00000000000E+00 -0.29286442919E+04  0.29286442919E+04  0.00000000000E+00 0. -1.
        -24    2    1    2    0    0 -0.11435973974E+03 -0.17827613155E+03 -0.33256572330E+03  0.40185302437E+03  0.77623216411E+02 0.  0.
    5000000    2    1    2    0    0  0.11435973974E+03  0.17827613155E+03 -0.25219486499E+04  0.26009211862E+04  0.59975452892E+03 0.  0.
        -24    2    4    4    0    0 -0.10974388270E+03  0.32055871273E+03 -0.11665682733E+04  0.12175631492E+04  0.82321794786E+02 0.  0.
         24    2    4    4    0    0  0.22410362243E+03 -0.14228258118E+03 -0.13553803766E+04  0.13833580370E+04  0.78464812553E+02 0.  0.
         11    1    3    3    0    0 -0.59164683590E+02 -0.11940293444E+03 -0.26493638198E+03  0.29656164120E+03  0.00000000000E+00 0. -1.
        -12    1    3    3    0    0 -0.55195056147E+02 -0.58873197115E+02 -0.67629341324E+02  0.10529138317E+03  0.00000000000E+00 0.  1.
         15    1    5    5    0    0 -0.34310534063E+02  0.34415032023E+02 -0.10862953825E+03  0.11901739993E+03  0.17770000000E+01 0. -1.
        -16    1    5    5    0    0 -0.75433348633E+02  0.28614368071E+03 -0.10579387350E+04  0.10985457492E+04  0.00000000000E+00 0.  1.
          2    1    6    6  502    0  0.10053391425E+03 -0.85902746072E+02 -0.49666901318E+03  0.51397126218E+03  0.00000000000E+00 0. -1.
         -1    1    6    6    0  502  0.12356970818E+03 -0.56379835106E+02 -0.85871136340E+03  0.86938677481E+03  0.00000000000E+00 0.  1.
<mgrwt>
<rscale>  0 0.41328304E+03</rscale>
<asrwt>0</asrwt>
<pdfrwt beam="1">  1        1 0.45056053E+00 0.41328304E+03</pdfrwt>
<pdfrwt beam="2">  1       -2 0.11404606E-01 0.41328304E+03</pdfrwt>
<totfact> 0.36774280E+01</totfact>
</mgrwt>
</event>
<event>
12    3  0.1182097E-007  0.9121065E+03  0.7818608E-02  0.9410573E-01
         -2   -1    0    0    0  501 -0.00000000000E+00  0.00000000000E+00  0.66846578399E+03  0.66846578399E+03  0.00000000000E+00 0.  1.
          1   -1    0    0  501    0  0.00000000000E+00 -0.00000000000E+00 -0.13176208601E+04  0.13176208601E+04  0.00000000000E+00 0. -1.
        -24    2    1    2    0    0  0.41759041385E+03  0.69837229108E+03 -0.69382417198E+02  0.82063455611E+03  0.80756078246E+02 0.  0.
    5000000    2    1    2    0    0 -0.41759041385E+03 -0.69837229108E+03 -0.57977265891E+03  0.11654520880E+04  0.60003051810E+03 0.  0.
        -24    2    4    4    0    0 -0.56152054708E+03 -0.53673573049E+03 -0.44426388035E+03  0.89814200047E+03  0.76799013276E+02 0.  0.
         24    2    4    4    0    0  0.14393013323E+03 -0.16163656059E+03 -0.13550877856E+03  0.26731008751E+03  0.79055631330E+02 0.  0.
         11    1    3    3    0    0  0.10177500757E+03  0.24308383591E+03 -0.17476109522E+02  0.26410853423E+03  0.00000000000E+00 0. -1.
        -12    1    3    3    0    0  0.31581540628E+03  0.45528845517E+03 -0.51906307676E+02  0.55652602188E+03  0.00000000000E+00 0.  1.
         15    1    5    5    0    0 -0.54842377214E+03 -0.51770092577E+03 -0.44372562210E+03  0.87503055251E+03  0.17770000000E+01 0. -1.
        -16    1    5    5    0    0 -0.13096774941E+02 -0.19034804720E+02 -0.53825824680E+00  0.23111447954E+02  0.00000000000E+00 0.  1.
          4    1    6    6  502    0  0.74959336628E+02 -0.30100176316E+02 -0.60500305431E+02  0.10092180002E+03  0.00000000000E+00 0. -1.
         -3    1    6    6    0  502  0.68970796602E+02 -0.13153638427E+03 -0.75008473129E+02  0.16638828749E+03  0.00000000000E+00 0.  1.
<mgrwt>
<rscale>  0 0.91210654E+03</rscale>
<asrwt>0</asrwt>
<pdfrwt beam="1">  1        1 0.20271090E+00 0.91210654E+03</pdfrwt>
<pdfrwt beam="2">  1       -2 0.10284089E+00 0.91210654E+03</pdfrwt>
<totfact> 0.60087101E+00</totfact>
</mgrwt>
</event>
<event>
12    3  0.1182097E-007  0.6150175E+03  0.7818608E-02  0.9874730E-01
          1   -1    0    0  501    0  0.00000000000E+00  0.00000000000E+00  0.53531914475E+03  0.53531914475E+03  0.00000000000E+00 0. -1.
         -2   -1    0    0    0  501 -0.00000000000E+00 -0.00000000000E+00 -0.82554038346E+03  0.82554038346E+03  0.00000000000E+00 0.  1.
        -24    2    1    2    0    0 -0.16457523657E+03  0.49867633979E+03 -0.14235760890E+03  0.55000390143E+03  0.80470506537E+02 0.  0.
    5000000    2    1    2    0    0  0.16457523657E+03 -0.49867633979E+03 -0.14786362981E+03  0.81085562678E+03  0.59988340042E+03 0.  0.
        -24    2    4    4    0    0  0.27573723210E+03 -0.11789288056E+03  0.11214255522E+03  0.32969214813E+03  0.78684225855E+02 0.  0.
         24    2    4    4    0    0 -0.11116199553E+03 -0.38078345923E+03 -0.26000618503E+03  0.48116347865E+03  0.81006449487E+02 0.  0.
         13    1    3    3    0    0 -0.98938463179E+02  0.27889170739E+03 -0.39228150836E+02  0.29851005304E+03  0.00000000000E+00 0. -1.
        -14    1    3    3    0    0 -0.65636773390E+02  0.21978463240E+03 -0.10312945806E+03  0.25149384839E+03  0.00000000000E+00 0.  1.
         15    1    5    5    0    0  0.22528367538E+03 -0.93758627728E+02  0.12213133153E+03  0.27287842447E+03  0.17770000000E+01 0. -1.
        -16    1    5    5    0    0  0.50453556711E+02 -0.24134252829E+02 -0.99887763136E+01  0.56813723665E+02  0.00000000000E+00 0.  1.
          4    1    6    6  502    0 -0.12039067324E+03 -0.37510495207E+03 -0.25451804777E+03  0.46901713819E+03  0.00000000000E+00 0. -1.
         -3    1    6    6    0  502  0.92286777184E+01 -0.56785071549E+01 -0.54881372616E+01  0.12146340459E+02  0.00000000000E+00 0.  1.
<mgrwt>
<rscale>  0 0.61501752E+03</rscale>
<asrwt>0</asrwt>
<pdfrwt beam="1">  1        1 0.82356791E-01 0.61501752E+03</pdfrwt>
<pdfrwt beam="2">  1       -2 0.12700621E+00 0.61501752E+03</pdfrwt>
<totfact> 0.16776572E+01</totfact>
</mgrwt>
</event>
<event>
12    3  0.1182097E-007  0.1800664E+04  0.7818608E-02  0.8705946E-01
          1   -1    0    0  501    0  0.00000000000E+00  0.00000000000E+00  0.33311948193E+04  0.33311948193E+04  0.00000000000E+00 0. -1.
         -2   -1    0    0    0  501 -0.00000000000E+00 -0.00000000000E+00 -0.11757192432E+04  0.11757192432E+04  0.00000000000E+00 0.  1.
        -24    2    1    2    0    0  0.17693290466E+04  0.12071523238E+03  0.17906061393E+03  0.17845185126E+04  0.85709837243E+02 0.  0.
    5000000    2    1    2    0    0 -0.17693290466E+04 -0.12071523238E+03  0.19764149621E+04  0.27223955499E+04  0.60010331199E+03 0.  0.
        -24    2    4    4    0    0 -0.17741184035E+04 -0.15756786546E+03  0.18642453599E+04  0.25797747574E+04  0.86621561620E+02 0.  0.
         24    2    4    4    0    0  0.47893569629E+01  0.36852633073E+02  0.11216960223E+03  0.14262079249E+03  0.79859979224E+02 0.  0.
         13    1    3    3    0    0  0.80762083705E+03  0.24750764082E+02  0.51307311923E+02  0.80962735689E+03  0.00000000000E+00 0. -1.
        -14    1    3    3    0    0  0.96170820950E+03  0.95964468303E+02  0.12775330201E+03  0.97489115576E+03  0.00000000000E+00 0.  1.
         15    1    5    5    0    0 -0.42344119406E+03 -0.50567682100E+02  0.39722432049E+03  0.58279486427E+03  0.17770000000E+01 0. -1.
        -16    1    5    5    0    0 -0.13506772095E+04 -0.10700018336E+03  0.14670210394E+04  0.19969798931E+04  0.00000000000E+00 0.  1.
          2    1    6    6  502    0  0.15712094012E+02  0.20879944168E+02 -0.25733628894E+01  0.26257649614E+02  0.00000000000E+00 0. -1.
         -1    1    6    6    0  502 -0.10922737050E+02  0.15972688906E+02  0.11474296512E+03  0.11636314288E+03  0.00000000000E+00 0.  1.
<mgrwt>
<rscale>  0 0.18006641E+04</rscale>
<asrwt>0</asrwt>
<pdfrwt beam="1">  1        1 0.51249151E+00 0.18006641E+04</pdfrwt>
<pdfrwt beam="2">  1       -2 0.18087989E+00 0.18006641E+04</pdfrwt>
<totfact> 0.48482534E-02</totfact>
</mgrwt>
</event>
<event>
12    3  0.1182097E-007  0.4849612E+03  0.7818608E-02  0.1017781E+00
         -2   -1    0    0    0  501 -0.00000000000E+00  0.00000000000E+00  0.50953692135E+03  0.50953692135E+03  0.00000000000E+00 0.  1.
          1   -1    0    0  501    0  0.00000000000E+00 -0.00000000000E+00 -0.58192934311E+03  0.58192934311E+03  0.00000000000E+00 0. -1.
        -24    2    1    2    0    0  0.29153604173E+03 -0.15980463009E+03  0.14609141528E+03  0.37179306769E+03  0.79728289443E+02 0.  0.
    5000000    2    1    2    0    0 -0.29153604173E+03  0.15980463009E+03 -0.21848383704E+03  0.71967319677E+03  0.59971955085E+03 0.  0.
        -24    2    4    4    0    0  0.87524426372E+02  0.21484262578E+03  0.36511932050E+02  0.24824353954E+03  0.80460267670E+02 0.  0.
         24    2    4    4    0    0 -0.37906046811E+03 -0.55037995696E+02 -0.25499576909E+03  0.47142965724E+03  0.10250395123E+03 0.  0.
         11    1    3    3    0    0  0.19890439925E+02  0.70826418520E+01  0.19578265442E+02  0.28794129501E+02  0.00000000000E+00 0. -1.
        -12    1    3    3    0    0  0.27164560181E+03 -0.16688727194E+03  0.12651314983E+03  0.34299893819E+03  0.00000000000E+00 0.  1.
         15    1    5    5    0    0  0.11842118855E+02  0.13410426314E+03  0.25520034019E+02  0.13703510147E+03  0.17770000000E+01 0. -1.
        -16    1    5    5    0    0  0.75682307516E+02  0.80738362649E+02  0.10991898031E+02  0.11120843806E+03  0.00000000000E+00 0.  1.
          2    1    6    6  502    0 -0.15669701878E+03 -0.40543168600E+02 -0.16492265250E+03  0.23107831037E+03  0.00000000000E+00 0. -1.
         -1    1    6    6    0  502 -0.22236344933E+03 -0.14494827096E+02 -0.90073116589E+02  0.24035134687E+03  0.00000000000E+00 0.  1.
<mgrwt>
<rscale>  0 0.48496124E+03</rscale>
<asrwt>0</asrwt>
<pdfrwt beam="1">  1        1 0.89527591E-01 0.48496124E+03</pdfrwt>
<pdfrwt beam="2">  1       -2 0.78390296E-01 0.48496124E+03</pdfrwt>
<totfact> 0.47250642E+01</totfact>
</mgrwt>
</event>
<event>
12    3  0.1182097E-007  0.8234621E+03  0.7818608E-02  0.9526664E-01
          1   -1    0    0  501    0  0.00000000000E+00  0.00000000000E+00  0.79126942401E+03  0.79126942401E+03  0.00000000000E+00 0. -1.
         -2   -1    0    0    0  501 -0.00000000000E+00 -0.00000000000E+00 -0.10649277802E+04  0.10649277802E+04  0.00000000000E+00 0.  1.
        -24    2    1    2    0    0  0.79554221574E+03  0.55428050643E+02 -0.30537203889E+03  0.85796492290E+03  0.83018317018E+02 0.  0.
    5000000    2    1    2    0    0 -0.79554221574E+03 -0.55428050643E+02  0.31713682661E+02  0.99823228135E+03  0.59958505988E+03 0.  0.
        -24    2    4    4    0    0 -0.62015958981E+03 -0.15922895313E+03 -0.20411302846E+03  0.67666021632E+03  0.79089465923E+02 0.  0.
         24    2    4    4    0    0 -0.17538262593E+03  0.10380090249E+03  0.23582671112E+03  0.32157206502E+03  0.79124348262E+02 0.  0.
         13    1    3    3    0    0  0.38200943216E+03  0.52258315095E+02 -0.11242936936E+03  0.40162482599E+03  0.00000000000E+00 0. -1.
        -14    1    3    3    0    0  0.41353278358E+03  0.31697355479E+01 -0.19294266954E+03  0.45634009691E+03  0.00000000000E+00 0.  1.
         15    1    5    5    0    0 -0.19291834674E+03 -0.39543277362E+02 -0.26376802472E+02  0.19869588000E+03  0.17770000000E+01 0. -1.
        -16    1    5    5    0    0 -0.42724124307E+03 -0.11968567577E+03 -0.17773622599E+03  0.47796433632E+03  0.00000000000E+00 0.  1.
          2    1    6    6  502    0 -0.58845316323E+02  0.15156377792E+02  0.26917977033E+02  0.66461000056E+02  0.00000000000E+00 0. -1.
         -1    1    6    6    0  502 -0.11653730961E+03  0.88644524699E+02  0.20890873409E+03  0.25511106497E+03  0.00000000000E+00 0.  1.
<mgrwt>
<rscale>  0 0.82346206E+03</rscale>
<asrwt>0</asrwt>
<pdfrwt beam="1">  1        1 0.12173376E+00 0.82346206E+03</pdfrwt>
<pdfrwt beam="2">  1       -2 0.16383504E+00 0.82346206E+03</pdfrwt>
<totfact> 0.47241186E+00</totfact>
</mgrwt>
</event>
<event>
12    3  0.1182097E-007  0.4094492E+03  0.7818608E-02  0.1040556E+00
         -2   -1    0    0    0  501 -0.00000000000E+00  0.00000000000E+00  0.91739197196E+03  0.91739197196E+03  0.00000000000E+00 0.  1.
          1   -1    0    0  501    0  0.00000000000E+00 -0.00000000000E+00 -0.30207476582E+03  0.30207476582E+03  0.00000000000E+00 0. -1.
        -24    2    1    2    0    0 -0.19351177651E+03 -0.27419213284E+03  0.97036719264E+02  0.35848669921E+03  0.80426707396E+02 0.  0.
    5000000    2    1    2    0    0  0.19351177651E+03  0.27419213284E+03  0.51828048688E+03  0.86098003857E+03  0.60003652420E+03 0.  0.
        -24    2    4    4    0    0  0.22283966064E+03  0.47717717679E+02  0.56291338652E+03  0.61273207303E+03  0.81453162405E+02 0.  0.
         24    2    4    4    0    0 -0.29327884127E+02  0.22647441517E+03 -0.44632899640E+02  0.24824796554E+03  0.86511104216E+02 0.  0.
         11    1    3    3    0    0 -0.81260697602E+02 -0.15899958910E+03  0.18562940024E+02  0.17952368382E+03  0.00000000000E+00 0. -1.
        -12    1    3    3    0    0 -0.11225107891E+03 -0.11519254375E+03  0.78473779240E+02  0.17896301539E+03  0.00000000000E+00 0.  1.
         15    1    5    5    0    0  0.12740272549E+03 -0.42516256829E+01  0.36959152127E+03  0.39096109923E+03  0.17770000000E+01 0. -1.
        -16    1    5    5    0    0  0.95436935150E+02  0.51969343362E+02  0.19332186525E+03  0.22177097381E+03  0.00000000000E+00 0.  1.
          4    1    6    6  502    0 -0.49907811953E+02  0.21293843034E+03 -0.46311858464E+02  0.22355838844E+03  0.00000000000E+00 0. -1.
         -3    1    6    6    0  502  0.20579927826E+02  0.13535984830E+02  0.16789588237E+01  0.24689577099E+02  0.00000000000E+00 0.  1.
<mgrwt>
<rscale>  0 0.40944920E+03</rscale>
<asrwt>0</asrwt>
<pdfrwt beam="1">  1        1 0.46473041E-01 0.40944920E+03</pdfrwt>
<pdfrwt beam="2">  1       -2 0.14113723E+00 0.40944920E+03</pdfrwt>
<totfact> 0.28004061E+01</totfact>
</mgrwt>
</event>
<event>
12    3  0.1182097E-007  0.1953126E+04  0.7818608E-02  0.8628855E-01
         -2   -1    0    0    0  501 -0.00000000000E+00  0.00000000000E+00  0.11426225786E+04  0.11426225786E+04  0.00000000000E+00 0.  1.
          1   -1    0    0  501    0  0.00000000000E+00 -0.00000000000E+00 -0.46589696520E+04  0.46589696520E+04  0.00000000000E+00 0. -1.
        -24    2    1    2    0    0 -0.18582073635E+04 -0.51762581264E+03 -0.32276710355E+04  0.37608416922E+04  0.72102930633E+02 0.  0.
    5000000    2    1    2    0    0  0.18582073635E+04  0.51762581264E+03 -0.28867603790E+03  0.20407505383E+04  0.60038139315E+03 0.  0.
        -24    2    4    4    0    0  0.82798413102E+03  0.43653692162E+03 -0.34799411351E+03  0.10018304646E+04  0.80263139508E+02 0.  0.
         24    2    4    4    0    0  0.10302232325E+04  0.81088891016E+02  0.59318075603E+02  0.10389200738E+04  0.88887392819E+02 0.  0.
         11    1    3    3    0    0 -0.10993393509E+04 -0.27083088946E+03 -0.18740003277E+04  0.21894687957E+04  0.00000000000E+00 0. -1.
        -12    1    3    3    0    0 -0.75886801256E+03 -0.24679492318E+03 -0.13536707078E+04  0.15713728965E+04  0.00000000000E+00 0.  1.
         15    1    5    5    0    0  0.34327188320E+03  0.22224573098E+03 -0.13474728442E+03  0.43056792626E+03  0.17770000000E+01 0. -1.
        -16    1    5    5    0    0  0.48471224782E+03  0.21429119064E+03 -0.21324682908E+03  0.57126253832E+03  0.00000000000E+00 0.  1.
          2    1    6    6  502    0  0.33609735790E+03  0.67931161463E+02  0.25722007067E+02  0.34385708998E+03  0.00000000000E+00 0. -1.
         -1    1    6    6    0  502  0.69412587457E+03  0.13157729553E+02  0.33596068536E+02  0.69506298378E+03  0.00000000000E+00 0.  1.
<mgrwt>
<rscale>  0 0.19531258E+04</rscale>
<asrwt>0</asrwt>
<pdfrwt beam="1">  1        1 0.71676457E+00 0.19531258E+04</pdfrwt>
<pdfrwt beam="2">  1       -2 0.17578809E+00 0.19531258E+04</pdfrwt>
<totfact> 0.33773416E-03</totfact>
</mgrwt>
</event>
<event>
12    3  0.1182097E-007  0.5747862E+03  0.7818608E-02  0.9959143E-01
          3   -1    0    0  501    0  0.00000000000E+00  0.00000000000E+00  0.10878201229E+04  0.10878201229E+04  0.00000000000E+00 0. -1.
         -4   -1    0    0    0  501 -0.00000000000E+00 -0.00000000000E+00 -0.34229759875E+03  0.34229759875E+03  0.00000000000E+00 0.  1.
        -24    2    1    2    0    0  0.42601411968E+03  0.16859021118E+03  0.29684005322E+03  0.55193804749E+03  0.81307451061E+02 0.  0.
    5000000    2    1    2    0    0 -0.42601411968E+03 -0.16859021118E+03  0.44868247098E+03  0.87817967421E+03  0.59997740870E+03 0.  0.
        -24    2    4    4    0    0 -0.51312034463E+03 -0.24821240089E+03  0.23437605141E+03  0.62143030083E+03  0.79634171601E+02 0.  0.
         24    2    4    4    0    0  0.87106224945E+02  0.79622189709E+02  0.21430641957E+03  0.25674937338E+03  0.77883321352E+02 0.  0.
         11    1    3    3    0    0  0.21611264142E+03  0.10253731944E+03  0.19882632050E+03  0.31104739411E+03  0.00000000000E+00 0. -1.
        -12    1    3    3    0    0  0.20990147826E+03  0.66052891734E+02  0.98013732716E+02  0.24089065338E+03  0.00000000000E+00 0.  1.
         15    1    5    5    0    0 -0.42730146951E+03 -0.19296746330E+03  0.22154524036E+03  0.51856382345E+03  0.17770000000E+01 0. -1.
        -16    1    5    5    0    0 -0.85818875117E+02 -0.55244937587E+02  0.12830811051E+02  0.10286647738E+03  0.00000000000E+00 0.  1.
          2    1    6    6  502    0  0.48538383071E+02  0.32082631080E+02  0.17396161885E+03  0.18343367925E+03  0.00000000000E+00 0. -1.
         -1    1    6    6    0  502  0.38567841875E+02  0.47539558629E+02  0.40344800714E+02  0.73315694133E+02  0.00000000000E+00 0.  1.
<mgrwt>
<rscale>  0 0.57478615E+03</rscale>
<asrwt>0</asrwt>
<pdfrwt beam="1">  1        3 0.16735694E+00 0.57478615E+03</pdfrwt>
<pdfrwt beam="2">  1       -4 0.52661170E-01 0.57478615E+03</pdfrwt>
<totfact> 0.19073716E+00</totfact>
</mgrwt>
</event>
<event>
12    3  0.1182097E-007  0.7625563E+03  0.7818608E-02  0.9615855E-01
         -2   -1    0    0    0  501 -0.00000000000E+00  0.00000000000E+00  0.32478684057E+03  0.32478684057E+03  0.00000000000E+00 0.  1.
          1   -1    0    0  501    0  0.00000000000E+00 -0.00000000000E+00 -0.25972853992E+04  0.25972853992E+04  0.00000000000E+00 0. -1.
        -24    2    1    2    0    0  0.71231621954E+03 -0.23011050070E+03 -0.15434250969E+04  0.17169946304E+04  0.74594182206E+02 0.  0.
    5000000    2    1    2    0    0 -0.71231621954E+03  0.23011050070E+03 -0.72907346172E+03  0.12050776093E+04  0.60026551856E+03 0.  0.
        -24    2    4    4    0    0 -0.56943510045E+03  0.13053720612E+03 -0.16924238464E+03  0.61344106029E+03  0.79816376053E+02 0.  0.
         24    2    4    4    0    0 -0.14288111909E+03  0.99573294579E+02 -0.55983107708E+03  0.59163654904E+03  0.79329163011E+02 0.  0.
         13    1    3    3    0    0  0.21966019736E+03 -0.83523013327E+02 -0.56093613253E+03  0.60817435069E+03  0.00000000000E+00 0. -1.
        -14    1    3    3    0    0  0.49265602218E+03 -0.14658748737E+03 -0.98248896436E+03  0.11088202797E+04  0.00000000000E+00 0.  1.
         15    1    5    5    0    0 -0.20802096148E+03  0.32860580002E+02 -0.24393181964E+02  0.21201585599E+03  0.17770000000E+01 0. -1.
        -16    1    5    5    0    0 -0.36141413897E+03  0.97676626117E+02 -0.14484920268E+03  0.40142520431E+03  0.00000000000E+00 0.  1.
          2    1    6    6  502    0 -0.58835208385E+01  0.42173767560E+02 -0.13779955621E+03  0.14422884656E+03  0.00000000000E+00 0. -1.
         -1    1    6    6    0  502 -0.13699759825E+03  0.57399527019E+02 -0.42203152087E+03  0.44740770248E+03  0.00000000000E+00 0.  1.
<mgrwt>
<rscale>  0 0.76255628E+03</rscale>
<asrwt>0</asrwt>
<pdfrwt beam="1">  1        1 0.39958237E+00 0.76255628E+03</pdfrwt>
<pdfrwt beam="2">  1       -2 0.49967206E-01 0.76255628E+03</pdfrwt>
<totfact> 0.40683521E+00</totfact>
</mgrwt>
</event>
<event>
12    3  0.1182097E-007  0.1761257E+04  0.7818608E-02  0.8727178E-01
         -2   -1    0    0    0  501 -0.00000000000E+00  0.00000000000E+00  0.17683211753E+04  0.17683211753E+04  0.00000000000E+00 0.  1.
          1   -1    0    0  501    0  0.00000000000E+00 -0.00000000000E+00 -0.18051373481E+04  0.18051373481E+04  0.00000000000E+00 0. -1.
        -24    2    1    2    0    0 -0.12168630211E+04 -0.12366487531E+04  0.17741793899E+02  0.17368424362E+04  0.79064063817E+02 0.  0.
    5000000    2    1    2    0    0  0.12168630211E+04  0.12366487531E+04 -0.54557966657E+02  0.18366160872E+04  0.60010526512E+03 0.  0.
        -24    2    4    4    0    0  0.74815476632E+02 -0.15947544356E+02 -0.93922970949E+02  0.13925798605E+03  0.68699217542E+02 0.  0.
         24    2    4    4    0    0  0.11420475445E+04  0.12525962975E+04  0.39365004292E+02  0.16973581011E+04  0.78770817069E+02 0.  0.
         11    1    3    3    0    0 -0.31530375566E+03 -0.33008046231E+03 -0.29484160315E+02  0.45742637183E+03  0.00000000000E+00 0. -1.
        -12    1    3    3    0    0 -0.90155926547E+03 -0.90656829081E+03  0.47225954214E+02  0.12794160644E+04  0.00000000000E+00 0.  1.
         15    1    5    5    0    0  0.53026218587E+02  0.12919057072E+02 -0.86566539880E+02  0.10235040522E+03  0.17770000000E+01 0. -1.
        -16    1    5    5    0    0  0.21789258045E+02 -0.28866601428E+02 -0.73564310685E+01  0.36907580823E+02  0.00000000000E+00 0.  1.
          4    1    6    6  502    0  0.93642731814E+03  0.10680225791E+04  0.23813107786E+02  0.14206109304E+04  0.00000000000E+00 0. -1.
         -3    1    6    6    0  502  0.20562022636E+03  0.18457371841E+03  0.15551896506E+02  0.27674717072E+03  0.00000000000E+00 0.  1.
<mgrwt>
<rscale>  0 0.17612569E+04</rscale>
<asrwt>0</asrwt>
<pdfrwt beam="1">  1        1 0.27771344E+00 0.17612569E+04</pdfrwt>
<pdfrwt beam="2">  1       -2 0.27204941E+00 0.17612569E+04</pdfrwt>
<totfact> 0.15267645E-01</totfact>
</mgrwt>
</event>
<event>
12    3  0.1182097E-007  0.6439277E+03  0.7818608E-02  0.9818241E-01
         -2   -1    0    0    0  501 -0.00000000000E+00  0.00000000000E+00  0.22457616011E+03  0.22457616011E+03  0.00000000000E+00 0.  1.
          1   -1    0    0  501    0  0.00000000000E+00 -0.00000000000E+00 -0.19338336228E+04  0.19338336228E+04  0.00000000000E+00 0. -1.
        -24    2    1    2    0    0  0.43394462644E+03 -0.25796347211E+03 -0.48511854354E+03  0.70465255692E+03  0.79637509589E+02 0.  0.
    5000000    2    1    2    0    0 -0.43394462644E+03  0.25796347211E+03 -0.12241389191E+04  0.14537572260E+04  0.60003407153E+03 0.  0.
        -24    2    4    4    0    0  0.47213062429E+02 -0.13389850964E+03 -0.18642718579E+03  0.24206241283E+03  0.60673156791E+02 0.  0.
         24    2    4    4    0    0 -0.48115768887E+03  0.39186198175E+03 -0.10377117333E+04  0.12116948131E+04  0.79310430622E+02 0.  0.
         13    1    3    3    0    0  0.32369616310E+03 -0.23069582467E+03 -0.37544641998E+03  0.54677214981E+03  0.00000000000E+00 0. -1.
        -14    1    3    3    0    0  0.11024846334E+03 -0.27267647434E+02 -0.10967212356E+03  0.15788040711E+03  0.00000000000E+00 0.  1.
         15    1    5    5    0    0  0.26598373050E+02 -0.11844430038E+02 -0.49688456034E+02  0.57618264152E+02  0.17770000000E+01 0. -1.
        -16    1    5    5    0    0  0.20614689379E+02 -0.12205407960E+03 -0.13673872975E+03  0.18444414868E+03  0.00000000000E+00 0.  1.
          2    1    6    6  502    0 -0.38672086473E+03  0.34575760308E+03 -0.82704318449E+03  0.97626931546E+03  0.00000000000E+00 0. -1.
         -1    1    6    6    0  502 -0.94436824141E+02  0.46104378663E+02 -0.21066854884E+03  0.23542549768E+03  0.00000000000E+00 0.  1.
<mgrwt>
<rscale>  0 0.64392774E+03</rscale>
<asrwt>0</asrwt>
<pdfrwt beam="1">  1        1 0.29751287E+00 0.64392774E+03</pdfrwt>
<pdfrwt beam="2">  1       -2 0.34550178E-01 0.64392774E+03</pdfrwt>
<totfact> 0.23953854E+01</totfact>
</mgrwt>
</event>
<event>
12    3  0.1182097E-007  0.5094564E+03  0.7818608E-02  0.1011340E+00
         -2   -1    0    0    0  501 -0.00000000000E+00  0.00000000000E+00  0.22943957106E+03  0.22943957106E+03  0.00000000000E+00 0.  1.
          1   -1    0    0  501    0  0.00000000000E+00 -0.00000000000E+00 -0.14087844947E+04  0.14087844947E+04  0.00000000000E+00 0. -1.
        -24    2    1    2    0    0  0.35660155709E+03  0.12561485791E+03 -0.21561829304E+03  0.44169266863E+03  0.75215704374E+02 0.  0.
    5000000    2    1    2    0    0 -0.35660155709E+03 -0.12561485791E+03 -0.96372663059E+03  0.11965313971E+04  0.59997883525E+03 0.  0.
        -24    2    4    4    0    0  0.12845740169E+03 -0.38220605717E+02 -0.46776477727E+03  0.49289535026E+03  0.78611835605E+02 0.  0.
         24    2    4    4    0    0 -0.48505895878E+03 -0.87394252193E+02 -0.49596185332E+03  0.70363604686E+03  0.78775489138E+02 0.  0.
         13    1    3    3    0    0  0.46206431935E+02  0.42662856787E+02 -0.22289737625E+02  0.66723205145E+02  0.00000000000E+00 0. -1.
        -14    1    3    3    0    0  0.31039512515E+03  0.82952001123E+02 -0.19332855541E+03  0.37496946349E+03  0.00000000000E+00 0.  1.
         15    1    5    5    0    0  0.64588967818E+02 -0.39097261890E+02 -0.35816822610E+03  0.36604366757E+03  0.17770000000E+01 0. -1.
        -16    1    5    5    0    0  0.63868433876E+02  0.87665617348E+00 -0.10959655117E+03  0.12685168269E+03  0.00000000000E+00 0.  1.
          4    1    6    6  502    0 -0.33198766589E+03 -0.82992994293E+02 -0.30117593796E+03  0.45586247160E+03  0.00000000000E+00 0. -1.
         -3    1    6    6    0  502 -0.15307129289E+03 -0.44012579004E+01 -0.19478591536E+03  0.24777357527E+03  0.00000000000E+00 0.  1.
<mgrwt>
<rscale>  0 0.50945643E+03</rscale>
<asrwt>0</asrwt>
<pdfrwt beam="1">  1        1 0.21673608E+00 0.50945643E+03</pdfrwt>
<pdfrwt beam="2">  1       -2 0.35298395E-01 0.50945643E+03</pdfrwt>
<totfact> 0.52842186E+01</totfact>
</mgrwt>
</event>
<event>
12    3  0.1182097E-007  0.7994290E+03  0.7818608E-02  0.9560844E-01
          1   -1    0    0  501    0  0.00000000000E+00  0.00000000000E+00  0.78403059332E+03  0.78403059332E+03  0.00000000000E+00 0. -1.
         -2   -1    0    0    0  501 -0.00000000000E+00 -0.00000000000E+00 -0.92865573714E+03  0.92865573714E+03  0.00000000000E+00 0.  1.
        -24    2    1    2    0    0  0.25760045177E+03  0.69641674717E+03  0.51457860344E+00  0.74700855170E+03  0.81653126298E+02 0.  0.
    5000000    2    1    2    0    0 -0.25760045177E+03 -0.69641674717E+03 -0.14513972243E+03  0.96567777876E+03  0.60009478824E+03 0.  0.
        -24    2    4    4    0    0 -0.11099025352E+02 -0.56022605085E+03  0.11114421741E+03  0.57702167340E+03  0.81391388357E+02 0.  0.
         24    2    4    4    0    0 -0.24650142641E+03 -0.13619069632E+03 -0.25628393985E+03  0.38865610536E+03  0.77854039203E+02 0.  0.
         13    1    3    3    0    0  0.13075270639E+03  0.41758860956E+03  0.33777942166E+02  0.43888206439E+03  0.00000000000E+00 0. -1.
        -14    1    3    3    0    0  0.12684774537E+03  0.27882813761E+03 -0.33263363562E+02  0.30812648731E+03  0.00000000000E+00 0.  1.
         15    1    5    5    0    0  0.17691663970E+02 -0.36529858298E+03  0.41701440561E+02  0.36810082529E+03  0.17770000000E+01 0. -1.
        -16    1    5    5    0    0 -0.28790689322E+02 -0.19492746787E+03  0.69442776853E+02  0.20892084811E+03  0.00000000000E+00 0.  1.
          4    1    6    6  502    0 -0.17352043362E+03 -0.52828793800E+02 -0.16034051121E+03  0.24209358082E+03  0.00000000000E+00 0. -1.
         -3    1    6    6    0  502 -0.72980992795E+02 -0.83361902522E+02 -0.95943428639E+02  0.14656252454E+03  0.00000000000E+00 0.  1.
<mgrwt>
<rscale>  0 0.79942902E+03</rscale>
<asrwt>0</asrwt>
<pdfrwt beam="1">  1        1 0.12062009E+00 0.79942902E+03</pdfrwt>
<pdfrwt beam="2">  1       -2 0.14287011E+00 0.79942902E+03</pdfrwt>
<totfact> 0.69285471E+00</totfact>
</mgrwt>
</event>
<event>
12    3  0.1182097E-007  0.1526355E+04  0.7818608E-02  0.8867114E-01
         -2   -1    0    0    0  501 -0.00000000000E+00  0.00000000000E+00  0.19518372467E+04  0.19518372467E+04  0.00000000000E+00 0.  1.
          1   -1    0    0  501    0  0.00000000000E+00 -0.00000000000E+00 -0.12606907148E+04  0.12606907148E+04  0.00000000000E+00 0. -1.
        -24    2    1    2    0    0 -0.10619577504E+04 -0.10202915035E+04  0.67560398805E+03  0.16222586795E+04  0.80829814985E+02 0.  0.
    5000000    2    1    2    0    0  0.10619577504E+04  0.10202915035E+04  0.15542543928E+02  0.15902692820E+04  0.59997150173E+03 0.  0.
        -24    2    4    4    0    0  0.39986132002E+03  0.47389073433E+02  0.46942963932E+01  0.41081014977E+03  0.81290486530E+02 0.  0.
         24    2    4    4    0    0  0.66209643038E+03  0.97290243002E+03  0.10848247534E+02  0.11794591322E+04  0.78072649747E+02 0.  0.
         11    1    3    3    0    0 -0.67197547033E+03 -0.64139982912E+03  0.38311849469E+03  0.10048505135E+04  0.00000000000E+00 0. -1.
        -12    1    3    3    0    0 -0.38998228008E+03 -0.37889167434E+03  0.29248549336E+03  0.61740816603E+03  0.00000000000E+00 0.  1.
         15    1    5    5    0    0  0.35364556283E+03  0.37863385136E+02 -0.22438615431E+02  0.35637826707E+03  0.17770000000E+01 0. -1.
        -16    1    5    5    0    0  0.46215757191E+02  0.95256882972E+01  0.27132911824E+02  0.54431882701E+02  0.00000000000E+00 0.  1.
          4    1    6    6  502    0  0.13383761662E+03  0.17674763904E+03  0.30484140479E+02  0.22378900409E+03  0.00000000000E+00 0. -1.
         -3    1    6    6    0  502  0.52825881377E+03  0.79615479097E+03 -0.19635892944E+02  0.95567012813E+03  0.00000000000E+00 0.  1.
<mgrwt>
<rscale>  0 0.15263553E+04</rscale>
<asrwt>0</asrwt>
<pdfrwt beam="1">  1        1 0.19395242E+00 0.15263553E+04</pdfrwt>
<pdfrwt beam="2">  1       -2 0.30028265E+00 0.15263553E+04</pdfrwt>
<totfact> 0.25254341E-01</totfact>
</mgrwt>
</event>
<event>
12    3  0.1182097E-007  0.1063220E+04  0.7818608E-02  0.9241801E-01
         -2   -1    0    0    0  501 -0.00000000000E+00  0.00000000000E+00  0.11132082794E+04  0.11132082794E+04  0.00000000000E+00 0.  1.
          1   -1    0    0  501    0  0.00000000000E+00 -0.00000000000E+00 -0.13373661700E+04  0.13373661700E+04  0.00000000000E+00 0. -1.
        -24    2    1    2    0    0  0.93783843503E+02 -0.10062254814E+04 -0.64566795190E+03  0.12018922974E+04  0.79830206641E+02 0.  0.
    5000000    2    1    2    0    0 -0.93783843503E+02  0.10062254814E+04  0.42151006123E+03  0.12486821520E+04  0.60020934370E+03 0.  0.
        -24    2    4    4    0    0  0.14641663395E+03  0.71114949058E+03  0.90774965474E+02  0.73613963878E+03  0.80560814074E+02 0.  0.
         24    2    4    4    0    0 -0.24020047745E+03  0.29507599077E+03  0.33073509576E+03  0.51254251318E+03  0.92455473350E+02 0.  0.
         11    1    3    3    0    0  0.49538176306E+02 -0.24592175622E+03 -0.13428444843E+03  0.28454148061E+03  0.00000000000E+00 0. -1.
        -12    1    3    3    0    0  0.44245667197E+02 -0.76030372513E+03 -0.51138350347E+03  0.91735081683E+03  0.00000000000E+00 0.  1.
         15    1    5    5    0    0  0.15257692551E+03  0.60884439723E+03  0.70001625829E+02  0.63156520138E+03  0.17770000000E+01 0. -1.
        -16    1    5    5    0    0 -0.61602915589E+01  0.10230509335E+03  0.20773339644E+02  0.10457443740E+03  0.00000000000E+00 0.  1.
          2    1    6    6  502    0 -0.10237255287E+03  0.87583493992E+02  0.69556701256E+02  0.15162170917E+03  0.00000000000E+00 0. -1.
         -1    1    6    6    0  502 -0.13782792458E+03  0.20749249678E+03  0.26117839450E+03  0.36092080401E+03  0.00000000000E+00 0.  1.
<mgrwt>
<rscale>  0 0.10632196E+04</rscale>
<asrwt>0</asrwt>
<pdfrwt beam="1">  1        1 0.20574864E+00 0.10632196E+04</pdfrwt>
<pdfrwt beam="2">  1       -2 0.17126281E+00 0.10632196E+04</pdfrwt>
<totfact> 0.15412154E+00</totfact>
</mgrwt>
</event>
<event>
12    3  0.1182097E-007  0.2822685E+03  0.7818608E-02  0.1094456E+00
          1   -1    0    0  501    0  0.00000000000E+00  0.00000000000E+00  0.10295684737E+04  0.10295684737E+04  0.00000000000E+00 0. -1.
         -2   -1    0    0    0  501 -0.00000000000E+00 -0.00000000000E+00 -0.15117035490E+03  0.15117035490E+03  0.00000000000E+00 0.  1.
        -24    2    1    2    0    0  0.14615749646E+03 -0.24045673584E+02  0.14166358510E+03  0.21915505668E+03  0.77589685754E+02 0.  0.
    5000000    2    1    2    0    0 -0.14615749646E+03  0.24045673584E+02  0.73673453373E+03  0.96158377195E+03  0.59993780436E+03 0.  0.
        -24    2    4    4    0    0 -0.15300168150E+03  0.16782512376E+03  0.34234511480E+02  0.24035895201E+03  0.70891729617E+02 0.  0.
         24    2    4    4    0    0  0.68441850452E+01 -0.14377945017E+03  0.70250002225E+03  0.72122481994E+03  0.77068712696E+02 0.  0.
         13    1    3    3    0    0  0.33156657764E+02  0.25582261499E+02  0.22244859885E+02  0.47419930923E+02  0.00000000000E+00 0. -1.
        -14    1    3    3    0    0  0.11300083869E+03 -0.49627935083E+02  0.11941872522E+03  0.17173512576E+03  0.00000000000E+00 0.  1.
         15    1    5    5    0    0 -0.30873527984E+02  0.80382366205E+02  0.25844250372E+02  0.89919867289E+02  0.17770000000E+01 0. -1.
        -16    1    5    5    0    0 -0.12212815352E+03  0.87442757551E+02  0.83902611071E+01  0.15043908472E+03  0.00000000000E+00 0.  1.
          4    1    6    6  502    0  0.37520962034E+02 -0.40674978203E+02  0.21625392028E+03  0.22322193996E+03  0.00000000000E+00 0. -1.
         -3    1    6    6    0  502 -0.30676776989E+02 -0.10310447197E+03  0.48624610197E+03  0.49800287998E+03  0.00000000000E+00 0.  1.
<mgrwt>
<rscale>  0 0.28226851E+03</rscale>
<asrwt>0</asrwt>
<pdfrwt beam="1">  1        1 0.15839515E+00 0.28226851E+03</pdfrwt>
<pdfrwt beam="2">  1       -2 0.23256978E-01 0.28226851E+03</pdfrwt>
<totfact> 0.21715144E+02</totfact>
</mgrwt>
</event>
<event>
12    3  0.1182097E-007  0.1299135E+04  0.7818608E-02  0.9030252E-01
         -2   -1    0    0    0  501 -0.00000000000E+00  0.00000000000E+00  0.10250534542E+04  0.10250534542E+04  0.00000000000E+00 0.  1.
          1   -1    0    0  501    0  0.00000000000E+00 -0.00000000000E+00 -0.19632998959E+04  0.19632998959E+04  0.00000000000E+00 0. -1.
        -24    2    1    2    0    0  0.12042290727E+04 -0.43360222778E+03 -0.91369826478E+03  0.15745525224E+04  0.78692917999E+02 0.  0.
    5000000    2    1    2    0    0 -0.12042290727E+04  0.43360222778E+03 -0.24548176943E+02  0.14138008278E+04  0.60004301199E+03 0.  0.
        -24    2    4    4    0    0 -0.26880655590E+03  0.23856841504E+03  0.21368485878E+03  0.42578321670E+03  0.80363397152E+02 0.  0.
         24    2    4    4    0    0 -0.93542251676E+03  0.19503381274E+03 -0.23823303573E+03  0.98801761107E+03  0.79814456685E+02 0.  0.
         13    1    3    3    0    0  0.90497378102E+03 -0.35637877324E+03 -0.71466062747E+03  0.12069478807E+04  0.00000000000E+00 0. -1.
        -14    1    3    3    0    0  0.29925529164E+03 -0.77223454539E+02 -0.19903763731E+03  0.36760464166E+03  0.00000000000E+00 0.  1.
         15    1    5    5    0    0 -0.24467518278E+02  0.12266840972E+02 -0.42798724447E+01  0.27759860866E+02  0.17770000000E+01 0. -1.
        -16    1    5    5    0    0 -0.24433903762E+03  0.22630157406E+03  0.21796473123E+03  0.39802335583E+03  0.00000000000E+00 0.  1.
          2    1    6    6  502    0 -0.31207060971E+03  0.81286306563E+02 -0.11585570780E+03  0.34266320799E+03  0.00000000000E+00 0. -1.
         -1    1    6    6    0  502 -0.62335190705E+03  0.11374750618E+03 -0.12237732793E+03  0.64535440308E+03  0.00000000000E+00 0.  1.
<mgrwt>
<rscale>  0 0.12991346E+04</rscale>
<asrwt>0</asrwt>
<pdfrwt beam="1">  1        1 0.30204613E+00 0.12991346E+04</pdfrwt>
<pdfrwt beam="2">  1       -2 0.15770053E+00 0.12991346E+04</pdfrwt>
<totfact> 0.70034202E-01</totfact>
</mgrwt>
</event>
<event>
12    3  0.1182097E-007  0.6927026E+03  0.7818608E-02  0.9729794E-01
          1   -1    0    0  501    0  0.00000000000E+00  0.00000000000E+00  0.38371327496E+04  0.38371327496E+04  0.00000000000E+00 0. -1.
         -4   -1    0    0    0  501 -0.00000000000E+00 -0.00000000000E+00 -0.18642291125E+03  0.18642291125E+03  0.00000000000E+00 0.  1.
        -24    2    1    2    0    0 -0.43892768540E+03  0.52857233726E+03  0.96181478781E+03  0.11841559291E+04  0.71353693351E+02 0.  0.
    5000000    2    1    2    0    0  0.43892768540E+03 -0.52857233726E+03  0.26888950506E+04  0.28393997318E+04  0.59999001273E+03 0.  0.
        -24    2    4    4    0    0  0.32795155489E+03 -0.43702638101E+03  0.99659488391E+03  0.11392178890E+04  0.77921473007E+02 0.  0.
         24    2    4    4    0    0  0.11097613051E+03 -0.91545956247E+02  0.16923001667E+04  0.17001818428E+04  0.77730823386E+02 0.  0.
         11    1    3    3    0    0 -0.83700010761E+02  0.12915299193E+03  0.25724458640E+03  0.29976818437E+03  0.00000000000E+00 0. -1.
        -12    1    3    3    0    0 -0.35522767464E+03  0.39941934533E+03  0.70457020141E+03  0.88438774470E+03  0.00000000000E+00 0.  1.
         15    1    5    5    0    0  0.23245027913E+03 -0.36177626440E+03  0.76069445945E+03  0.87382745214E+03  0.17770000000E+01 0. -1.
        -16    1    5    5    0    0  0.95501275760E+02 -0.75250116614E+02  0.23590042445E+03  0.26539043686E+03  0.00000000000E+00 0.  1.
          2    1    6    6  502    0  0.94818667989E+02 -0.86738270034E+02  0.16441795015E+04  0.16491938456E+04  0.00000000000E+00 0. -1.
         -3    1    6    6    0  502  0.16157462523E+02 -0.48076862135E+01  0.48120665145E+02  0.50987997175E+02  0.00000000000E+00 0.  1.
<mgrwt>
<rscale>  0 0.69270258E+03</rscale>
<asrwt>0</asrwt>
<pdfrwt beam="1">  1        1 0.59032806E+00 0.69270258E+03</pdfrwt>
<pdfrwt beam="2">  1       -4 0.28680451E-01 0.69270258E+03</pdfrwt>
<totfact> 0.83947202E-01</totfact>
</mgrwt>
</event>
<event>
12    3  0.1182097E-007  0.4573241E+03  0.7818608E-02  0.1025560E+00
         -2   -1    0    0    0  501 -0.00000000000E+00  0.00000000000E+00  0.13572538092E+04  0.13572538092E+04  0.00000000000E+00 0.  1.
          1   -1    0    0  501    0  0.00000000000E+00 -0.00000000000E+00 -0.95331494144E+03  0.95331494144E+03  0.00000000000E+00 0. -1.
        -24    2    1    2    0    0  0.15112979812E+03 -0.21251870106E+03 -0.85204344413E+03  0.89448146937E+03  0.78196254288E+02 0.  0.
    5000000    2    1    2    0    0 -0.15112979812E+03  0.21251870106E+03  0.12559823119E+04  0.14160872813E+04  0.59983931700E+03 0.  0.
        -24    2    4    4    0    0  0.17109857354E+03  0.25733822770E+03  0.65034946085E+03  0.72400577177E+03  0.75711630700E+02 0.  0.
         24    2    4    4    0    0 -0.32222837166E+03 -0.44819526641E+02  0.60563285105E+03  0.69208150951E+03  0.79660228886E+02 0.  0.
         13    1    3    3    0    0  0.10711260867E+03 -0.95716047988E+02 -0.38099074640E+03  0.40717148921E+03  0.00000000000E+00 0. -1.
        -14    1    3    3    0    0  0.44017189450E+02 -0.11680265307E+03 -0.47105269773E+03  0.48730998016E+03  0.00000000000E+00 0.  1.
         15    1    5    5    0    0  0.99812940709E+02  0.20001473090E+03  0.50503371680E+03  0.55229587047E+03  0.17770000000E+01 0. -1.
        -16    1    5    5    0    0  0.71285632830E+02  0.57323496801E+02  0.14531574405E+03  0.17170990129E+03  0.00000000000E+00 0.  1.
          2    1    6    6  502    0 -0.44975827799E+02  0.15221451283E+02  0.54925416575E+02  0.72603850114E+02  0.00000000000E+00 0. -1.
         -1    1    6    6    0  502 -0.27725254386E+03 -0.60040977925E+02  0.55070743448E+03  0.61947765940E+03  0.00000000000E+00 0.  1.
<mgrwt>
<rscale>  0 0.45732412E+03</rscale>
<asrwt>0</asrwt>
<pdfrwt beam="1">  1        1 0.14666384E+00 0.45732412E+03</pdfrwt>
<pdfrwt beam="2">  1       -2 0.20880828E+00 0.45732412E+03</pdfrwt>
<totfact> 0.18466359E+00</totfact>
</mgrwt>
</event>
<event>
12    3  0.1182097E-007  0.1856268E+04  0.7818608E-02  0.8676936E-01
          1   -1    0    0  501    0  0.00000000000E+00  0.00000000000E+00  0.17171016125E+04  0.17171016125E+04  0.00000000000E+00 0. -1.
         -2   -1    0    0    0  501 -0.00000000000E+00 -0.00000000000E+00 -0.23410637595E+04  0.23410637595E+04  0.00000000000E+00 0.  1.
        -24    2    1    2    0    0 -0.16578360999E+04 -0.72539737898E+03  0.45489082531E+03  0.18675863362E+04  0.79568640765E+02 0.  0.
    5000000    2    1    2    0    0  0.16578360999E+04  0.72539737898E+03 -0.10788529723E+04  0.21905790358E+04  0.60007573223E+03 0.  0.
        -24    2    4    4    0    0  0.10560008903E+04  0.75221061257E+03 -0.72621439627E+03  0.14881403250E+04  0.78839022486E+02 0.  0.
         24    2    4    4    0    0  0.60183520961E+03 -0.26813233588E+02 -0.35263857607E+03  0.70243871080E+03  0.78368412489E+02 0.  0.
         13    1    3    3    0    0 -0.10183340097E+04 -0.47246312270E+03  0.31269278425E+03  0.11653335724E+04  0.00000000000E+00 0. -1.
        -14    1    3    3    0    0 -0.63950209029E+03 -0.25293425628E+03  0.14219804106E+03  0.70225276387E+03  0.00000000000E+00 0.  1.
         15    1    5    5    0    0  0.16552487541E+03  0.14733032289E+03 -0.10436080127E+03  0.24494702079E+03  0.17770000000E+01 0. -1.
        -16    1    5    5    0    0  0.89047601493E+03  0.60488028968E+03 -0.62185359500E+03  0.12431933042E+04  0.00000000000E+00 0.  1.
          4    1    6    6  502    0  0.50388744408E+03 -0.39222182028E+02 -0.26627068614E+03  0.57126264902E+03  0.00000000000E+00 0. -1.
         -3    1    6    6    0  502  0.97947765532E+02  0.12408948440E+02 -0.86367889935E+02  0.13117606179E+03  0.00000000000E+00 0.  1.
<mgrwt>
<rscale>  0 0.18562685E+04</rscale>
<asrwt>0</asrwt>
<pdfrwt beam="1">  1        1 0.26416948E+00 0.18562685E+04</pdfrwt>
<pdfrwt beam="2">  1       -2 0.36016366E+00 0.18562685E+04</pdfrwt>
<totfact> 0.49372286E-02</totfact>
</mgrwt>
</event>
<event>
12    3  0.1182097E-007  0.4487226E+03  0.7818608E-02  0.1028104E+00
          1   -1    0    0  501    0  0.00000000000E+00  0.00000000000E+00  0.13712680528E+04  0.13712680528E+04  0.00000000000E+00 0. -1.
         -2   -1    0    0    0  501 -0.00000000000E+00 -0.00000000000E+00 -0.42518782639E+03  0.42518782639E+03  0.00000000000E+00 0.  1.
        -24    2    1    2    0    0 -0.25631133472E+03 -0.35905062339E+03  0.95123119583E+03  0.10516684074E+04  0.80949371870E+02 0.  0.
    5000000    2    1    2    0    0  0.25631133472E+03  0.35905062339E+03 -0.51509693815E+01  0.74478747180E+03  0.60005749324E+03 0.  0.
        -24    2    4    4    0    0  0.99201411236E+02  0.11587317382E+03 -0.28615995716E+03  0.33359515709E+03  0.78298757015E+02 0.  0.
         24    2    4    4    0    0  0.15710992349E+03  0.24317744957E+03  0.28100898777E+03  0.41119231471E+03  0.79336425601E+02 0.  0.
         11    1    3    3    0    0 -0.77271910659E+02 -0.60804915191E+02  0.25685461025E+03  0.27503177397E+03  0.00000000000E+00 0. -1.
        -12    1    3    3    0    0 -0.17903942406E+03 -0.29824570820E+03  0.69437658558E+03  0.77663663345E+03  0.00000000000E+00 0.  1.
         15    1    5    5    0    0  0.96064184050E+02  0.86839133482E+02 -0.16937581494E+03  0.21321511901E+03  0.17770000000E+01 0. -1.
        -16    1    5    5    0    0  0.31372271865E+01  0.29034040334E+02 -0.11678414222E+03  0.12038003807E+03  0.00000000000E+00 0.  1.
          4    1    6    6  502    0  0.21299713630E+02  0.12048110338E+02  0.24533411329E+01  0.24593772508E+02  0.00000000000E+00 0. -1.
         -3    1    6    6    0  502  0.13581020986E+03  0.23112933923E+03  0.27855564664E+03  0.38659854220E+03  0.00000000000E+00 0.  1.
<mgrwt>
<rscale>  0 0.44872264E+03</rscale>
<asrwt>0</asrwt>
<pdfrwt beam="1">  1        1 0.21096431E+00 0.44872264E+03</pdfrwt>
<pdfrwt beam="2">  1       -2 0.65413513E-01 0.44872264E+03</pdfrwt>
<totfact> 0.16414676E+01</totfact>
</mgrwt>
</event>
<event>
12    3  0.1182097E-007  0.6005602E+03  0.7818608E-02  0.9904244E-01
          1   -1    0    0  501    0  0.00000000000E+00  0.00000000000E+00  0.68851884229E+03  0.68851884229E+03  0.00000000000E+00 0. -1.
         -2   -1    0    0    0  501 -0.00000000000E+00 -0.00000000000E+00 -0.60761076948E+03  0.60761076948E+03  0.00000000000E+00 0.  1.
        -24    2    1    2    0    0  0.45614353017E+03  0.50046683730E+02 -0.17679375480E+03  0.49797721605E+03  0.78445428830E+02 0.  0.
    5000000    2    1    2    0    0 -0.45614353017E+03 -0.50046683730E+02  0.25770182761E+03  0.79815239571E+03  0.60005451765E+03 0.  0.
        -24    2    4    4    0    0 -0.56480279069E+03 -0.14230850202E+03  0.23355721254E+03  0.63299267589E+03  0.82926799558E+02 0.  0.
         24    2    4    4    0    0  0.10865926053E+03  0.92261818293E+02  0.24144615076E+02  0.16515971981E+03  0.79847934217E+02 0.  0.
         13    1    3    3    0    0  0.25550184249E+03  0.41230535032E+02 -0.60073713528E+02  0.26568778593E+03  0.00000000000E+00 0. -1.
        -14    1    3    3    0    0  0.20064168767E+03  0.88161486987E+01 -0.11672004127E+03  0.23228943012E+03  0.00000000000E+00 0.  1.
         15    1    5    5    0    0 -0.29463912931E+03 -0.41187461182E+02  0.90301217686E+02  0.31091170953E+03  0.17770000000E+01 0. -1.
        -16    1    5    5    0    0 -0.27016366139E+03 -0.10112104084E+03  0.14325599485E+03  0.32208096637E+03  0.00000000000E+00 0.  1.
          4    1    6    6  502    0  0.43620637805E+02  0.77307355858E+02 -0.11491099432E+02  0.89505489655E+02  0.00000000000E+00 0. -1.
         -3    1    6    6    0  502  0.65038622722E+02  0.14954462435E+02  0.35635714508E+02  0.75654230158E+02  0.00000000000E+00 0.  1.
<mgrwt>
<rscale>  0 0.60056020E+03</rscale>
<asrwt>0</asrwt>
<pdfrwt beam="1">  1        1 0.10592598E+00 0.60056020E+03</pdfrwt>
<pdfrwt beam="2">  1       -2 0.93478579E-01 0.60056020E+03</pdfrwt>
<totfact> 0.24508694E+01</totfact>
</mgrwt>
</event>
<event>
12    3  0.1182097E-007  0.1153518E+04  0.7818608E-02  0.9154544E-01
          1   -1    0    0  501    0  0.00000000000E+00  0.00000000000E+00  0.13277659554E+04  0.13277659554E+04  0.00000000000E+00 0. -1.
         -2   -1    0    0    0  501 -0.00000000000E+00 -0.00000000000E+00 -0.18491603480E+04  0.18491603480E+04  0.00000000000E+00 0.  1.
        -24    2    1    2    0    0 -0.49309027285E+03  0.99470823593E+03  0.78383039578E+03  0.13613718593E+04  0.79754361813E+02 0.  0.
    5000000    2    1    2    0    0  0.49309027285E+03 -0.99470823593E+03 -0.13052247883E+04  0.18155544440E+04  0.60003641493E+03 0.  0.
        -24    2    4    4    0    0  0.48736659733E+03 -0.49925198893E+03 -0.10210709482E+04  0.12389781628E+04  0.75513295889E+02 0.  0.
         24    2    4    4    0    0  0.57236755145E+01 -0.49545624700E+03 -0.28415384012E+03  0.57657628124E+03  0.78658439354E+02 0.  0.
         11    1    3    3    0    0 -0.12561460385E+03  0.33588839448E+03  0.24428345039E+03  0.43390603405E+03  0.00000000000E+00 0. -1.
        -12    1    3    3    0    0 -0.36747566900E+03  0.65881984145E+03  0.53954694540E+03  0.92746582529E+03  0.00000000000E+00 0.  1.
         15    1    5    5    0    0  0.25825601403E+03 -0.28793862950E+03 -0.62455708324E+03  0.73462883901E+03  0.17770000000E+01 0. -1.
        -16    1    5    5    0    0  0.22911058330E+03 -0.21131335943E+03 -0.39651386499E+03  0.50434932376E+03  0.00000000000E+00 0.  1.
          2    1    6    6  502    0 -0.25682303597E+01 -0.84079965968E+02 -0.84511533930E+02  0.11924024426E+03  0.00000000000E+00 0. -1.
         -1    1    6    6    0  502  0.82919058742E+01 -0.41137628103E+03 -0.19964230619E+03  0.45733603698E+03  0.00000000000E+00 0.  1.
<mgrwt>
<rscale>  0 0.11535178E+04</rscale>
<asrwt>0</asrwt>
<pdfrwt beam="1">  1        1 0.20427169E+00 0.11535178E+04</pdfrwt>
<pdfrwt beam="2">  1       -2 0.28448621E+00 0.11535178E+04</pdfrwt>
<totfact> 0.29501873E-01</totfact>
</mgrwt>
</event>
<event>
12    3  0.1182097E-007  0.6678145E+03  0.7818608E-02  0.9773914E-01
         -2   -1    0    0    0  501 -0.00000000000E+00  0.00000000000E+00  0.24391537617E+03  0.24391537617E+03  0.00000000000E+00 0.  1.
          1   -1    0    0  501    0  0.00000000000E+00 -0.00000000000E+00 -0.21297185903E+04  0.21297185903E+04  0.00000000000E+00 0. -1.
        -24    2    1    2    0    0  0.33976351056E+03  0.41803946882E+03 -0.37493012308E+03  0.66105903942E+03  0.78931716157E+02 0.  0.
    5000000    2    1    2    0    0 -0.33976351056E+03 -0.41803946882E+03 -0.15108730910E+04  0.17125749270E+04  0.59998261882E+03 0.  0.
        -24    2    4    4    0    0 -0.16462201745E+02 -0.45831826406E+03 -0.97104819484E+03  0.10769148918E+04  0.80526096468E+02 0.  0.
         24    2    4    4    0    0 -0.32330130882E+03  0.40278795247E+02 -0.53982489620E+03  0.63566003524E+03  0.80663772633E+02 0.  0.
         13    1    3    3    0    0  0.33580543635E+03  0.38696951119E+03 -0.34462175813E+03  0.61747457425E+03  0.00000000000E+00 0. -1.
        -14    1    3    3    0    0  0.39580742109E+01  0.31069957624E+02 -0.30308364949E+02  0.43584465170E+02  0.00000000000E+00 0.  1.
         15    1    5    5    0    0 -0.49956241090E+01 -0.14304206919E+03 -0.22208045274E+03  0.26421369199E+03  0.17770000000E+01 0. -1.
        -16    1    5    5    0    0 -0.11466577635E+02 -0.31527619487E+03 -0.74896774211E+03  0.81270119981E+03  0.00000000000E+00 0.  1.
          4    1    6    6  502    0 -0.16389781166E+03  0.55874784709E+02 -0.24307093491E+03  0.29844256337E+03  0.00000000000E+00 0. -1.
         -3    1    6    6    0  502 -0.15940349716E+03 -0.15595989462E+02 -0.29675396129E+03  0.33721747187E+03  0.00000000000E+00 0.  1.
<mgrwt>
<rscale>  0 0.66781445E+03</rscale>
<asrwt>0</asrwt>
<pdfrwt beam="1">  1        1 0.32764901E+00 0.66781445E+03</pdfrwt>
<pdfrwt beam="2">  1       -2 0.37525443E-01 0.66781445E+03</pdfrwt>
<totfact> 0.15090442E+01</totfact>
</mgrwt>
</event>
<event>
12    3  0.1182097E-007  0.7005377E+03  0.7818608E-02  0.9716313E-01
         -2   -1    0    0    0  501 -0.00000000000E+00  0.00000000000E+00  0.20906399842E+03  0.20906399842E+03  0.00000000000E+00 0.  1.
          1   -1    0    0  501    0  0.00000000000E+00 -0.00000000000E+00 -0.24611602898E+04  0.24611602898E+04  0.00000000000E+00 0. -1.
        -24    2    1    2    0    0 -0.57201234588E+03 -0.23189386573E+01 -0.67297426102E+03  0.88673120529E+03  0.78704339868E+02 0.  0.
    5000000    2    1    2    0    0  0.57201234588E+03  0.23189386573E+01 -0.15791220303E+04  0.17834930829E+04  0.60001474048E+03 0.  0.
        -24    2    4    4    0    0  0.17723380414E+03  0.27606600007E+03 -0.55965216809E+03  0.65368312021E+03  0.80416507478E+02 0.  0.
         24    2    4    4    0    0  0.39477854174E+03 -0.27374706141E+03 -0.10194698623E+04  0.11298099627E+04  0.79775943469E+02 0.  0.
         13    1    3    3    0    0 -0.22489328927E+03  0.35386940788E+02 -0.24624963965E+03  0.33536265768E+03  0.00000000000E+00 0. -1.
        -14    1    3    3    0    0 -0.34711905661E+03 -0.37705879445E+02 -0.42672462137E+03  0.55136854761E+03  0.00000000000E+00 0.  1.
         15    1    5    5    0    0 -0.40466302702E+01  0.37726220543E+02 -0.72756043078E+02  0.82074615238E+02  0.17770000000E+01 0. -1.
        -16    1    5    5    0    0  0.18128043441E+03  0.23833977952E+03 -0.48689612502E+03  0.57160850497E+03  0.00000000000E+00 0.  1.
          4    1    6    6  502    0  0.28758161717E+03 -0.23961249741E+03 -0.77151610250E+03  0.85752809392E+03  0.00000000000E+00 0. -1.
         -3    1    6    6    0  502  0.10719692457E+03 -0.34134563997E+02 -0.24795375975E+03  0.27228186879E+03  0.00000000000E+00 0.  1.
<mgrwt>
<rscale>  0 0.70053767E+03</rscale>
<asrwt>0</asrwt>
<pdfrwt beam="1">  1        1 0.37864004E+00 0.70053767E+03</pdfrwt>
<pdfrwt beam="2">  1       -2 0.32163693E-01 0.70053767E+03</pdfrwt>
<totfact> 0.12036393E+01</totfact>
</mgrwt>
</event>
<event>
12    3  0.1182097E-007  0.1181583E+04  0.7818608E-02  0.9129132E-01
          1   -1    0    0  501    0  0.00000000000E+00  0.00000000000E+00  0.13588802917E+04  0.13588802917E+04  0.00000000000E+00 0. -1.
         -2   -1    0    0    0  501 -0.00000000000E+00 -0.00000000000E+00 -0.11721022297E+04  0.11721022297E+04  0.00000000000E+00 0.  1.
        -24    2    1    2    0    0  0.10356171400E+04  0.46602527882E+03 -0.26583061085E+03  0.11691687962E+04  0.81285540538E+02 0.  0.
    5000000    2    1    2    0    0 -0.10356171400E+04 -0.46602527882E+03  0.45260867278E+03  0.13618137252E+04  0.59999965846E+03 0.  0.
        -24    2    4    4    0    0 -0.10560336961E+04 -0.42957437737E+03  0.51253296089E+03  0.12524343290E+04  0.78488210944E+02 0.  0.
         24    2    4    4    0    0  0.20416556100E+02 -0.36450901449E+02 -0.59924288112E+02  0.10937939622E+03  0.81409016901E+02 0.  0.
         13    1    3    3    0    0  0.87747199502E+03  0.36361518957E+03 -0.21162360080E+03  0.97311749371E+03  0.00000000000E+00 0. -1.
        -14    1    3    3    0    0  0.15814514502E+03  0.10241008925E+03 -0.54207010048E+02  0.19605130250E+03  0.00000000000E+00 0.  1.
         15    1    5    5    0    0 -0.94980268593E+03 -0.38987518468E+03  0.43500745313E+03  0.11150616323E+04  0.17770000000E+01 0. -1.
        -16    1    5    5    0    0 -0.10623101022E+03 -0.39699192690E+02  0.77525507759E+02  0.13737269665E+03  0.00000000000E+00 0.  1.
          4    1    6    6  502    0 -0.87927538366E+01  0.19670397633E+02 -0.35568821107E+02  0.41585792021E+02  0.00000000000E+00 0. -1.
         -3    1    6    6    0  502  0.29209309937E+02 -0.56121299082E+02 -0.24355467005E+02  0.67793604201E+02  0.00000000000E+00 0.  1.
<mgrwt>
<rscale>  0 0.11815827E+04</rscale>
<asrwt>0</asrwt>
<pdfrwt beam="1">  1        1 0.20905851E+00 0.11815827E+04</pdfrwt>
<pdfrwt beam="2">  1       -2 0.18032342E+00 0.11815827E+04</pdfrwt>
<totfact> 0.12685599E+00</totfact>
</mgrwt>
</event>
<event>
12    3  0.1182097E-007  0.9290362E+03  0.7818608E-02  0.9389995E-01
          1   -1    0    0  501    0  0.00000000000E+00  0.00000000000E+00  0.29989036479E+04  0.29989036479E+04  0.00000000000E+00 0. -1.
         -2   -1    0    0    0  501 -0.00000000000E+00 -0.00000000000E+00 -0.41148533974E+03  0.41148533974E+03  0.00000000000E+00 0.  1.
        -24    2    1    2    0    0  0.83907854714E+03 -0.70470240234E+02  0.21071407374E+04  0.22703725097E+04  0.74366540546E+02 0.  0.
    5000000    2    1    2    0    0 -0.83907854714E+03  0.70470240234E+02  0.48027757076E+03  0.11400164780E+04  0.59996013372E+03 0.  0.
        -24    2    4    4    0    0 -0.36021322839E+03  0.31184546845E+03  0.15165357427E+03  0.50635158476E+03  0.79949701103E+02 0.  0.
         24    2    4    4    0    0 -0.47886531876E+03 -0.24137522822E+03  0.32862399649E+03  0.63366489321E+03  0.77223516609E+02 0.  0.
         13    1    3    3    0    0  0.35362774828E+03 -0.38884818222E+02  0.79568464065E+03  0.87159546856E+03  0.00000000000E+00 0. -1.
        -14    1    3    3    0    0  0.48545079886E+03 -0.31585422012E+02  0.13114560968E+04  0.13987770411E+04  0.00000000000E+00 0.  1.
         15    1    5    5    0    0 -0.21111052321E+03  0.19626286156E+03  0.51699818630E+02  0.29285285181E+03  0.17770000000E+01 0. -1.
        -16    1    5    5    0    0 -0.14910270518E+03  0.11558260689E+03  0.99953755640E+02  0.21349873295E+03  0.00000000000E+00 0.  1.
          4    1    6    6  502    0 -0.18936207508E+03 -0.12505821733E+03  0.10652028358E+03  0.25068730326E+03  0.00000000000E+00 0. -1.
         -3    1    6    6    0  502 -0.28950324368E+03 -0.11631701089E+03  0.22210371291E+03  0.38297758996E+03  0.00000000000E+00 0.  1.
<mgrwt>
<rscale>  0 0.92903625E+03</rscale>
<asrwt>0</asrwt>
<pdfrwt beam="1">  1        1 0.46136978E+00 0.92903625E+03</pdfrwt>
<pdfrwt beam="2">  1       -2 0.63305439E-01 0.92903625E+03</pdfrwt>
<totfact> 0.12596152E+00</totfact>
</mgrwt>
</event>
<event>
12    3  0.1182097E-007  0.9526560E+03  0.7818608E-02  0.9362051E-01
         -2   -1    0    0    0  501 -0.00000000000E+00  0.00000000000E+00  0.11313337197E+04  0.11313337197E+04  0.00000000000E+00 0.  1.
          1   -1    0    0  501    0  0.00000000000E+00 -0.00000000000E+00 -0.12324667921E+04  0.12324667921E+04  0.00000000000E+00 0. -1.
        -24    2    1    2    0    0 -0.17947554067E+03 -0.86026143767E+03  0.62000803493E+03  0.10783974162E+04  0.79182150622E+02 0.  0.
    5000000    2    1    2    0    0  0.17947554067E+03  0.86026143767E+03 -0.72114110724E+03  0.12854030956E+04  0.59996284125E+03 0.  0.
        -24    2    4    4    0    0 -0.95305839809E+02  0.67182766883E+03 -0.31073634524E+03  0.75063098104E+03  0.80337872279E+02 0.  0.
         24    2    4    4    0    0  0.27478138048E+03  0.18843376883E+03 -0.41040476200E+03  0.53477211460E+03  0.80852047532E+02 0.  0.
         13    1    3    3    0    0 -0.14215283066E+03 -0.59276273209E+03  0.39012039274E+03  0.72371887128E+03  0.00000000000E+00 0. -1.
        -14    1    3    3    0    0 -0.37322710014E+02 -0.26749870558E+03  0.22988764219E+03  0.35467854488E+03  0.00000000000E+00 0.  1.
         15    1    5    5    0    0  0.12421754457E+02  0.14209259309E+03 -0.69257192400E+02  0.15856961066E+03  0.17770000000E+01 0. -1.
        -16    1    5    5    0    0 -0.10772759427E+03  0.52973507574E+03 -0.24147915284E+03  0.59206137038E+03  0.00000000000E+00 0.  1.
          2    1    6    6  502    0  0.68205960976E+02  0.91810613329E+02 -0.12468448460E+03  0.16919652045E+03  0.00000000000E+00 0. -1.
         -1    1    6    6    0  502  0.20657541951E+03  0.96623155504E+02 -0.28572027740E+03  0.36557559416E+03  0.00000000000E+00 0.  1.
<mgrwt>
<rscale>  0 0.95265600E+03</rscale>
<asrwt>0</asrwt>
<pdfrwt beam="1">  1        1 0.18961028E+00 0.95265600E+03</pdfrwt>
<pdfrwt beam="2">  1       -2 0.17405134E+00 0.95265600E+03</pdfrwt>
<totfact> 0.17748504E+00</totfact>
</mgrwt>
</event>
<event>
12    3  0.1182097E-007  0.8833380E+03  0.7818608E-02  0.9446653E-01
         -2   -1    0    0    0  501 -0.00000000000E+00  0.00000000000E+00  0.43605913579E+04  0.43605913579E+04  0.00000000000E+00 0.  1.
          1   -1    0    0  501    0  0.00000000000E+00 -0.00000000000E+00 -0.20831301567E+03  0.20831301567E+03  0.00000000000E+00 0. -1.
        -24    2    1    2    0    0  0.76932027183E+03 -0.37135211084E+03  0.20281399207E+04  0.22021115905E+04  0.78662875877E+02 0.  0.
    5000000    2    1    2    0    0 -0.76932027183E+03  0.37135211084E+03  0.21241384215E+04  0.23667927831E+04  0.59998997780E+03 0.  0.
        -24    2    4    4    0    0 -0.70282383082E+03  0.41080860654E+03  0.21098063752E+04  0.22628648266E+04  0.80927340369E+02 0.  0.
         24    2    4    4    0    0 -0.66496441010E+02 -0.39456495701E+02  0.14332046383E+02  0.10392795652E+03  0.67948663504E+02 0.  0.
         11    1    3    3    0    0  0.52351797818E+03 -0.26196231039E+03  0.14779043711E+04  0.15896215448E+04  0.00000000000E+00 0. -1.
        -12    1    3    3    0    0  0.24580229365E+03 -0.10938980045E+03  0.55023554961E+03  0.61249004569E+03  0.00000000000E+00 0.  1.
         15    1    5    5    0    0 -0.64327971720E+03  0.39998936000E+03  0.19615559589E+04  0.21027375538E+04  0.17770000000E+01 0. -1.
        -16    1    5    5    0    0 -0.59544113613E+02  0.10819246539E+02  0.14825041626E+03  0.16012727276E+03  0.00000000000E+00 0.  1.
          4    1    6    6  502    0  0.38467139000E+01 -0.21189929979E+02 -0.14260365632E+02  0.25829602558E+02  0.00000000000E+00 0. -1.
         -3    1    6    6    0  502 -0.70343154910E+02 -0.18266565722E+02  0.28592412015E+02  0.78098353958E+02  0.00000000000E+00 0.  1.
<mgrwt>
<rscale>  0 0.88333796E+03</rscale>
<asrwt>0</asrwt>
<pdfrwt beam="1">  1        1 0.32048159E-01 0.88333796E+03</pdfrwt>
<pdfrwt beam="2">  1       -2 0.67086014E+00 0.88333796E+03</pdfrwt>
<totfact> 0.35960510E-02</totfact>
</mgrwt>
</event>
<event>
12    3  0.1182097E-007  0.8844908E+03  0.7818608E-02  0.9445179E-01
          1   -1    0    0  501    0  0.00000000000E+00  0.00000000000E+00  0.83240097217E+03  0.83240097217E+03  0.00000000000E+00 0. -1.
         -2   -1    0    0    0  501 -0.00000000000E+00 -0.00000000000E+00 -0.11208539447E+04  0.11208539447E+04  0.00000000000E+00 0.  1.
        -24    2    1    2    0    0  0.64161343911E+03  0.49108300940E+03 -0.45891689127E+03  0.93253348688E+03  0.78636274661E+02 0.  0.
    5000000    2    1    2    0    0 -0.64161343911E+03 -0.49108300940E+03  0.17046391876E+03  0.10207214300E+04  0.59998663539E+03 0.  0.
        -24    2    4    4    0    0  0.11717967566E+02 -0.24820232818E+03 -0.85229913364E+02  0.27408091965E+03  0.78195306144E+02 0.  0.
         24    2    4    4    0    0 -0.65333140667E+03 -0.24288068121E+03  0.25569383213E+03  0.74664051033E+03  0.79118667959E+02 0.  0.
         13    1    3    3    0    0  0.51871848100E+03  0.36295004594E+03 -0.37871045255E+03  0.73771485362E+03  0.00000000000E+00 0. -1.
        -14    1    3    3    0    0  0.12289495811E+03  0.12813296346E+03 -0.80206438714E+02  0.19481863326E+03  0.00000000000E+00 0.  1.
         15    1    5    5    0    0 -0.27634805772E+02 -0.17549452835E+03 -0.53788750020E+02  0.18562973719E+03  0.17770000000E+01 0. -1.
        -16    1    5    5    0    0  0.39352773338E+02 -0.72707799837E+02 -0.31441163344E+02  0.88451182462E+02  0.00000000000E+00 0.  1.
          4    1    6    6  502    0 -0.83519068381E+02 -0.44624246381E+02  0.61198870039E+02  0.11274777090E+03  0.00000000000E+00 0. -1.
         -3    1    6    6    0  502 -0.56981233829E+03 -0.19825643483E+03  0.19449496209E+03  0.63389273943E+03  0.00000000000E+00 0.  1.
<mgrwt>
<rscale>  0 0.88449084E+03</rscale>
<asrwt>0</asrwt>
<pdfrwt beam="1">  1        1 0.12806169E+00 0.88449084E+03</pdfrwt>
<pdfrwt beam="2">  1       -2 0.17243907E+00 0.88449084E+03</pdfrwt>
<totfact> 0.37520712E+00</totfact>
</mgrwt>
</event>
<event>
12    3  0.1182097E-007  0.3452918E+03  0.7818608E-02  0.1064564E+00
         -4   -1    0    0    0  501 -0.00000000000E+00  0.00000000000E+00  0.24632118103E+03  0.24632118103E+03  0.00000000000E+00 0.  1.
          3   -1    0    0  501    0  0.00000000000E+00 -0.00000000000E+00 -0.10321062197E+04  0.10321062197E+04  0.00000000000E+00 0. -1.
        -24    2    1    2    0    0  0.30230217651E+03  0.57537515611E+02 -0.36458404290E+03  0.48325928214E+03  0.76946980534E+02 0.  0.
    5000000    2    1    2    0    0 -0.30230217651E+03 -0.57537515611E+02 -0.42120099574E+03  0.79516811855E+03  0.60015405216E+03 0.  0.
        -24    2    4    4    0    0 -0.14300000566E+03  0.60300613897E+02 -0.52845474676E+03  0.55568160542E+03  0.73705234344E+02 0.  0.
         24    2    4    4    0    0 -0.15930217084E+03 -0.11783812951E+03  0.10725375102E+03  0.23948651313E+03  0.81162900780E+02 0.  0.
         13    1    3    3    0    0  0.95942641313E+02 -0.88854895531E+01 -0.14963534916E+03  0.17797381848E+03  0.00000000000E+00 0. -1.
        -14    1    3    3    0    0  0.20635953519E+03  0.66423005164E+02 -0.21494869374E+03  0.30528546366E+03  0.00000000000E+00 0.  1.
         15    1    5    5    0    0  0.12732128072E+01 -0.87856838255E+01 -0.59757874255E+02  0.60439809527E+02  0.17770000000E+01 0. -1.
        -16    1    5    5    0    0 -0.14427321847E+03  0.69086297722E+02 -0.46869687250E+03  0.49524179589E+03  0.00000000000E+00 0.  1.
          2    1    6    6  502    0 -0.26022055475E+02 -0.55485980917E+02  0.75584688324E+01  0.61749266397E+02  0.00000000000E+00 0. -1.
         -3    1    6    6    0  502 -0.13328011537E+03 -0.62352148591E+02  0.99695282190E+02  0.17773724674E+03  0.00000000000E+00 0.  1.
<mgrwt>
<rscale>  0 0.34529175E+03</rscale>
<asrwt>0</asrwt>
<pdfrwt beam="1">  1        3 0.15878557E+00 0.34529175E+03</pdfrwt>
<pdfrwt beam="2">  1       -4 0.37895567E-01 0.34529175E+03</pdfrwt>
<totfact> 0.42748608E+00</totfact>
</mgrwt>
</event>
<event>
12    3  0.1182097E-007  0.3151021E+03  0.7818608E-02  0.1077926E+00
          1   -1    0    0  501    0  0.00000000000E+00  0.00000000000E+00  0.10253468734E+04  0.10253468734E+04  0.00000000000E+00 0. -1.
         -2   -1    0    0    0  501 -0.00000000000E+00 -0.00000000000E+00 -0.19327650730E+03  0.19327650730E+03  0.00000000000E+00 0.  1.
        -24    2    1    2    0    0  0.12104627867E+03 -0.28834283392E+02 -0.39340576407E+02  0.15335342394E+03  0.80535546214E+02 0.  0.
    5000000    2    1    2    0    0 -0.12104627867E+03  0.28834283392E+02  0.87141094249E+03  0.10652699568E+04  0.59996619288E+03 0.  0.
        -24    2    4    4    0    0  0.92057779350E+02  0.17924027489E+03  0.86141309856E+02  0.23366158389E+03  0.81090687760E+02 0.  0.
         24    2    4    4    0    0 -0.21310405802E+03 -0.15040599150E+03  0.78526963264E+03  0.83160837287E+03  0.82998723233E+02 0.  0.
         11    1    3    3    0    0  0.84354545655E+02  0.11197144783E+02 -0.49006143665E+02  0.98197085196E+02  0.00000000000E+00 0. -1.
        -12    1    3    3    0    0  0.36691733011E+02 -0.40031428176E+02  0.96655672570E+01  0.55156338743E+02  0.00000000000E+00 0.  1.
         15    1    5    5    0    0  0.10601123508E+03  0.14058268337E+03  0.71149107896E+02  0.18991373334E+03  0.17770000000E+01 0. -1.
        -16    1    5    5    0    0 -0.13953455725E+02  0.38657591514E+02  0.14992201959E+02  0.43747850552E+02  0.00000000000E+00 0.  1.
          4    1    6    6  502    0 -0.12424382774E+03 -0.13494514212E+03  0.53673342246E+03  0.56721202992E+03  0.00000000000E+00 0. -1.
         -3    1    6    6    0  502 -0.88860230281E+02 -0.15460849380E+02  0.24853621018E+03  0.26439634294E+03  0.00000000000E+00 0.  1.
<mgrwt>
<rscale>  0 0.31510208E+03</rscale>
<asrwt>0</asrwt>
<pdfrwt beam="1">  1        1 0.15774567E+00 0.31510208E+03</pdfrwt>
<pdfrwt beam="2">  1       -2 0.29734848E-01 0.31510208E+03</pdfrwt>
<totfact> 0.14023711E+02</totfact>
</mgrwt>
</event>
<event>
12    3  0.1182097E-007  0.4799858E+03  0.7818608E-02  0.1019139E+00
         -4   -1    0    0    0  501 -0.00000000000E+00  0.00000000000E+00  0.29641287366E+03  0.29641287366E+03  0.00000000000E+00 0.  1.
          3   -1    0    0  501    0  0.00000000000E+00 -0.00000000000E+00 -0.22122214881E+04  0.22122214881E+04  0.00000000000E+00 0. -1.
        -24    2    1    2    0    0 -0.19860142447E+03  0.35952258537E+03 -0.16991085227E+04  0.17498808308E+04  0.80088295179E+02 0.  0.
    5000000    2    1    2    0    0  0.19860142447E+03 -0.35952258537E+03 -0.21670009183E+03  0.75875353100E+03  0.60004081179E+03 0.  0.
        -24    2    4    4    0    0 -0.87609103465E+02 -0.15445200211E+03  0.14844105729E+03  0.24528288902E+03  0.81229133876E+02 0.  0.
         24    2    4    4    0    0  0.28621052794E+03 -0.20507058326E+03 -0.36514114911E+03  0.51347064198E+03  0.79709666806E+02 0.  0.
         13    1    3    3    0    0 -0.54765983977E+02  0.13222394118E+03 -0.45295162622E+03  0.47502385132E+03  0.00000000000E+00 0. -1.
        -14    1    3    3    0    0 -0.14383544050E+03  0.22729864419E+03 -0.12461568964E+04  0.12748569795E+04  0.00000000000E+00 0.  1.
         15    1    5    5    0    0 -0.60251387714E+02 -0.34961530071E+02  0.33803826621E+02  0.77449304255E+02  0.17770000000E+01 0. -1.
        -16    1    5    5    0    0 -0.27357715751E+02 -0.11949047204E+03  0.11463723067E+03  0.16783358476E+03  0.00000000000E+00 0.  1.
          4    1    6    6  502    0  0.17878845433E+03 -0.97783710055E+02 -0.16467448364E+03  0.26200124220E+03  0.00000000000E+00 0. -1.
         -3    1    6    6    0  502  0.10742207361E+03 -0.10728687320E+03 -0.20046666547E+03  0.25146939978E+03  0.00000000000E+00 0.  1.
<mgrwt>
<rscale>  0 0.47998584E+03</rscale>
<asrwt>0</asrwt>
<pdfrwt beam="1">  1        3 0.34034177E+00 0.47998584E+03</pdfrwt>
<pdfrwt beam="2">  1       -4 0.45601981E-01 0.47998584E+03</pdfrwt>
<totfact> 0.25964782E-01</totfact>
</mgrwt>
</event>
<event>
12    3  0.1182097E-007  0.5255209E+03  0.7818608E-02  0.1007324E+00
         -2   -1    0    0    0  501 -0.00000000000E+00  0.00000000000E+00  0.69588764358E+03  0.69588764358E+03  0.00000000000E+00 0.  1.
          1   -1    0    0  501    0  0.00000000000E+00 -0.00000000000E+00 -0.46735501265E+03  0.46735501265E+03  0.00000000000E+00 0. -1.
        -24    2    1    2    0    0  0.12731716448E+03 -0.34645137374E+03  0.25831116723E+03  0.45754542417E+03  0.79905827862E+02 0.  0.
    5000000    2    1    2    0    0 -0.12731716448E+03  0.34645137374E+03 -0.29778536303E+02  0.70569723206E+03  0.60073588821E+03 0.  0.
        -24    2    4    4    0    0 -0.32896808222E+03  0.34026084467E+03 -0.78700975782E+02  0.48466855220E+03  0.68646342758E+02 0.  0.
         24    2    4    4    0    0  0.20165091774E+03  0.61905290678E+01  0.48922439479E+02  0.22102867986E+03  0.75887133047E+02 0.  0.
         13    1    3    3    0    0  0.85696300338E+02 -0.18103752357E+03  0.96089270965E+02  0.22215217493E+03  0.00000000000E+00 0. -1.
        -14    1    3    3    0    0  0.41620864140E+02 -0.16541385017E+03  0.16222189626E+03  0.23539324923E+03  0.00000000000E+00 0.  1.
         15    1    5    5    0    0 -0.77709352840E+02  0.11842575478E+03 -0.40451033466E+02  0.14731886081E+03  0.17770000000E+01 0. -1.
        -16    1    5    5    0    0 -0.25125872938E+03  0.22183508989E+03 -0.38249942316E+02  0.33734969139E+03  0.00000000000E+00 0.  1.
          2    1    6    6  502    0  0.14037811964E+03  0.16020024146E+02  0.67032079915E+02  0.15638400616E+03  0.00000000000E+00 0. -1.
         -1    1    6    6    0  502  0.61272798101E+02 -0.98294950782E+01 -0.18109640436E+02  0.64644673697E+02  0.00000000000E+00 0.  1.
<mgrwt>
<rscale>  0 0.52552091E+03</rscale>
<asrwt>0</asrwt>
<pdfrwt beam="1">  1        1 0.71900771E-01 0.52552091E+03</pdfrwt>
<pdfrwt beam="2">  1       -2 0.10705964E+00 0.52552091E+03</pdfrwt>
<totfact> 0.30979284E+01</totfact>
</mgrwt>
</event>
<event>
12    3  0.1182097E-007  0.4364332E+03  0.7818608E-02  0.1031847E+00
         -2   -1    0    0    0  501 -0.00000000000E+00  0.00000000000E+00  0.22735988606E+03  0.22735988606E+03  0.00000000000E+00 0.  1.
          1   -1    0    0  501    0  0.00000000000E+00 -0.00000000000E+00 -0.15986505810E+04  0.15986505810E+04  0.00000000000E+00 0. -1.
        -24    2    1    2    0    0  0.28605636137E+03  0.22849955868E+03 -0.12282647849E+03  0.39326847313E+03  0.74387216270E+02 0.  0.
    5000000    2    1    2    0    0 -0.28605636137E+03 -0.22849955868E+03 -0.12484642164E+04  0.14327419939E+04  0.60003869141E+03 0.  0.
        -24    2    4    4    0    0  0.15416588682E+02 -0.17174419717E+03 -0.53545201844E+02  0.19631893864E+03  0.77073319379E+02 0.  0.
         24    2    4    4    0    0 -0.30147295005E+03 -0.56755361514E+02 -0.11949190146E+04  0.12364230552E+04  0.82482783034E+02 0.  0.
         11    1    3    3    0    0  0.14838776095E+03  0.10514806152E+03 -0.23360469389E+02  0.18335963016E+03  0.00000000000E+00 0. -1.
        -12    1    3    3    0    0  0.13766860042E+03  0.12335149716E+03 -0.99466009099E+02  0.20990884298E+03  0.00000000000E+00 0.  1.
         15    1    5    5    0    0  0.46145084660E+02 -0.11570103049E+03 -0.29422813303E+02  0.12800373809E+03  0.17770000000E+01 0. -1.
        -16    1    5    5    0    0 -0.30728495978E+02 -0.56043166684E+02 -0.24122388541E+02  0.68315200549E+02  0.00000000000E+00 0.  1.
          2    1    6    6  502    0 -0.22939809200E+03 -0.59377028029E+01 -0.86434498167E+03  0.89428797838E+03  0.00000000000E+00 0. -1.
         -1    1    6    6    0  502 -0.72074858057E+02 -0.50817658711E+02 -0.33057403289E+03  0.34213507686E+03  0.00000000000E+00 0.  1.
<mgrwt>
<rscale>  0 0.43643317E+03</rscale>
<asrwt>0</asrwt>
<pdfrwt beam="1">  1        1 0.24594625E+00 0.43643317E+03</pdfrwt>
<pdfrwt beam="2">  1       -2 0.34978443E-01 0.43643317E+03</pdfrwt>
<totfact> 0.40503293E+01</totfact>
</mgrwt>
</event>
<event>
12    3  0.1182097E-007  0.1355637E+04  0.7818608E-02  0.8986572E-01
         -2   -1    0    0    0  501 -0.00000000000E+00  0.00000000000E+00  0.17436117482E+04  0.17436117482E+04  0.00000000000E+00 0.  1.
          1   -1    0    0  501    0  0.00000000000E+00 -0.00000000000E+00 -0.10747704422E+04  0.10747704422E+04  0.00000000000E+00 0. -1.
        -24    2    1    2    0    0  0.12463945879E+04 -0.33004889721E+03  0.13277988505E+03  0.12985599493E+04  0.78712774307E+02 0.  0.
    5000000    2    1    2    0    0 -0.12463945879E+04  0.33004889721E+03  0.53606142099E+03  0.15198222411E+04  0.60005504251E+03 0.  0.
        -24    2    4    4    0    0 -0.11434381005E+04  0.46234600225E+03  0.44436998873E+03  0.13130627172E+04  0.73854565873E+02 0.  0.
         24    2    4    4    0    0 -0.10295648739E+03 -0.13229710504E+03  0.91691432258E+02  0.20675952386E+03  0.78991263182E+02 0.  0.
         11    1    3    3    0    0  0.11773462990E+04 -0.32729652915E+03  0.13495429582E+03  0.12294226237E+04  0.00000000000E+00 0. -1.
        -12    1    3    3    0    0  0.69048288900E+02 -0.27523680513E+01 -0.21744107637E+01  0.69137325607E+02  0.00000000000E+00 0.  1.
         15    1    5    5    0    0 -0.34651154023E+03  0.10554523500E+03  0.11966755999E+03  0.38148856705E+03  0.17770000000E+01 0. -1.
        -16    1    5    5    0    0 -0.79692656028E+03  0.35680076725E+03  0.32470242874E+03  0.93157415015E+03  0.00000000000E+00 0.  1.
          4    1    6    6  502    0 -0.20170585825E+02  0.81538857129E+01  0.59550895217E+01  0.22556628204E+02  0.00000000000E+00 0. -1.
         -3    1    6    6    0  502 -0.82785901562E+02 -0.14045099076E+03  0.85736342736E+02  0.18420289566E+03  0.00000000000E+00 0.  1.
<mgrwt>
<rscale>  0 0.13556372E+04</rscale>
<asrwt>0</asrwt>
<pdfrwt beam="1">  1        1 0.16534930E+00 0.13556372E+04</pdfrwt>
<pdfrwt beam="2">  1       -2 0.26824796E+00 0.13556372E+04</pdfrwt>
<totfact> 0.55451890E-01</totfact>
</mgrwt>
</event>
<event>
12    3  0.1182097E-007  0.1486656E+04  0.7818608E-02  0.8893375E-01
          1   -1    0    0  501    0  0.00000000000E+00  0.00000000000E+00  0.24625811839E+04  0.24625811839E+04  0.00000000000E+00 0. -1.
         -2   -1    0    0    0  501 -0.00000000000E+00 -0.00000000000E+00 -0.10093959895E+04  0.10093959895E+04  0.00000000000E+00 0.  1.
        -24    2    1    2    0    0  0.12490343226E+04  0.77711025891E+03  0.28650979618E+03  0.15009102002E+04  0.81587206049E+02 0.  0.
    5000000    2    1    2    0    0 -0.12490343226E+04 -0.77711025891E+03  0.11666753982E+04  0.19710669731E+04  0.59998869504E+03 0.  0.
        -24    2    4    4    0    0 -0.12248606864E+04 -0.76181721690E+03  0.90839651187E+03  0.17065152771E+04  0.79755847059E+02 0.  0.
         24    2    4    4    0    0 -0.24173636197E+02 -0.15293042012E+02  0.25827888632E+03  0.26455169600E+03  0.49612245634E+02 0.  0.
         13    1    3    3    0    0  0.11844308484E+04  0.71637475330E+03  0.26067141614E+03  0.14085520256E+04  0.00000000000E+00 0. -1.
        -14    1    3    3    0    0  0.64603474264E+02  0.60735505611E+02  0.25838380042E+02  0.92358174581E+02  0.00000000000E+00 0.  1.
         15    1    5    5    0    0 -0.10260003585E+03 -0.82650105048E+02  0.10286292517E+03  0.16715784853E+03  0.17770000000E+01 0. -1.
        -16    1    5    5    0    0 -0.11222606506E+04 -0.67916711185E+03  0.80553358669E+03  0.15393574286E+04  0.00000000000E+00 0.  1.
          4    1    6    6  502    0 -0.37320912667E+02 -0.80814400892E+00  0.18333823664E+03  0.18710000704E+03  0.00000000000E+00 0. -1.
         -3    1    6    6    0  502  0.13147276470E+02 -0.14484898003E+02  0.74940649682E+02  0.77451688965E+02  0.00000000000E+00 0.  1.
<mgrwt>
<rscale>  0 0.14866564E+04</rscale>
<asrwt>0</asrwt>
<pdfrwt beam="1">  1        1 0.37885864E+00 0.14866564E+04</pdfrwt>
<pdfrwt beam="2">  1       -2 0.15529169E+00 0.14866564E+04</pdfrwt>
<totfact> 0.32643840E-01</totfact>
</mgrwt>
</event>
<event>
12    3  0.1182097E-007  0.5149184E+03  0.7818608E-02  0.1009957E+00
          1   -1    0    0  501    0  0.00000000000E+00  0.00000000000E+00  0.28604783271E+03  0.28604783271E+03  0.00000000000E+00 0. -1.
         -2   -1    0    0    0  501 -0.00000000000E+00 -0.00000000000E+00 -0.12378571931E+04  0.12378571931E+04  0.00000000000E+00 0.  1.
        -24    2    1    2    0    0 -0.53338535257E+02  0.36897420704E+03 -0.60165624650E+02  0.38643231352E+03  0.81994303082E+02 0.  0.
    5000000    2    1    2    0    0  0.53338535257E+02 -0.36897420704E+03 -0.89164373579E+03  0.11374727123E+04  0.59985719545E+03 0.  0.
        -24    2    4    4    0    0 -0.23296965241E+03 -0.13736868409E+03 -0.18734540139E+03  0.33869516881E+03  0.80443170262E+02 0.  0.
         24    2    4    4    0    0  0.28630818767E+03 -0.23160552294E+03 -0.70429833440E+03  0.79877754352E+03  0.79974518515E+02 0.  0.
         13    1    3    3    0    0  0.71682367365E+01  0.60114713927E+02 -0.36773003582E+02  0.70833722484E+02  0.00000000000E+00 0. -1.
        -14    1    3    3    0    0 -0.60506771993E+02  0.30885949311E+03 -0.23392621068E+02  0.31559859103E+03  0.00000000000E+00 0.  1.
         15    1    5    5    0    0 -0.22948932761E+02 -0.42498204724E+02 -0.13980628782E+02  0.50312688557E+02  0.17770000000E+01 0. -1.
        -16    1    5    5    0    0 -0.21002071965E+03 -0.94870479369E+02 -0.17336477261E+03  0.28838248026E+03  0.00000000000E+00 0.  1.
          2    1    6    6  502    0  0.19743359573E+03 -0.20109611963E+03 -0.50123416754E+03  0.57502640353E+03  0.00000000000E+00 0. -1.
         -1    1    6    6    0  502  0.88874591940E+02 -0.30509403317E+02 -0.20306416686E+03  0.22375113999E+03  0.00000000000E+00 0.  1.
<mgrwt>
<rscale>  0 0.51491844E+03</rscale>
<asrwt>0</asrwt>
<pdfrwt beam="1">  1        1 0.44007359E-01 0.51491844E+03</pdfrwt>
<pdfrwt beam="2">  1       -2 0.19043957E+00 0.51491844E+03</pdfrwt>
<totfact> 0.13135583E+01</totfact>
</mgrwt>
</event>
<event>
12    3  0.1182097E-007  0.7351901E+03  0.7818608E-02  0.9658875E-01
          1   -1    0    0  501    0  0.00000000000E+00  0.00000000000E+00  0.10885625923E+04  0.10885625923E+04  0.00000000000E+00 0. -1.
         -2   -1    0    0    0  501 -0.00000000000E+00 -0.00000000000E+00 -0.64291822138E+03  0.64291822138E+03  0.00000000000E+00 0.  1.
        -24    2    1    2    0    0 -0.69758971446E+02 -0.70753060546E+03  0.34947451054E+03  0.79619761598E+03  0.79575991481E+02 0.  0.
    5000000    2    1    2    0    0  0.69758971446E+02  0.70753060546E+03  0.96169860379E+02  0.93528319770E+03  0.60003345416E+03 0.  0.
        -24    2    4    4    0    0 -0.93845708824E+02  0.22003351988E+03  0.28588867028E+03  0.38111495381E+03  0.79337943546E+02 0.  0.
         24    2    4    4    0    0  0.16360468027E+03  0.48749708558E+03 -0.18971880990E+03  0.55416824390E+03  0.81788237926E+02 0.  0.
         11    1    3    3    0    0 -0.75738500111E+01 -0.36872484344E+02  0.40127350555E+02  0.55019519883E+02  0.00000000000E+00 0. -1.
        -12    1    3    3    0    0 -0.62185121435E+02 -0.67065812111E+03  0.30934715999E+03  0.74117809610E+03  0.00000000000E+00 0.  1.
         15    1    5    5    0    0 -0.17288263170E+02  0.63358690889E+02  0.31918673299E+02  0.73042228804E+02  0.17770000000E+01 0. -1.
        -16    1    5    5    0    0 -0.76557445655E+02  0.15667482899E+03  0.25396999698E+03  0.30807272500E+03  0.00000000000E+00 0.  1.
          4    1    6    6  502    0  0.70880027311E+02  0.31919591919E+03 -0.14002642197E+03  0.35569286181E+03  0.00000000000E+00 0. -1.
         -3    1    6    6    0  502  0.92724652960E+02  0.16830116639E+03 -0.49692387934E+02  0.19847538209E+03  0.00000000000E+00 0.  1.
<mgrwt>
<rscale>  0 0.73519012E+03</rscale>
<asrwt>0</asrwt>
<pdfrwt beam="1">  1        1 0.16747117E+00 0.73519012E+03</pdfrwt>
<pdfrwt beam="2">  1       -2 0.98910496E-01 0.73519012E+03</pdfrwt>
<totfact> 0.98759243E+00</totfact>
</mgrwt>
</event>
<event>
12    3  0.1182097E-007  0.1439608E+04  0.7818608E-02  0.8925637E-01
         -2   -1    0    0    0  501 -0.00000000000E+00  0.00000000000E+00  0.17584080208E+04  0.17584080208E+04  0.00000000000E+00 0.  1.
          1   -1    0    0  501    0  0.00000000000E+00 -0.00000000000E+00 -0.13008214950E+04  0.13008214950E+04  0.00000000000E+00 0. -1.
        -24    2    1    2    0    0  0.60665077219E+03  0.12947069322E+04  0.47404090867E+03  0.15083506262E+04  0.78202485443E+02 0.  0.
    5000000    2    1    2    0    0 -0.60665077219E+03 -0.12947069322E+04 -0.16454382797E+02  0.15508788896E+04  0.60055256518E+03 0.  0.
        -24    2    4    4    0    0 -0.23656220127E+03 -0.70806709538E+03 -0.28417453738E+03  0.80286642623E+03  0.80738120115E+02 0.  0.
         24    2    4    4    0    0 -0.37008857092E+03 -0.58663983687E+03  0.26772015459E+03  0.74801246333E+03  0.82077497460E+02 0.  0.
         13    1    3    3    0    0  0.41769033024E+03  0.96134603892E+03  0.36584468422E+03  0.11101773514E+04  0.00000000000E+00 0. -1.
        -14    1    3    3    0    0  0.18896044195E+03  0.33336089333E+03  0.10819622444E+03  0.39817327485E+03  0.00000000000E+00 0.  1.
         15    1    5    5    0    0 -0.13426870932E+03 -0.28447146282E+03 -0.13431416089E+03  0.34204612409E+03  0.17770000000E+01 0. -1.
        -16    1    5    5    0    0 -0.10229349195E+03 -0.42359563256E+03 -0.14986037649E+03  0.46082030214E+03  0.00000000000E+00 0.  1.
          4    1    6    6  502    0 -0.10055657004E+03 -0.10366679604E+03  0.39869738705E+02  0.14982664798E+03  0.00000000000E+00 0. -1.
         -1    1    6    6    0  502 -0.26953200088E+03 -0.48297304082E+03  0.22785041588E+03  0.59818581534E+03  0.00000000000E+00 0.  1.
<mgrwt>
<rscale>  0 0.14396084E+04</rscale>
<asrwt>0</asrwt>
<pdfrwt beam="1">  1        1 0.20012638E+00 0.14396084E+04</pdfrwt>
<pdfrwt beam="2">  1       -2 0.27052431E+00 0.14396084E+04</pdfrwt>
<totfact> 0.36210180E-01</totfact>
</mgrwt>
</event>
<event>
12    3  0.1182097E-007  0.2791898E+04  0.7818608E-02  0.8305788E-01
          1   -1    0    0  501    0  0.00000000000E+00  0.00000000000E+00  0.33131867236E+04  0.33131867236E+04  0.00000000000E+00 0. -1.
         -2   -1    0    0    0  501 -0.00000000000E+00 -0.00000000000E+00 -0.35821290668E+04  0.35821290668E+04  0.00000000000E+00 0.  1.
        -24    2    1    2    0    0  0.26943645049E+04  0.72152958256E+03 -0.21115924610E+04  0.34989137666E+04  0.58049987070E+02 0.  0.
    5000000    2    1    2    0    0 -0.26943645049E+04 -0.72152958256E+03  0.18426501178E+04  0.33964020238E+04  0.59998518886E+03 0.  0.
        -24    2    4    4    0    0 -0.22599123258E+04 -0.66163013488E+03  0.12884131631E+04  0.26851223038E+04  0.70108141328E+02 0.  0.
         24    2    4    4    0    0 -0.43445217907E+03 -0.59899447677E+02  0.55423695470E+03  0.71127972003E+03  0.80022487164E+02 0.  0.
         11    1    3    3    0    0  0.13344301353E+04  0.32964140768E+03 -0.10544541126E+04  0.17324089353E+04  0.00000000000E+00 0. -1.
        -12    1    3    3    0    0  0.13599343696E+04  0.39188817488E+03 -0.10571383484E+04  0.17665048313E+04  0.00000000000E+00 0.  1.
         15    1    5    5    0    0 -0.15881655087E+04 -0.46229602001E+03  0.94120099680E+03  0.19031158050E+04  0.17770000000E+01 0. -1.
        -16    1    5    5    0    0 -0.67174681711E+03 -0.19933411487E+03  0.34721216632E+03  0.78200649875E+03  0.00000000000E+00 0.  1.
          4    1    6    6  502    0 -0.74430005779E+02 -0.13185354930E+01  0.14561083588E+03  0.16353617282E+03  0.00000000000E+00 0. -1.
         -3    1    6    6    0  502 -0.36002217329E+03 -0.58580912184E+02  0.40862611882E+03  0.54774354721E+03  0.00000000000E+00 0.  1.
<mgrwt>
<rscale>  0 0.27918977E+04</rscale>
<asrwt>0</asrwt>
<pdfrwt beam="1">  1        1 0.50972103E+00 0.27918977E+04</pdfrwt>
<pdfrwt beam="2">  1       -2 0.55109678E+00 0.27918977E+04</pdfrwt>
<totfact> 0.20396539E-04</totfact>
</mgrwt>
</event>
<event>
12    3  0.1182097E-007  0.3107441E+03  0.7818608E-02  0.1079990E+00
         -2   -1    0    0    0  501 -0.00000000000E+00  0.00000000000E+00  0.48925780172E+02  0.48925780172E+02  0.00000000000E+00 0.  1.
          1   -1    0    0  501    0  0.00000000000E+00 -0.00000000000E+00 -0.26712090499E+04  0.26712090499E+04  0.00000000000E+00 0. -1.
        -24    2    1    2    0    0  0.37263984698E+02 -0.50860711208E+02 -0.21334396881E+03  0.23681411758E+03  0.81177957348E+02 0.  0.
    5000000    2    1    2    0    0 -0.37263984698E+02  0.50860711208E+02 -0.24089393009E+04  0.24833207125E+04  0.59993148698E+03 0.  0.
        -24    2    4    4    0    0  0.11440706283E+03  0.26134489575E+03 -0.79259375294E+03  0.84447449054E+03  0.59516194563E+02 0.  0.
         24    2    4    4    0    0 -0.15167104752E+03 -0.21048418454E+03 -0.16163455480E+04  0.16388462219E+04  0.77047453740E+02 0.  0.
         13    1    3    3    0    0  0.32343262016E+02 -0.16547742620E+02 -0.19348119120E+03  0.19686260623E+03  0.00000000000E+00 0. -1.
        -14    1    3    3    0    0  0.49207226819E+01 -0.34312968587E+02 -0.19862777609E+02  0.39951511352E+02  0.00000000000E+00 0.  1.
         15    1    5    5    0    0  0.12536293308E+02  0.95623245410E+02 -0.28510962988E+03  0.30098442234E+03  0.17770000000E+01 0. -1.
        -16    1    5    5    0    0  0.10187076952E+03  0.16572165034E+03 -0.50748412306E+03  0.54349006820E+03  0.00000000000E+00 0.  1.
          2    1    6    6  502    0 -0.19495505276E+02 -0.23726312193E+02 -0.39942466475E+03  0.40060338918E+03  0.00000000000E+00 0. -1.
         -1    1    6    6    0  502 -0.13217554225E+03 -0.18675787235E+03 -0.12169208832E+04  0.12382428328E+04  0.00000000000E+00 0.  1.
<mgrwt>
<rscale>  0 0.31074412E+03</rscale>
<asrwt>0</asrwt>
<pdfrwt beam="1">  1        1 0.41095521E+00 0.31074412E+03</pdfrwt>
<pdfrwt beam="2">  1       -2 0.75270437E-02 0.31074412E+03</pdfrwt>
<totfact> 0.11023634E+02</totfact>
</mgrwt>
</event>
<event>
12    3  0.1182097E-007  0.7852797E+03  0.7818608E-02  0.9581572E-01
          1   -1    0    0  501    0  0.00000000000E+00  0.00000000000E+00  0.21440038520E+04  0.21440038520E+04  0.00000000000E+00 0. -1.
         -2   -1    0    0    0  501 -0.00000000000E+00 -0.00000000000E+00 -0.35949566338E+03  0.35949566338E+03  0.00000000000E+00 0.  1.
        -24    2    1    2    0    0  0.30811685115E+03  0.69240639211E+03  0.10067356857E+04  0.12627658357E+04  0.81842587957E+02 0.  0.
    5000000    2    1    2    0    0 -0.30811685115E+03 -0.69240639211E+03  0.77777250296E+03  0.12407336797E+04  0.60010615044E+03 0.  0.
        -24    2    4    4    0    0 -0.30227024494E+03 -0.34788174221E+03  0.10369528822E+03  0.47931408473E+03  0.81242054894E+02 0.  0.
         24    2    4    4    0    0 -0.58466062082E+01 -0.34452464990E+03  0.67407721474E+03  0.76141959497E+03  0.81537052810E+02 0.  0.
         13    1    3    3    0    0  0.16327308549E+03  0.28951688676E+03  0.48277362064E+03  0.58613010241E+03  0.00000000000E+00 0. -1.
        -14    1    3    3    0    0  0.14484376566E+03  0.40288950534E+03  0.52396206505E+03  0.67663573330E+03  0.00000000000E+00 0.  1.
         15    1    5    5    0    0 -0.10380309533E+03 -0.81013507916E+02  0.26067699082E+01  0.13171265711E+03  0.17770000000E+01 0. -1.
        -16    1    5    5    0    0 -0.19846714961E+03 -0.26686823429E+03  0.10108851831E+03  0.34760142762E+03  0.00000000000E+00 0.  1.
          4    1    6    6  502    0  0.31904825224E+01 -0.31211307026E+03  0.64653761032E+03  0.71793845793E+03  0.00000000000E+00 0. -1.
         -3    1    6    6    0  502 -0.90370887307E+01 -0.32411579637E+02  0.27539604420E+02  0.43481137047E+02  0.00000000000E+00 0.  1.
<mgrwt>
<rscale>  0 0.78527966E+03</rscale>
<asrwt>0</asrwt>
<pdfrwt beam="1">  1        1 0.32984674E+00 0.78527966E+03</pdfrwt>
<pdfrwt beam="2">  1       -2 0.55307026E-01 0.78527966E+03</pdfrwt>
<totfact> 0.66755219E+00</totfact>
</mgrwt>
</event>
<event>
12    3  0.1182097E-007  0.7448827E+03  0.7818608E-02  0.9643413E-01
         -2   -1    0    0    0  501 -0.00000000000E+00  0.00000000000E+00  0.81832287140E+03  0.81832287140E+03  0.00000000000E+00 0.  1.
          1   -1    0    0  501    0  0.00000000000E+00 -0.00000000000E+00 -0.74349976026E+03  0.74349976026E+03  0.00000000000E+00 0. -1.
        -24    2    1    2    0    0  0.24160625377E+03 -0.58293727598E+03 -0.16780229113E+03  0.65790772491E+03  0.80594764119E+02 0.  0.
    5000000    2    1    2    0    0 -0.24160625377E+03  0.58293727598E+03  0.24262540227E+03  0.90391490675E+03  0.60000468601E+03 0.  0.
        -24    2    4    4    0    0 -0.36967410343E+03  0.15460985773E+03  0.17262038023E+03  0.44391593867E+03  0.81856057078E+02 0.  0.
         24    2    4    4    0    0  0.12806784967E+03  0.42832741825E+03  0.70005022039E+02  0.45999896808E+03  0.82659519598E+02 0.  0.
         13    1    3    3    0    0  0.12019056336E+03 -0.35161051316E+03 -0.65377556622E+02  0.37729292254E+03  0.00000000000E+00 0. -1.
        -14    1    3    3    0    0  0.12141569040E+03 -0.23132676282E+03 -0.10242473451E+03  0.28061480238E+03  0.00000000000E+00 0.  1.
         15    1    5    5    0    0 -0.11847168423E+03  0.20346558638E+02  0.23813587461E+02  0.12255515937E+03  0.17770000000E+01 0. -1.
        -16    1    5    5    0    0 -0.25120241921E+03  0.13426329910E+03  0.14880679277E+03  0.32136077930E+03  0.00000000000E+00 0.  1.
          2    1    6    6  502    0  0.96195280014E+02  0.20695248634E+03  0.10017764300E+02  0.22843646622E+03  0.00000000000E+00 0. -1.
         -1    1    6    6    0  502  0.31872569653E+02  0.22137493191E+03  0.59987257739E+02  0.23156250185E+03  0.00000000000E+00 0.  1.
<mgrwt>
<rscale>  0 0.74488271E+03</rscale>
<asrwt>0</asrwt>
<pdfrwt beam="1">  1        1 0.11438458E+00 0.74488271E+03</pdfrwt>
<pdfrwt beam="2">  1       -2 0.12589583E+00 0.74488271E+03</pdfrwt>
<totfact> 0.10465094E+01</totfact>
</mgrwt>
</event>
<event>
12    3  0.1182097E-007  0.5441910E+03  0.7818608E-02  0.1002847E+00
          1   -1    0    0  501    0  0.00000000000E+00  0.00000000000E+00  0.13614292279E+04  0.13614292279E+04  0.00000000000E+00 0. -1.
         -2   -1    0    0    0  501 -0.00000000000E+00 -0.00000000000E+00 -0.69004192544E+03  0.69004192544E+03  0.00000000000E+00 0.  1.
        -24    2    1    2    0    0  0.34421485092E+03 -0.33463241085E+03  0.10775495553E+04  0.11823060617E+04  0.79195109266E+02 0.  0.
    5000000    2    1    2    0    0 -0.34421485092E+03  0.33463241085E+03 -0.40616225285E+03  0.86916509168E+03  0.60001455563E+03 0.  0.
        -24    2    4    4    0    0  0.30684536981E+02  0.20161475940E+03  0.81140873190E+02  0.23317412856E+03  0.78716458946E+02 0.  0.
         24    2    4    4    0    0 -0.37489938790E+03  0.13301765145E+03 -0.48730312604E+03  0.63599096312E+03  0.93685227633E+02 0.  0.
         13    1    3    3    0    0  0.16333342555E+03 -0.13049820256E+03  0.38728207601E+03  0.44010793582E+03  0.00000000000E+00 0. -1.
        -14    1    3    3    0    0  0.18088142537E+03 -0.20413420829E+03  0.69026747931E+03  0.74219812587E+03  0.00000000000E+00 0.  1.
         15    1    5    5    0    0  0.37406820005E+02  0.97485237107E+02  0.75142969345E+02  0.12865560698E+03  0.17770000000E+01 0. -1.
        -16    1    5    5    0    0 -0.67222830238E+01  0.10412952230E+03  0.59979038454E+01  0.10451852158E+03  0.00000000000E+00 0.  1.
          4    1    6    6  502    0 -0.33104920319E+02  0.11758235981E+02 -0.97175054627E+02  0.10333045584E+03  0.00000000000E+00 0. -1.
         -3    1    6    6    0  502 -0.34179446758E+03  0.12125941547E+03 -0.39012807141E+03  0.53266050728E+03  0.00000000000E+00 0.  1.
<mgrwt>
<rscale>  0 0.54419097E+03</rscale>
<asrwt>0</asrwt>
<pdfrwt beam="1">  1        1 0.20945065E+00 0.54419097E+03</pdfrwt>
<pdfrwt beam="2">  1       -2 0.10616030E+00 0.54419097E+03</pdfrwt>
<totfact> 0.54803546E+00</totfact>
</mgrwt>
</event>
<event>
12    3  0.1182097E-007  0.4524283E+03  0.7818608E-02  0.1027000E+00
          1   -1    0    0  501    0  0.00000000000E+00  0.00000000000E+00  0.86002498139E+03  0.86002498139E+03  0.00000000000E+00 0. -1.
         -2   -1    0    0    0  501 -0.00000000000E+00 -0.00000000000E+00 -0.34398909293E+03  0.34398909293E+03  0.00000000000E+00 0.  1.
        -24    2    1    2    0    0  0.14587945447E+03  0.32334094598E+03  0.52762795979E+02  0.36706294487E+03  0.78237524691E+02 0.  0.
    5000000    2    1    2    0    0 -0.14587945447E+03 -0.32334094598E+03  0.46327309248E+03  0.83695112945E+03  0.60002920953E+03 0.  0.
        -24    2    4    4    0    0 -0.25204653350E+03 -0.58552641238E+02  0.46834139206E+03  0.54071714866E+03  0.77945548260E+02 0.  0.
         24    2    4    4    0    0  0.10616707903E+03 -0.26478830474E+03 -0.50682995767E+01  0.29623398079E+03  0.79652926603E+02 0.  0.
         11    1    3    3    0    0  0.10037668832E+03  0.14386761084E+03  0.47907765682E+02  0.18184752685E+03  0.00000000000E+00 0. -1.
        -12    1    3    3    0    0  0.45502766154E+02  0.17947333514E+03  0.48550302971E+01  0.18521541802E+03  0.00000000000E+00 0.  1.
         15    1    5    5    0    0 -0.13795638936E+03 -0.33296602990E+02  0.33254585774E+03  0.36156677719E+03  0.17770000000E+01 0. -1.
        -16    1    5    5    0    0 -0.11409014414E+03 -0.25256038248E+02  0.13579553432E+03  0.17915037147E+03  0.00000000000E+00 0.  1.
          2    1    6    6  502    0  0.36693762255E+02 -0.10626469769E+03 -0.40632293981E+02  0.11953912112E+03  0.00000000000E+00 0. -1.
         -1    1    6    6    0  502  0.69473316776E+02 -0.15852360706E+03  0.35563994405E+02  0.17669485968E+03  0.00000000000E+00 0.  1.
<mgrwt>
<rscale>  0 0.45242829E+03</rscale>
<asrwt>0</asrwt>
<pdfrwt beam="1">  1        1 0.13231154E+00 0.45242829E+03</pdfrwt>
<pdfrwt beam="2">  1       -2 0.52921399E-01 0.45242829E+03</pdfrwt>
<totfact> 0.60897297E+01</totfact>
</mgrwt>
</event>
<event>
12    3  0.1182097E-007  0.1108307E+04  0.7818608E-02  0.9197133E-01
         -2   -1    0    0    0  501 -0.00000000000E+00  0.00000000000E+00  0.77388837164E+03  0.77388837164E+03  0.00000000000E+00 0.  1.
          1   -1    0    0  501    0  0.00000000000E+00 -0.00000000000E+00 -0.23369277709E+04  0.23369277709E+04  0.00000000000E+00 0. -1.
        -24    2    1    2    0    0 -0.89304872896E+03 -0.53005680181E+03 -0.16019361790E+04  0.19108177015E+04  0.80799265541E+02 0.  0.
    5000000    2    1    2    0    0  0.89304872896E+03  0.53005680181E+03  0.38896779725E+02  0.11999984411E+04  0.59998921127E+03 0.  0.
        -24    2    4    4    0    0 -0.52559468512E+02  0.95249724725E+02  0.76911639115E+02  0.15538398526E+03  0.79961083369E+02 0.  0.
         24    2    4    4    0    0  0.94560819748E+03  0.43480707708E+03 -0.38014859390E+02  0.10446144558E+04  0.80883708656E+02 0.  0.
         13    1    3    3    0    0 -0.60404987969E+03 -0.31726276478E+03 -0.10764361234E+04  0.12744593547E+04  0.00000000000E+00 0. -1.
        -14    1    3    3    0    0 -0.28899884927E+03 -0.21279403703E+03 -0.52550005561E+03  0.63635834678E+03  0.00000000000E+00 0.  1.
         15    1    5    5    0    0 -0.63923596605E+01  0.86233815106E+02  0.38574586249E+02  0.94701053653E+02  0.17770000000E+01 0. -1.
        -16    1    5    5    0    0 -0.46167108852E+02  0.90159096192E+01  0.38337052866E+02  0.60682931607E+02  0.00000000000E+00 0.  1.
          4    1    6    6  502    0  0.65752930263E+03  0.32651695186E+03  0.29244024638E+01  0.73414348447E+03  0.00000000000E+00 0. -1.
         -3    1    6    6    0  502  0.28807889485E+03  0.10829012523E+03 -0.40939261854E+02  0.31047097133E+03  0.00000000000E+00 0.  1.
<mgrwt>
<rscale>  0 0.11083070E+04</rscale>
<asrwt>0</asrwt>
<pdfrwt beam="1">  1        1 0.35952734E+00 0.11083070E+04</pdfrwt>
<pdfrwt beam="2">  1       -2 0.11905975E+00 0.11083070E+04</pdfrwt>
<totfact> 0.82949052E-01</totfact>
</mgrwt>
</event>
<event>
12    3  0.1327566E-007  0.1646281E+04  0.7818608E-02  0.8792609E-01
         -2   -1    0    0    0  501 -0.00000000000E+00  0.00000000000E+00  0.24799187832E+04  0.24799187832E+04  0.00000000000E+00 0.  1.
          1   -1    0    0  501    0  0.00000000000E+00 -0.00000000000E+00 -0.15495799137E+04  0.15495799137E+04  0.00000000000E+00 0. -1.
        -24    2    1    2    0    0 -0.66566918577E+03 -0.15019190879E+04 -0.55429401349E+03  0.17353683918E+04  0.73383856194E+02 0.  0.
    5000000    2    1    2    0    0  0.66566918577E+03  0.15019190879E+04  0.14846328830E+04  0.22941303051E+04  0.60001887296E+03 0.  0.
        -24    2    4    4    0    0  0.27850775137E+03  0.58704995702E+03  0.97603307172E+03  0.11752663782E+04  0.80101703719E+02 0.  0.
         24    2    4    4    0    0  0.38716143441E+03  0.91486913092E+03  0.50859981131E+03  0.11188639270E+04  0.79392795621E+02 0.  0.
         13    1    3    3    0    0 -0.34900168316E+03 -0.75571245592E+03 -0.24455342212E+03  0.86758853563E+03  0.00000000000E+00 0. -1.
        -14    1    3    3    0    0 -0.31666750262E+03 -0.74620663202E+03 -0.30974059137E+03  0.86777985620E+03  0.00000000000E+00 0.  1.
         15    1    5    5    0    0  0.10667106621E+03  0.30007121958E+03  0.43355645219E+03  0.53795521017E+03  0.17770000000E+01 0. -1.
        -16    1    5    5    0    0  0.17183668516E+03  0.28697873744E+03  0.54247661953E+03  0.63731116799E+03  0.00000000000E+00 0.  1.
          4    1    6    6  502    0  0.54506181047E+02  0.21295862340E+03  0.10973848845E+03  0.24569256175E+03  0.00000000000E+00 0. -1.
         -3    1    6    6    0  502  0.33265525336E+03  0.70191050751E+03  0.39886132286E+03  0.87317136521E+03  0.00000000000E+00 0.  1.
<mgrwt>
<rscale>  0 0.16462812E+04</rscale>
<asrwt>0</asrwt>
<pdfrwt beam="1">  1        1 0.23839691E+00 0.16462812E+04</pdfrwt>
<pdfrwt beam="2">  1       -2 0.38152597E+00 0.16462812E+04</pdfrwt>
<totfact> 0.48113599E-02</totfact>
</mgrwt>
</event>
<event>
12    3  0.1182097E-007  0.5926153E+03  0.7818608E-02  0.9920846E-01
          1   -1    0    0  501    0  0.00000000000E+00  0.00000000000E+00  0.29643577315E+04  0.29643577315E+04  0.00000000000E+00 0. -1.
         -2   -1    0    0    0  501 -0.00000000000E+00 -0.00000000000E+00 -0.15590671009E+03  0.15590671009E+03  0.00000000000E+00 0.  1.
        -24    2    1    2    0    0 -0.31411389543E+03 -0.32592421523E+03  0.18280218777E+04  0.18849783790E+04  0.81150294217E+02 0.  0.
    5000000    2    1    2    0    0  0.31411389543E+03  0.32592421523E+03  0.98042914364E+03  0.12352860626E+04  0.59983015713E+03 0.  0.
        -24    2    4    4    0    0  0.12673129994E+03 -0.15972641298E+03  0.22363509626E+03  0.31303276690E+03  0.80021918764E+02 0.  0.
         24    2    4    4    0    0  0.18738259550E+03  0.48565062821E+03  0.75679404738E+03  0.92225329572E+03  0.82735370564E+02 0.  0.
         11    1    3    3    0    0 -0.24659636825E+03 -0.22903423276E+03  0.12186200450E+04  0.12642394009E+04  0.00000000000E+00 0. -1.
        -12    1    3    3    0    0 -0.67517527186E+02 -0.96889982476E+02  0.60940183272E+03  0.62073897808E+03  0.00000000000E+00 0.  1.
         15    1    5    5    0    0  0.55214498269E+02 -0.78416573205E+02  0.16245113757E+03  0.18865664472E+03  0.17770000000E+01 0. -1.
        -16    1    5    5    0    0  0.71516801670E+02 -0.81309839771E+02  0.61183958696E+02  0.12437612217E+03  0.00000000000E+00 0.  1.
          2    1    6    6  502    0  0.18584589491E+03  0.40382345747E+03  0.65570903972E+03  0.79219090265E+03  0.00000000000E+00 0. -1.
         -1    1    6    6    0  502  0.15367005897E+01  0.81827170739E+02  0.10108500766E+03  0.13006239308E+03  0.00000000000E+00 0.  1.
<mgrwt>
<rscale>  0 0.59261531E+03</rscale>
<asrwt>0</asrwt>
<pdfrwt beam="1">  1        1 0.45605499E+00 0.59261531E+03</pdfrwt>
<pdfrwt beam="2">  1       -2 0.23985650E-01 0.59261531E+03</pdfrwt>
<totfact> 0.94057105E+00</totfact>
</mgrwt>
</event>
<event>
12    3  0.1182097E-007  0.5260112E+03  0.7818608E-02  0.1007204E+00
         -2   -1    0    0    0  501 -0.00000000000E+00  0.00000000000E+00  0.38115660244E+03  0.38115660244E+03  0.00000000000E+00 0.  1.
          1   -1    0    0  501    0  0.00000000000E+00 -0.00000000000E+00 -0.16449423913E+04  0.16449423913E+04  0.00000000000E+00 0. -1.
        -24    2    1    2    0    0 -0.45103878081E+03  0.24813729979E+03 -0.11020364080E+04  0.12190396856E+04  0.81027212667E+02 0.  0.
    5000000    2    1    2    0    0  0.45103878081E+03 -0.24813729979E+03 -0.16174938086E+03  0.80705930813E+03  0.60014478527E+03 0.  0.
        -24    2    4    4    0    0  0.62588334114E+02  0.19602599798E+01 -0.30210491791E+03  0.31766076581E+03  0.75629614067E+02 0.  0.
         24    2    4    4    0    0  0.38845044670E+03 -0.25009755977E+03  0.14035553705E+03  0.48939854231E+03  0.79804244837E+02 0.  0.
         13    1    3    3    0    0 -0.18915569589E+03  0.11618422014E+03 -0.38599004390E+03  0.44527178699E+03  0.00000000000E+00 0. -1.
        -14    1    3    3    0    0 -0.26188308492E+03  0.13195307965E+03 -0.71604636412E+03  0.77376789864E+03  0.00000000000E+00 0.  1.
         15    1    5    5    0    0 -0.39545645329E+01  0.33869375826E+01  0.23740502866E+01  0.59919755170E+01  0.17770000000E+01 0. -1.
        -16    1    5    5    0    0  0.66542898647E+02 -0.14266776028E+01 -0.30447896820E+03  0.31166879030E+03  0.00000000000E+00 0.  1.
          2    1    6    6  502    0  0.13283122994E+03 -0.11449817141E+03  0.84638549832E+02  0.19472455167E+03  0.00000000000E+00 0. -1.
         -1    1    6    6    0  502  0.25561921676E+03 -0.13559938836E+03  0.55716987223E+02  0.29467399065E+03  0.00000000000E+00 0.  1.
<mgrwt>
<rscale>  0 0.52601118E+03</rscale>
<asrwt>0</asrwt>
<pdfrwt beam="1">  1        1 0.25306806E+00 0.52601118E+03</pdfrwt>
<pdfrwt beam="2">  1       -2 0.58639478E-01 0.52601118E+03</pdfrwt>
<totfact> 0.13294719E+01</totfact>
</mgrwt>
</event>
<event>
12    3  0.1182097E-007  0.5122082E+03  0.7818608E-02  0.1010641E+00
         -2   -1    0    0    0  501 -0.00000000000E+00  0.00000000000E+00  0.22488007994E+03  0.22488007994E+03  0.00000000000E+00 0.  1.
          1   -1    0    0  501    0  0.00000000000E+00 -0.00000000000E+00 -0.20836335313E+04  0.20836335313E+04  0.00000000000E+00 0. -1.
        -24    2    1    2    0    0 -0.35760496956E+03  0.11568548686E+03 -0.78439652834E+02  0.39254494088E+03  0.81696421895E+02 0.  0.
    5000000    2    1    2    0    0  0.35760496956E+03 -0.11568548686E+03 -0.17803137985E+04  0.19159686703E+04  0.60012855164E+03 0.  0.
        -24    2    4    4    0    0 -0.43930023606E+02 -0.21731700036E+03 -0.10159153163E+04  0.10428911461E+04  0.79884210679E+02 0.  0.
         24    2    4    4    0    0  0.40153499316E+03  0.10163151351E+03 -0.76439848218E+03  0.87307752421E+03  0.80000052904E+02 0.  0.
         13    1    3    3    0    0 -0.13200648699E+03  0.64275179131E+02  0.41035152071E+01  0.14688039384E+03  0.00000000000E+00 0. -1.
        -14    1    3    3    0    0 -0.22559848257E+03  0.51410307726E+02 -0.82543168042E+02  0.24566454703E+03  0.00000000000E+00 0.  1.
         15    1    5    5    0    0 -0.61040873080E+02 -0.16594742344E+03 -0.85553963860E+03  0.87362221038E+03  0.17770000000E+01 0. -1.
        -16    1    5    5    0    0  0.17110849475E+02 -0.51369576925E+02 -0.16037567771E+03  0.16926893573E+03  0.00000000000E+00 0.  1.
          4    1    6    6  502    0  0.88321014800E+02  0.35087235541E+02 -0.24649553379E+03  0.26418130882E+03  0.00000000000E+00 0. -1.
         -3    1    6    6    0  502  0.31321397836E+03  0.66544277967E+02 -0.51790294839E+03  0.60889621539E+03  0.00000000000E+00 0.  1.
<mgrwt>
<rscale>  0 0.51220825E+03</rscale>
<asrwt>0</asrwt>
<pdfrwt beam="1">  1        1 0.32055901E+00 0.51220825E+03</pdfrwt>
<pdfrwt beam="2">  1       -2 0.34596935E-01 0.51220825E+03</pdfrwt>
<totfact> 0.19442616E+01</totfact>
</mgrwt>
</event>
<event>
12    3  0.1182097E-007  0.6500117E+03  0.7818608E-02  0.9806757E-01
         -2   -1    0    0    0  501 -0.00000000000E+00  0.00000000000E+00  0.12549668439E+04  0.12549668439E+04  0.00000000000E+00 0.  1.
          1   -1    0    0  501    0  0.00000000000E+00 -0.00000000000E+00 -0.39618381050E+03  0.39618381050E+03  0.00000000000E+00 0. -1.
        -24    2    1    2    0    0 -0.18326531020E+03 -0.54328164544E+03  0.38738039102E+03  0.69667575115E+03  0.80946986966E+02 0.  0.
    5000000    2    1    2    0    0  0.18326531020E+03  0.54328164544E+03  0.47140264243E+03  0.95447490330E+03  0.60005063915E+03 0.  0.
        -24    2    4    4    0    0  0.23521812654E+02 -0.54733875689E+02 -0.73930073063E+02  0.12562768247E+03  0.82265339488E+02 0.  0.
         24    2    4    4    0    0  0.15974349754E+03  0.59801552113E+03  0.54533271549E+03  0.82884722083E+03  0.80370370010E+02 0.  0.
         11    1    3    3    0    0 -0.11427204434E+03 -0.44155414586E+03  0.30790915715E+03  0.55030556322E+03  0.00000000000E+00 0. -1.
        -12    1    3    3    0    0 -0.68993265854E+02 -0.10172749957E+03  0.79471233870E+02  0.14637018793E+03  0.00000000000E+00 0.  1.
         15    1    5    5    0    0 -0.28554062032E+02 -0.35585391044E+02 -0.39127215530E+02  0.60131117056E+02  0.17770000000E+01 0. -1.
        -16    1    5    5    0    0  0.52075874686E+02 -0.19148484645E+02 -0.34802857533E+02  0.65496565414E+02  0.00000000000E+00 0.  1.
          2    1    6    6  502    0  0.11365309505E+03  0.47732807576E+03  0.46915690537E+03  0.67887209382E+03  0.00000000000E+00 0. -1.
         -1    1    6    6    0  502  0.46090402492E+02  0.12068744537E+03  0.76175810123E+02  0.14997512701E+03  0.00000000000E+00 0.  1.
<mgrwt>
<rscale>  0 0.65001175E+03</rscale>
<asrwt>0</asrwt>
<pdfrwt beam="1">  1        1 0.60951356E-01 0.65001175E+03</pdfrwt>
<pdfrwt beam="2">  1       -2 0.19307182E+00 0.65001175E+03</pdfrwt>
<totfact> 0.81260435E+00</totfact>
</mgrwt>
</event>
<event>
12    3  0.1182097E-007  0.1589833E+04  0.7818608E-02  0.8826819E-01
         -2   -1    0    0    0  501 -0.00000000000E+00  0.00000000000E+00  0.11677697608E+04  0.11677697608E+04  0.00000000000E+00 0.  1.
          1   -1    0    0  501    0  0.00000000000E+00 -0.00000000000E+00 -0.29057159219E+04  0.29057159219E+04  0.00000000000E+00 0. -1.
        -24    2    1    2    0    0 -0.41405743789E+03 -0.15003067445E+04 -0.18289190268E+04  0.24029570377E+04  0.83029086424E+02 0.  0.
    5000000    2    1    2    0    0  0.41405743789E+03  0.15003067445E+04  0.90972865651E+02  0.16705286450E+04  0.60002166814E+03 0.  0.
        -24    2    4    4    0    0  0.34653773396E+03  0.44401421611E+03 -0.13703646084E+03  0.58491826272E+03  0.78187961287E+02 0.  0.
         24    2    4    4    0    0  0.67519703931E+02  0.10562925284E+04  0.22800932649E+03  0.10856103823E+04  0.79049562615E+02 0.  0.
         13    1    3    3    0    0 -0.52317741275E+02 -0.26211478586E+03 -0.27695136031E+03  0.38489396331E+03  0.00000000000E+00 0. -1.
        -14    1    3    3    0    0 -0.36173969662E+03 -0.12381919586E+04 -0.15519676665E+04  0.20180630744E+04  0.00000000000E+00 0.  1.
         15    1    5    5    0    0  0.25150012153E+03  0.33193669493E+03 -0.65835475293E+02  0.42162987099E+03  0.17770000000E+01 0. -1.
        -16    1    5    5    0    0  0.95037612431E+02  0.11207752118E+03 -0.71200985550E+02  0.16328839173E+03  0.00000000000E+00 0.  1.
          2    1    6    6  502    0  0.32628754881E+02  0.27118981457E+03  0.27293512294E+02  0.27450589608E+03  0.00000000000E+00 0. -1.
         -1    1    6    6    0  502  0.34890949050E+02  0.78510271381E+03  0.20071581420E+03  0.81110448625E+03  0.00000000000E+00 0.  1.
<mgrwt>
<rscale>  0 0.15898327E+04</rscale>
<asrwt>0</asrwt>
<pdfrwt beam="1">  1        1 0.44703322E+00 0.15898327E+04</pdfrwt>
<pdfrwt beam="2">  1       -2 0.17965689E+00 0.15898327E+04</pdfrwt>
<totfact> 0.10463375E-01</totfact>
</mgrwt>
</event>
<event>
12    3  0.1182097E-007  0.2543263E+04  0.7818608E-02  0.8387733E-01
         -2   -1    0    0    0  501 -0.00000000000E+00  0.00000000000E+00  0.29492343252E+04  0.29492343252E+04  0.00000000000E+00 0.  1.
          1   -1    0    0  501    0  0.00000000000E+00 -0.00000000000E+00 -0.37858209513E+04  0.37858209513E+04  0.00000000000E+00 0. -1.
        -24    2    1    2    0    0  0.18660966465E+04  0.16786566703E+04 -0.25956986934E+04  0.36118047986E+04  0.85307007248E+02 0.  0.
    5000000    2    1    2    0    0 -0.18660966465E+04 -0.16786566703E+04  0.17591120673E+04  0.31232504779E+04  0.60001114280E+03 0.  0.
        -24    2    4    4    0    0 -0.87743692028E+03 -0.41611087876E+03  0.62713486315E+03  0.11588068605E+04  0.80569167578E+02 0.  0.
         24    2    4    4    0    0 -0.98865972622E+03 -0.12625457915E+04  0.11319772042E+04  0.19644436174E+04  0.78717249645E+02 0.  0.
         13    1    3    3    0    0  0.11865333746E+03  0.13493702378E+03 -0.17645253649E+03  0.25183747241E+03  0.00000000000E+00 0. -1.
        -14    1    3    3    0    0  0.17474433090E+04  0.15437196465E+04 -0.24192461569E+04  0.33599673262E+04  0.00000000000E+00 0.  1.
         15    1    5    5    0    0 -0.55929580676E+03 -0.26017149694E+03  0.35197325799E+03  0.71020373087E+03  0.17770000000E+01 0. -1.
        -16    1    5    5    0    0 -0.31814111352E+03 -0.15593938183E+03  0.27516160516E+03  0.44860312959E+03  0.00000000000E+00 0.  1.
          2    1    6    6  502    0 -0.89383093858E+03 -0.11225308625E+04  0.98586984369E+03  0.17409619848E+04  0.00000000000E+00 0. -1.
         -1    1    6    6    0  502 -0.94828787639E+02 -0.14001492904E+03  0.14610736046E+03  0.22348163258E+03  0.00000000000E+00 0.  1.
<mgrwt>
<rscale>  0 0.25432633E+04</rscale>
<asrwt>0</asrwt>
<pdfrwt beam="1">  1        1 0.58243399E+00 0.25432633E+04</pdfrwt>
<pdfrwt beam="2">  1       -2 0.45372836E+00 0.25432633E+04</pdfrwt>
<totfact> 0.34546552E-04</totfact>
</mgrwt>
</event>
<event>
12    3  0.1182097E-007  0.8330300E+03  0.7818608E-02  0.9513401E-01
         -2   -1    0    0    0  501 -0.00000000000E+00  0.00000000000E+00  0.17134770584E+04  0.17134770584E+04  0.00000000000E+00 0.  1.
          1   -1    0    0  501    0  0.00000000000E+00 -0.00000000000E+00 -0.58379808710E+03  0.58379808710E+03  0.00000000000E+00 0. -1.
        -24    2    1    2    0    0  0.38125461568E+03  0.62876781151E+03 -0.97061837580E+02  0.74615382506E+03  0.81366378600E+02 0.  0.
    5000000    2    1    2    0    0 -0.38125461568E+03 -0.62876781151E+03  0.12267408089E+04  0.15511213205E+04  0.60031682952E+03 0.  0.
        -24    2    4    4    0    0  0.14728158411E+02  0.91872419788E+02  0.14848999911E+03  0.19275722238E+03  0.80303217716E+02 0.  0.
         24    2    4    4    0    0 -0.39598277409E+03 -0.72064023129E+03  0.10782508098E+04  0.13583640981E+04  0.80021958321E+02 0.  0.
         11    1    3    3    0    0  0.23892601797E+03  0.31878061391E+03 -0.41122621399E+02  0.40049693114E+03  0.00000000000E+00 0. -1.
        -12    1    3    3    0    0  0.14232859772E+03  0.30998719760E+03 -0.55939216182E+02  0.34565689391E+03  0.00000000000E+00 0.  1.
         15    1    5    5    0    0 -0.14751874786E+02  0.47433712838E+02  0.19889414253E+02  0.53538037428E+02  0.17770000000E+01 0. -1.
        -16    1    5    5    0    0  0.29480033197E+02  0.44438706949E+02  0.12860058486E+03  0.13921918495E+03  0.00000000000E+00 0.  1.
          4    1    6    6  502    0 -0.21337255711E+03 -0.43515657636E+03  0.68702001528E+03  0.84076488715E+03  0.00000000000E+00 0. -1.
         -3    1    6    6    0  502 -0.18261021698E+03 -0.28548365494E+03  0.39123079449E+03  0.51759921092E+03  0.00000000000E+00 0.  1.
<mgrwt>
<rscale>  0 0.83302999E+03</rscale>
<asrwt>0</asrwt>
<pdfrwt beam="1">  1        1 0.89815091E-01 0.83302999E+03</pdfrwt>
<pdfrwt beam="2">  1       -2 0.26361185E+00 0.83302999E+03</pdfrwt>
<totfact> 0.16976748E+00</totfact>
</mgrwt>
</event>
<event>
12    3  0.1182097E-007  0.4145903E+03  0.7818608E-02  0.1038841E+00
         -2   -1    0    0    0  501 -0.00000000000E+00  0.00000000000E+00  0.16507387403E+03  0.16507387403E+03  0.00000000000E+00 0.  1.
          1   -1    0    0  501    0  0.00000000000E+00 -0.00000000000E+00 -0.15561218182E+04  0.15561218182E+04  0.00000000000E+00 0. -1.
        -24    2    1    2    0    0  0.32037641713E+03 -0.27312152561E+02 -0.41066843686E+03  0.52767011522E+03  0.80001144531E+02 0.  0.
    5000000    2    1    2    0    0 -0.32037641713E+03  0.27312152561E+02 -0.98037950727E+03  0.11935255770E+04  0.59997693480E+03 0.  0.
        -24    2    4    4    0    0  0.63437249507E+02 -0.26105894096E+02 -0.69580886732E+03  0.70373140974E+03  0.79888139817E+02 0.  0.
         24    2    4    4    0    0 -0.38381366664E+03  0.53418046657E+02 -0.28457063995E+03  0.48979416723E+03  0.93549231566E+02 0.  0.
         13    1    3    3    0    0  0.11976996317E+03  0.21347840363E+02 -0.11762982634E+03  0.16922573802E+03  0.00000000000E+00 0. -1.
        -14    1    3    3    0    0  0.20060645397E+03 -0.48659992924E+02 -0.29303861052E+03  0.35844437719E+03  0.00000000000E+00 0.  1.
         15    1    5    5    0    0  0.16039071994E+02  0.26908816320E+02 -0.29487784281E+03  0.29654246936E+03  0.17770000000E+01 0. -1.
        -16    1    5    5    0    0  0.47398177513E+02 -0.53014710417E+02 -0.40093102451E+03  0.40718894038E+03  0.00000000000E+00 0.  1.
          2    1    6    6  502    0 -0.10577512802E+03  0.57797672276E+02 -0.83041497051E+02  0.14637226124E+03  0.00000000000E+00 0. -1.
         -1    1    6    6    0  502 -0.27803853862E+03 -0.43796256189E+01 -0.20152914289E+03  0.34342190599E+03  0.00000000000E+00 0.  1.
<mgrwt>
<rscale>  0 0.41459035E+03</rscale>
<asrwt>0</asrwt>
<pdfrwt beam="1">  1        1 0.23940336E+00 0.41459035E+03</pdfrwt>
<pdfrwt beam="2">  1       -2 0.25395980E-01 0.41459035E+03</pdfrwt>
<totfact> 0.78174197E+01</totfact>
</mgrwt>
</event>
<event>
12    3  0.1182097E-007  0.6875803E+03  0.7818608E-02  0.9738710E-01
         -2   -1    0    0    0  501 -0.00000000000E+00  0.00000000000E+00  0.44467168337E+03  0.44467168337E+03  0.00000000000E+00 0.  1.
          1   -1    0    0  501    0  0.00000000000E+00 -0.00000000000E+00 -0.10875220692E+04  0.10875220692E+04  0.00000000000E+00 0. -1.
        -24    2    1    2    0    0 -0.32215421756E+03  0.45546864721E+03 -0.34243117694E+03  0.65957283721E+03  0.80883794241E+02 0.  0.
    5000000    2    1    2    0    0  0.32215421756E+03 -0.45546864721E+03 -0.30041920890E+03  0.87262091536E+03  0.59998377675E+03 0.  0.
        -24    2    4    4    0    0 -0.90889504139E+02 -0.36753823408E+03 -0.10452824993E+03  0.40030921040E+03  0.77304937914E+02 0.  0.
         24    2    4    4    0    0  0.41304372170E+03 -0.87930413131E+02 -0.19589095897E+03  0.47231170496E+03  0.79801035374E+02 0.  0.
         11    1    3    3    0    0 -0.11714161945E+03  0.20664780381E+03 -0.18328940617E+03  0.30003413179E+03  0.00000000000E+00 0. -1.
        -12    1    3    3    0    0 -0.20501259811E+03  0.24882084340E+03 -0.15914177077E+03  0.35953870542E+03  0.00000000000E+00 0.  1.
         15    1    5    5    0    0  0.28953276117E+00 -0.14850082364E+03 -0.51594435505E+02  0.15721870740E+03  0.17770000000E+01 0. -1.
        -16    1    5    5    0    0 -0.91179036901E+02 -0.21903741044E+03 -0.52933814424E+02  0.24309050300E+03  0.00000000000E+00 0.  1.
          4    1    6    6  502    0  0.35159077975E+03 -0.10263124128E+03 -0.16047945040E+03  0.39987860920E+03  0.00000000000E+00 0. -1.
         -3    1    6    6    0  502  0.61452941944E+02  0.14700828151E+02 -0.35411508568E+02  0.72433095758E+02  0.00000000000E+00 0.  1.
<mgrwt>
<rscale>  0 0.68758028E+03</rscale>
<asrwt>0</asrwt>
<pdfrwt beam="1">  1        1 0.16731109E+00 0.68758028E+03</pdfrwt>
<pdfrwt beam="2">  1       -2 0.68411029E-01 0.68758028E+03</pdfrwt>
<totfact> 0.22904691E+01</totfact>
</mgrwt>
</event>
<event>
12    3  0.1182097E-007  0.1306555E+04  0.7818608E-02  0.9024383E-01
         -2   -1    0    0    0  501 -0.00000000000E+00  0.00000000000E+00  0.56964455127E+03  0.56964455127E+03  0.00000000000E+00 0.  1.
          1   -1    0    0  501    0  0.00000000000E+00 -0.00000000000E+00 -0.32354289636E+04  0.32354289636E+04  0.00000000000E+00 0. -1.
        -24    2    1    2    0    0  0.12369527413E+04  0.69988659166E+02 -0.76533280463E+03  0.14584562555E+04  0.80061542975E+02 0.  0.
    5000000    2    1    2    0    0 -0.12369527413E+04 -0.69988659166E+02 -0.19004516077E+04  0.23466172594E+04  0.59995479164E+03 0.  0.
        -24    2    4    4    0    0 -0.91646568293E+03  0.20799289295E+03 -0.12905586711E+04  0.15987010543E+04  0.84457006391E+02 0.  0.
         24    2    4    4    0    0 -0.32048705840E+03 -0.27798155211E+03 -0.60989293664E+03  0.74791620510E+03  0.86160070629E+02 0.  0.
         13    1    3    3    0    0  0.82833579232E+03  0.97235074873E+01 -0.50262436425E+03  0.96895097037E+03  0.00000000000E+00 0. -1.
        -14    1    3    3    0    0  0.40861694901E+03  0.60265151679E+02 -0.26270844038E+03  0.48950528514E+03  0.00000000000E+00 0.  1.
         15    1    5    5    0    0 -0.84372377448E+02  0.19892746093E+01 -0.14717697222E+03  0.16966695073E+03  0.17770000000E+01 0. -1.
        -16    1    5    5    0    0 -0.83209330549E+03  0.20600361834E+03 -0.11433816988E+04  0.14290341035E+04  0.00000000000E+00 0.  1.
          2    1    6    6  502    0 -0.22771627669E+03 -0.15275844236E+03 -0.42902834795E+03  0.50917105940E+03  0.00000000000E+00 0. -1.
         -1    1    6    6    0  502 -0.92770781716E+02 -0.12522310975E+03 -0.18086458869E+03  0.23874514570E+03  0.00000000000E+00 0.  1.
<mgrwt>
<rscale>  0 0.13065552E+04</rscale>
<asrwt>0</asrwt>
<pdfrwt beam="1">  1        1 0.49775832E+00 0.13065552E+04</pdfrwt>
<pdfrwt beam="2">  1       -2 0.87637621E-01 0.13065552E+04</pdfrwt>
<totfact> 0.38780664E-01</totfact>
</mgrwt>
</event>
<event>
12    3  0.1182097E-007  0.7322698E+03  0.7818608E-02  0.9663584E-01
         -2   -1    0    0    0  501 -0.00000000000E+00  0.00000000000E+00  0.18919285795E+03  0.18919285795E+03  0.00000000000E+00 0.  1.
          1   -1    0    0  501    0  0.00000000000E+00 -0.00000000000E+00 -0.30773729744E+04  0.30773729744E+04  0.00000000000E+00 0. -1.
        -24    2    1    2    0    0 -0.59184174308E+03  0.19221953046E+03 -0.15636464533E+04  0.16849335801E+04  0.82376827133E+02 0.  0.
    5000000    2    1    2    0    0  0.59184174308E+03 -0.19221953046E+03 -0.13245336631E+04  0.15816322522E+04  0.59995513152E+03 0.  0.
        -24    2    4    4    0    0  0.68202547584E+03 -0.22879686917E+03 -0.12179306632E+04  0.14166411803E+04  0.77526617168E+02 0.  0.
         24    2    4    4    0    0 -0.90183732757E+02  0.36577338706E+02 -0.10660299990E+03  0.16499107191E+03  0.79917750596E+02 0.  0.
         13    1    3    3    0    0 -0.13358533600E+03  0.89878913572E+01 -0.35487040208E+03  0.37928726113E+03  0.00000000000E+00 0. -1.
        -14    1    3    3    0    0 -0.45825640708E+03  0.18323163910E+03 -0.12087760512E+04  0.13056463190E+04  0.00000000000E+00 0.  1.
         15    1    5    5    0    0  0.54325926543E+03 -0.14867834757E+03 -0.95634444679E+03  0.11098800562E+04  0.17770000000E+01 0. -1.
        -16    1    5    5    0    0  0.13876621041E+03 -0.80118521598E+02 -0.26158621643E+03  0.30676112413E+03  0.00000000000E+00 0.  1.
          4    1    6    6  502    0 -0.86258638845E+02  0.49972727979E+02 -0.60021830996E+02  0.11636342429E+03  0.00000000000E+00 0. -1.
         -3    1    6    6    0  502 -0.39250939119E+01 -0.13395389273E+02 -0.46581168902E+02  0.48627647612E+02  0.00000000000E+00 0.  1.
<mgrwt>
<rscale>  0 0.73226981E+03</rscale>
<asrwt>0</asrwt>
<pdfrwt beam="1">  1        1 0.47344196E+00 0.73226981E+03</pdfrwt>
<pdfrwt beam="2">  1       -2 0.29106595E-01 0.73226981E+03</pdfrwt>
<totfact> 0.53441329E+00</totfact>
</mgrwt>
</event>
<event>
12    3  0.1182097E-007  0.1050634E+04  0.7818608E-02  0.9254690E-01
          1   -1    0    0  501    0  0.00000000000E+00  0.00000000000E+00  0.87386812400E+03  0.87386812400E+03  0.00000000000E+00 0. -1.
         -2   -1    0    0    0  501 -0.00000000000E+00 -0.00000000000E+00 -0.16631732705E+04  0.16631732705E+04  0.00000000000E+00 0.  1.
        -24    2    1    2    0    0  0.80093751627E+03 -0.54103737430E+03  0.24401501745E+03  0.10000932841E+04  0.80130536257E+02 0.  0.
    5000000    2    1    2    0    0 -0.80093751627E+03  0.54103737430E+03 -0.10333201640E+04  0.15369481104E+04  0.60019712382E+03 0.  0.
        -24    2    4    4    0    0 -0.14677820257E+03 -0.11607446302E+03 -0.23337013385E+03  0.31010431542E+03  0.81767630250E+02 0.  0.
         24    2    4    4    0    0 -0.65415931371E+03  0.65711183732E+03 -0.79995003014E+03  0.12268437950E+04  0.74197521043E+02 0.  0.
         11    1    3    3    0    0  0.33900574114E+03 -0.27476276653E+03  0.12250800525E+03  0.45324130631E+03  0.00000000000E+00 0. -1.
        -12    1    3    3    0    0  0.46193177513E+03 -0.26627460777E+03  0.12150701220E+03  0.54685197781E+03  0.00000000000E+00 0.  1.
         15    1    5    5    0    0 -0.77448873847E+02 -0.10897210084E+03 -0.13994436052E+03  0.19354800074E+03  0.17770000000E+01 0. -1.
        -16    1    5    5    0    0 -0.69329328718E+02 -0.71023621814E+01 -0.93425773333E+02  0.11655631468E+03  0.00000000000E+00 0.  1.
          2    1    6    6  502    0 -0.28984596412E+03  0.32324375222E+03 -0.33559399638E+03  0.54874450947E+03  0.00000000000E+00 0. -1.
         -1    1    6    6    0  502 -0.36431334959E+03  0.33386808510E+03 -0.46435603376E+03  0.67809928552E+03  0.00000000000E+00 0.  1.
<mgrwt>
<rscale>  0 0.10506342E+04</rscale>
<asrwt>0</asrwt>
<pdfrwt beam="1">  1        1 0.13444125E+00 0.10506342E+04</pdfrwt>
<pdfrwt beam="2">  1       -2 0.25587281E+00 0.10506342E+04</pdfrwt>
<totfact> 0.98709225E-01</totfact>
</mgrwt>
</event>
<event>
12    3  0.1182097E-007  0.7241331E+03  0.7818608E-02  0.9676829E-01
         -2   -1    0    0    0  501 -0.00000000000E+00  0.00000000000E+00  0.10648694577E+04  0.10648694577E+04  0.00000000000E+00 0.  1.
          1   -1    0    0  501    0  0.00000000000E+00 -0.00000000000E+00 -0.69460151953E+03  0.69460151953E+03  0.00000000000E+00 0. -1.
        -24    2    1    2    0    0 -0.34889735259E+03  0.50461064603E+03  0.60955511608E+03  0.86849517012E+03  0.79781916823E+02 0.  0.
    5000000    2    1    2    0    0  0.34889735259E+03 -0.50461064603E+03 -0.23928717792E+03  0.89097580710E+03  0.60018186293E+03 0.  0.
        -24    2    4    4    0    0  0.44216185139E+03 -0.15510187750E+03 -0.20917629430E+03  0.51920762050E+03  0.79108380429E+02 0.  0.
         24    2    4    4    0    0 -0.93264498796E+02 -0.34950876852E+03 -0.30110883619E+02  0.37176818661E+03  0.80313593178E+02 0.  0.
         13    1    3    3    0    0 -0.11138352749E+03  0.12865998621E+03  0.21331951903E+03  0.27288257447E+03  0.00000000000E+00 0. -1.
        -14    1    3    3    0    0 -0.23751382510E+03  0.37595065982E+03  0.39623559705E+03  0.59561259565E+03  0.00000000000E+00 0.  1.
         15    1    5    5    0    0  0.44043203893E+03 -0.15227347779E+03 -0.19588886241E+03  0.50551280607E+03  0.17770000000E+01 0. -1.
        -16    1    5    5    0    0  0.17298124625E+01 -0.28283997148E+01 -0.13287431885E+02  0.13694814428E+02  0.00000000000E+00 0.  1.
          4    1    6    6  502    0 -0.94910779206E+02 -0.30273891483E+03 -0.49510570522E+02  0.32110777499E+03  0.00000000000E+00 0. -1.
         -3    1    6    6    0  502  0.16462804102E+01 -0.46769853691E+02  0.19399686903E+02  0.50660411619E+02  0.00000000000E+00 0.  1.
<mgrwt>
<rscale>  0 0.72413312E+03</rscale>
<asrwt>0</asrwt>
<pdfrwt beam="1">  1        1 0.10686177E+00 0.72413312E+03</pdfrwt>
<pdfrwt beam="2">  1       -2 0.16382607E+00 0.72413312E+03</pdfrwt>
<totfact> 0.58504531E+00</totfact>
</mgrwt>
</event>
<event>
12    3  0.1182097E-007  0.4475918E+03  0.7818608E-02  0.1028443E+00
         -4   -1    0    0    0  501 -0.00000000000E+00  0.00000000000E+00  0.16008178419E+03  0.16008178419E+03  0.00000000000E+00 0.  1.
          3   -1    0    0  501    0  0.00000000000E+00 -0.00000000000E+00 -0.15872510244E+04  0.15872510244E+04  0.00000000000E+00 0. -1.
        -24    2    1    2    0    0  0.29611295111E+03 -0.79096213195E+02 -0.61942503218E+03  0.69553012289E+03  0.78330649131E+02 0.  0.
    5000000    2    1    2    0    0 -0.29611295111E+03  0.79096213195E+02 -0.80774420807E+03  0.10518026858E+04  0.59991590522E+03 0.  0.
        -24    2    4    4    0    0 -0.41110967876E+03 -0.45611196276E+02 -0.32029008164E+03  0.52896560001E+03  0.78277202315E+02 0.  0.
         24    2    4    4    0    0  0.11499672766E+03  0.12470740947E+03 -0.48745412643E+03  0.52283708574E+03  0.83491960734E+02 0.  0.
         11    1    3    3    0    0  0.16743836133E+03 -0.16193079551E+02 -0.39458026428E+03  0.42894219381E+03  0.00000000000E+00 0. -1.
        -12    1    3    3    0    0  0.12867458978E+03 -0.62903133644E+02 -0.22484476790E+03  0.26658792908E+03  0.00000000000E+00 0.  1.
         15    1    5    5    0    0 -0.23241633044E+03 -0.29536182368E+02 -0.22917214440E+03  0.32773886895E+03  0.17770000000E+01 0. -1.
        -16    1    5    5    0    0 -0.17869334832E+03 -0.16075013907E+02 -0.91117937244E+02  0.20122673106E+03  0.00000000000E+00 0.  1.
          4    1    6    6  502    0  0.61462722931E+02  0.58115414326E+02 -0.35706145940E+03  0.36694407405E+03  0.00000000000E+00 0. -1.
         -3    1    6    6    0  502  0.53534004724E+02  0.66591995145E+02 -0.13039266702E+03  0.15589301168E+03  0.00000000000E+00 0.  1.
<mgrwt>
<rscale>  0 0.44759184E+03</rscale>
<asrwt>0</asrwt>
<pdfrwt beam="1">  1        3 0.24419248E+00 0.44759184E+03</pdfrwt>
<pdfrwt beam="2">  1       -4 0.24627965E-01 0.44759184E+03</pdfrwt>
<totfact> 0.29045597E+00</totfact>
</mgrwt>
</event>
<event>
12    3  0.1182097E-007  0.9243327E+03  0.7818608E-02  0.9395665E-01
         -2   -1    0    0    0  501 -0.00000000000E+00  0.00000000000E+00  0.50277476507E+03  0.50277476507E+03  0.00000000000E+00 0.  1.
          1   -1    0    0  501    0  0.00000000000E+00 -0.00000000000E+00 -0.27178400140E+04  0.27178400140E+04  0.00000000000E+00 0. -1.
        -24    2    1    2    0    0  0.69120885705E+03  0.51109893071E+03 -0.19599434957E+04  0.21415835459E+04  0.77522748365E+02 0.  0.
    5000000    2    1    2    0    0 -0.69120885705E+03 -0.51109893071E+03 -0.25512175326E+03  0.10790312332E+04  0.60019121309E+03 0.  0.
        -24    2    4    4    0    0 -0.15585419465E+03  0.80558406059E+02 -0.19614446856E+03  0.27491747327E+03  0.79541044663E+02 0.  0.
         24    2    4    4    0    0 -0.53535466240E+03 -0.59165733677E+03 -0.58977284696E+02  0.80411375996E+03  0.80359194495E+02 0.  0.
         11    1    3    3    0    0  0.54806396032E+03  0.38690395196E+03 -0.14538425002E+04  0.16011641978E+04  0.00000000000E+00 0. -1.
        -12    1    3    3    0    0  0.14314489673E+03  0.12419497875E+03 -0.50610099545E+03  0.54041934810E+03  0.00000000000E+00 0.  1.
         15    1    5    5    0    0 -0.11668641216E+03  0.26657054582E+02 -0.90702901516E+02  0.15018818667E+03  0.17770000000E+01 0. -1.
        -16    1    5    5    0    0 -0.39167782493E+02  0.53901351477E+02 -0.10544156705E+03  0.12472928661E+03  0.00000000000E+00 0.  1.
          2    1    6    6  502    0 -0.13987882310E+03 -0.10524112465E+03 -0.13508969073E+02  0.17556842459E+03  0.00000000000E+00 0. -1.
         -1    1    6    6    0  502 -0.39547583930E+03 -0.48641621212E+03 -0.45468315622E+02  0.62854533537E+03  0.00000000000E+00 0.  1.
<mgrwt>
<rscale>  0 0.92433274E+03</rscale>
<asrwt>0</asrwt>
<pdfrwt beam="1">  1        1 0.41812923E+00 0.92433274E+03</pdfrwt>
<pdfrwt beam="2">  1       -2 0.77349964E-01 0.92433274E+03</pdfrwt>
<totfact> 0.12860731E+00</totfact>
</mgrwt>
</event>
<event>
12    3  0.1182097E-007  0.4878977E+03  0.7818608E-02  0.1016987E+00
          1   -1    0    0  501    0  0.00000000000E+00  0.00000000000E+00  0.12315110959E+04  0.12315110959E+04  0.00000000000E+00 0. -1.
         -2   -1    0    0    0  501 -0.00000000000E+00 -0.00000000000E+00 -0.88068062999E+03  0.88068062999E+03  0.00000000000E+00 0.  1.
        -24    2    1    2    0    0  0.43030493727E+03  0.17624528192E+03  0.10047458671E+04  0.11100582816E+04  0.80562973632E+02 0.  0.
    5000000    2    1    2    0    0 -0.43030493727E+03 -0.17624528192E+03 -0.65391540117E+03  0.10021334443E+04  0.60036767886E+03 0.  0.
        -24    2    4    4    0    0 -0.66698490746E+02 -0.41579019831E+02 -0.59084199359E+03  0.60136937066E+03  0.79833295186E+02 0.  0.
         24    2    4    4    0    0 -0.36360644653E+03 -0.13466626209E+03 -0.63073407580E+02  0.40076407362E+03  0.79302823782E+02 0.  0.
         11    1    3    3    0    0  0.20867404884E+03  0.49846612173E+02  0.51319055111E+03  0.55623204254E+03  0.00000000000E+00 0. -1.
        -12    1    3    3    0    0  0.22163088843E+03  0.12639866975E+03  0.49155531596E+03  0.55382623906E+03  0.00000000000E+00 0.  1.
         15    1    5    5    0    0 -0.50030721956E+02 -0.64996868292E+02 -0.47372525964E+03  0.48077691852E+03  0.17770000000E+01 0. -1.
        -16    1    5    5    0    0 -0.16667768790E+02  0.23417848462E+02 -0.11711673395E+03  0.12059245214E+03  0.00000000000E+00 0.  1.
          4    1    6    6  502    0 -0.80434930276E+02 -0.65746172711E+02 -0.82387851006E+01  0.10421235442E+03  0.00000000000E+00 0. -1.
         -1    1    6    6    0  502 -0.28317151625E+03 -0.68920089380E+02 -0.54834622480E+02  0.29655171920E+03  0.00000000000E+00 0.  1.
<mgrwt>
<rscale>  0 0.48789773E+03</rscale>
<asrwt>0</asrwt>
<pdfrwt beam="1">  1        1 0.18946325E+00 0.48789773E+03</pdfrwt>
<pdfrwt beam="2">  1       -2 0.13548933E+00 0.48789773E+03</pdfrwt>
<totfact> 0.37515851E+00</totfact>
</mgrwt>
</event>
<event>
12    3  0.1182097E-007  0.4418789E+03  0.7818608E-02  0.1030172E+00
          1   -1    0    0  501    0  0.00000000000E+00  0.00000000000E+00  0.13940082525E+04  0.13940082525E+04  0.00000000000E+00 0. -1.
         -2   -1    0    0    0  501 -0.00000000000E+00 -0.00000000000E+00 -0.17822318472E+03  0.17822318472E+03  0.00000000000E+00 0.  1.
        -24    2    1    2    0    0  0.26354494581E+03 -0.51932417415E+02  0.14571837958E+03  0.31637325344E+03  0.81885743014E+02 0.  0.
    5000000    2    1    2    0    0 -0.26354494581E+03  0.51932417415E+02  0.10700666882E+04  0.12558581837E+04  0.59998678826E+03 0.  0.
        -24    2    4    4    0    0 -0.23768464510E+02  0.26894276385E+03  0.71535655810E+03  0.76905342238E+03  0.82540966365E+02 0.  0.
         24    2    4    4    0    0 -0.23977648130E+03 -0.21701034643E+03  0.35471013007E+03  0.48680476136E+03  0.81076185532E+02 0.  0.
         11    1    3    3    0    0  0.70992021465E+02 -0.51675927972E+02  0.37368042580E+02  0.95428712921E+02  0.00000000000E+00 0. -1.
        -12    1    3    3    0    0  0.19255292434E+03 -0.25648944325E+00  0.10835033700E+03  0.22094454052E+03  0.00000000000E+00 0.  1.
         15    1    5    5    0    0 -0.23283472434E+02  0.26162089778E+03  0.61905817116E+03  0.67247586667E+03  0.17770000000E+01 0. -1.
        -16    1    5    5    0    0 -0.48499207519E+00  0.73218660682E+01  0.96298386942E+02  0.96577555714E+02  0.00000000000E+00 0.  1.
          2    1    6    6  502    0 -0.16771945779E+03 -0.97939771361E+02  0.20494292921E+03  0.28235371357E+03  0.00000000000E+00 0. -1.
         -1    1    6    6    0  502 -0.72057023505E+02 -0.11907057507E+03  0.14976720086E+03  0.20445104778E+03  0.00000000000E+00 0.  1.
<mgrwt>
<rscale>  0 0.44187893E+03</rscale>
<asrwt>0</asrwt>
<pdfrwt beam="1">  1        1 0.21446280E+00 0.44187893E+03</pdfrwt>
<pdfrwt beam="2">  1       -2 0.27418952E-01 0.44187893E+03</pdfrwt>
<totfact> 0.87257008E+01</totfact>
</mgrwt>
</event>
<event>
12    3  0.1182097E-007  0.1348995E+04  0.7818608E-02  0.8991589E-01
         -2   -1    0    0    0  501 -0.00000000000E+00  0.00000000000E+00  0.54537934146E+03  0.54537934146E+03  0.00000000000E+00 0.  1.
          1   -1    0    0  501    0  0.00000000000E+00 -0.00000000000E+00 -0.35201850805E+04  0.35201850805E+04  0.00000000000E+00 0. -1.
        -24    2    1    2    0    0 -0.50284163233E+03  0.12193495732E+04 -0.13689595535E+04  0.19026340498E+04  0.79391305931E+02 0.  0.
    5000000    2    1    2    0    0  0.50284163233E+03 -0.12193495732E+04 -0.16058461856E+04  0.21629303722E+04  0.59988560122E+03 0.  0.
        -24    2    4    4    0    0  0.54619276481E+03 -0.87280280880E+03 -0.14316408643E+04  0.17652498431E+04  0.80001029476E+02 0.  0.
         24    2    4    4    0    0 -0.43351132485E+02 -0.34654676437E+03 -0.17420532122E+03  0.39768052911E+03  0.76343491612E+02 0.  0.
         13    1    3    3    0    0 -0.34361994945E+03  0.81018179497E+03 -0.86015491242E+03  0.12305834730E+04  0.00000000000E+00 0. -1.
        -14    1    3    3    0    0 -0.15922168288E+03  0.40916777820E+03 -0.50880464108E+03  0.67205057681E+03  0.00000000000E+00 0.  1.
         15    1    5    5    0    0  0.24111229918E+03 -0.37883307269E+03 -0.69244936668E+03  0.82531140846E+03  0.17770000000E+01 0. -1.
        -16    1    5    5    0    0  0.30508046563E+03 -0.49396973611E+03 -0.73919149765E+03  0.93993843463E+03  0.00000000000E+00 0.  1.
          2    1    6    6  502    0 -0.54755149119E+01 -0.39446091064E+02  0.49496027582E+01  0.40130710575E+02  0.00000000000E+00 0. -1.
         -1    1    6    6    0  502 -0.37875617573E+02 -0.30710067330E+03 -0.17915492397E+03  0.35754981853E+03  0.00000000000E+00 0.  1.
<mgrwt>
<rscale>  0 0.13489952E+04</rscale>
<asrwt>0</asrwt>
<pdfrwt beam="1">  1        1 0.54156693E+00 0.13489952E+04</pdfrwt>
<pdfrwt beam="2">  1       -2 0.83904515E-01 0.13489952E+04</pdfrwt>
<totfact> 0.25791735E-01</totfact>
</mgrwt>
</event>
<event>
12    3  0.1182097E-007  0.9762959E+03  0.7818608E-02  0.9334932E-01
         -2   -1    0    0    0  501 -0.00000000000E+00  0.00000000000E+00  0.13600240638E+04  0.13600240638E+04  0.00000000000E+00 0.  1.
          1   -1    0    0  501    0  0.00000000000E+00 -0.00000000000E+00 -0.75833755011E+03  0.75833755011E+03  0.00000000000E+00 0. -1.
        -24    2    1    2    0    0 -0.11587355118E+03  0.90499999555E+03  0.43437353509E+03  0.10135980850E+04  0.79050857931E+02 0.  0.
    5000000    2    1    2    0    0  0.11587355118E+03 -0.90499999555E+03  0.16731297862E+03  0.11047635289E+04  0.60004762327E+03 0.  0.
        -24    2    4    4    0    0  0.23299384042E+03 -0.19088167014E+03 -0.10303038827E+03  0.32806278577E+03  0.79296839958E+02 0.  0.
         24    2    4    4    0    0 -0.11712028924E+03 -0.71411832541E+03  0.27034336689E+03  0.77670074315E+03  0.80600022004E+02 0.  0.
         11    1    3    3    0    0 -0.21095152976E+02  0.31582488571E+03  0.18673793821E+03  0.36750703596E+03  0.00000000000E+00 0. -1.
        -12    1    3    3    0    0 -0.94778398204E+02  0.58917510984E+03  0.24763559688E+03  0.64609104905E+03  0.00000000000E+00 0.  1.
         15    1    5    5    0    0  0.23430445627E+03 -0.16745800910E+03 -0.94829232406E+02  0.30321032978E+03  0.17770000000E+01 0. -1.
        -16    1    5    5    0    0 -0.13106158555E+01 -0.23423661047E+02 -0.82011558678E+01  0.24852455982E+02  0.00000000000E+00 0.  1.
          4    1    6    6  502    0 -0.47189610240E+02 -0.50816484354E+03  0.19938081618E+03  0.54791521003E+03  0.00000000000E+00 0. -1.
         -3    1    6    6    0  502 -0.69930678997E+02 -0.20595348187E+03  0.70962550713E+02  0.22878553312E+03  0.00000000000E+00 0.  1.
<mgrwt>
<rscale>  0 0.97629589E+03</rscale>
<asrwt>0</asrwt>
<pdfrwt beam="1">  1        1 0.11666732E+00 0.97629589E+03</pdfrwt>
<pdfrwt beam="2">  1       -2 0.20923447E+00 0.97629589E+03</pdfrwt>
<totfact> 0.24436755E+00</totfact>
</mgrwt>
</event>
<event>
12    3  0.1182097E-007  0.1430196E+04  0.7818608E-02  0.8932246E-01
         -2   -1    0    0    0  501 -0.00000000000E+00  0.00000000000E+00  0.12077590806E+04  0.12077590806E+04  0.00000000000E+00 0.  1.
          1   -1    0    0  501    0  0.00000000000E+00 -0.00000000000E+00 -0.22327477373E+04  0.22327477373E+04  0.00000000000E+00 0. -1.
        -24    2    1    2    0    0 -0.11374742688E+04  0.85797620817E+03 -0.12263024496E+04  0.18814922354E+04  0.78895169638E+02 0.  0.
    5000000    2    1    2    0    0  0.11374742688E+04 -0.85797620817E+03  0.20131379297E+03  0.15590145825E+04  0.60002361559E+03 0.  0.
        -24    2    4    4    0    0  0.65118406478E+03 -0.39536451927E+03 -0.17415933387E+03  0.78576197671E+03  0.82076922112E+02 0.  0.
         24    2    4    4    0    0  0.48629020405E+03 -0.46261168890E+03  0.37547312684E+03  0.77325260583E+03  0.80323011490E+02 0.  0.
         13    1    3    3    0    0 -0.34708337626E+03  0.24295041562E+03 -0.32196039419E+03  0.53211866153E+03  0.00000000000E+00 0. -1.
        -14    1    3    3    0    0 -0.79039089257E+03  0.61502579256E+03 -0.90434205539E+03  0.13493735738E+04  0.00000000000E+00 0.  1.
         15    1    5    5    0    0  0.56021907970E+02 -0.29226628195E+02  0.78021570578E+01  0.63692082334E+02  0.17770000000E+01 0. -1.
        -16    1    5    5    0    0  0.59516215681E+03 -0.36613789108E+03 -0.18196149093E+03  0.72206989438E+03  0.00000000000E+00 0.  1.
          4    1    6    6  502    0  0.11074183589E+02 -0.16277755042E+01 -0.16417442962E+01  0.11312935941E+02  0.00000000000E+00 0. -1.
         -3    1    6    6    0  502  0.47521602046E+03 -0.46098391340E+03  0.37711487113E+03  0.76193966989E+03  0.00000000000E+00 0.  1.
<mgrwt>
<rscale>  0 0.14301965E+04</rscale>
<asrwt>0</asrwt>
<pdfrwt beam="1">  1        1 0.34349965E+00 0.14301965E+04</pdfrwt>
<pdfrwt beam="2">  1       -2 0.18580909E+00 0.14301965E+04</pdfrwt>
<totfact> 0.28520879E-01</totfact>
</mgrwt>
</event>
<event>
12    3  0.1182097E-007  0.5137797E+03  0.7818608E-02  0.1010244E+00
         -2   -1    0    0    0  501 -0.00000000000E+00  0.00000000000E+00  0.19031284945E+03  0.19031284945E+03  0.00000000000E+00 0.  1.
          1   -1    0    0  501    0  0.00000000000E+00 -0.00000000000E+00 -0.19066684315E+04  0.19066684315E+04  0.00000000000E+00 0. -1.
        -24    2    1    2    0    0 -0.13483071846E+03 -0.32768381407E+03 -0.17078934864E+03  0.40157955231E+03  0.80877256273E+02 0.  0.
    5000000    2    1    2    0    0  0.13483071846E+03  0.32768381407E+03 -0.15455662334E+04  0.16954017286E+04  0.60004669399E+03 0.  0.
        -24    2    4    4    0    0 -0.13493680318E+03  0.35374582596E+03 -0.66713583208E+03  0.77122704829E+03  0.79855440198E+02 0.  0.
         24    2    4    4    0    0  0.26976752164E+03 -0.26062011892E+02 -0.87843040132E+03  0.92417468034E+03  0.94895340365E+02 0.  0.
         11    1    3    3    0    0 -0.46763389781E+02 -0.14448260610E+03 -0.11588012809E+03  0.19102419264E+03  0.00000000000E+00 0. -1.
        -12    1    3    3    0    0 -0.88067328675E+02 -0.18320120797E+03 -0.54909220541E+02  0.21055535966E+03  0.00000000000E+00 0.  1.
         15    1    5    5    0    0 -0.13929094532E+03  0.28397492155E+03 -0.52733036508E+03  0.61491803940E+03  0.17770000000E+01 0. -1.
        -16    1    5    5    0    0  0.43541421386E+01  0.69770904414E+02 -0.13980546700E+03  0.15630900888E+03  0.00000000000E+00 0.  1.
          4    1    6    6  502    0  0.74430982415E+02 -0.49638956059E+02 -0.31025000717E+03  0.32289172186E+03  0.00000000000E+00 0. -1.
         -3    1    6    6    0  502  0.19533653922E+03  0.23576944167E+02 -0.56818039416E+03  0.60128295848E+03  0.00000000000E+00 0.  1.
<mgrwt>
<rscale>  0 0.51377968E+03</rscale>
<asrwt>0</asrwt>
<pdfrwt beam="1">  1        1 0.29333360E+00 0.51377968E+03</pdfrwt>
<pdfrwt beam="2">  1       -2 0.29278900E-01 0.51377968E+03</pdfrwt>
<totfact> 0.34735015E+01</totfact>
</mgrwt>
</event>
<event>
12    3  0.1182097E-007  0.8699722E+03  0.7818608E-02  0.9463916E-01
         -2   -1    0    0    0  501 -0.00000000000E+00  0.00000000000E+00  0.23318237285E+04  0.23318237285E+04  0.00000000000E+00 0.  1.
          1   -1    0    0  501    0  0.00000000000E+00 -0.00000000000E+00 -0.88948589680E+03  0.88948589680E+03  0.00000000000E+00 0. -1.
        -24    2    1    2    0    0  0.66590259010E+03 -0.54226759249E+03 -0.51139112368E+03  0.10044087193E+04  0.99174557080E+02 0.  0.
    5000000    2    1    2    0    0 -0.66590259010E+03  0.54226759249E+03  0.19537289554E+04  0.22169009059E+04  0.60009365464E+03 0.  0.
        -24    2    4    4    0    0 -0.56741773106E+03  0.43092424704E+03  0.19130082725E+04  0.20429279408E+04  0.79343131513E+02 0.  0.
         24    2    4    4    0    0 -0.98484859040E+02  0.11134334545E+03  0.40720682891E+02  0.17397296514E+03  0.80695790156E+02 0.  0.
         13    1    3    3    0    0  0.48185617028E+03 -0.36986577031E+03 -0.40861885687E+03  0.73208976708E+03  0.00000000000E+00 0. -1.
        -14    1    3    3    0    0  0.18404641982E+03 -0.17240182218E+03 -0.10277226681E+03  0.27231895227E+03  0.00000000000E+00 0.  1.
         15    1    5    5    0    0 -0.45524901257E+03  0.35090790858E+03  0.14472416873E+04  0.15572089400E+04  0.17770000000E+01 0. -1.
        -16    1    5    5    0    0 -0.11216871848E+03  0.80016338455E+02  0.46576658524E+03  0.48571900081E+03  0.00000000000E+00 0.  1.
          2    1    6    6  502    0 -0.41451921500E+02  0.10179789824E+03  0.15952226203E+02  0.11106550951E+03  0.00000000000E+00 0. -1.
         -1    1    6    6    0  502 -0.57032937541E+02  0.95454472055E+01  0.24768456688E+02  0.62907455628E+02  0.00000000000E+00 0.  1.
<mgrwt>
<rscale>  0 0.86997224E+03</rscale>
<asrwt>0</asrwt>
<pdfrwt beam="1">  1        1 0.13684398E+00 0.86997224E+03</pdfrwt>
<pdfrwt beam="2">  1       -2 0.35874211E+00 0.86997224E+03</pdfrwt>
<totfact> 0.23198339E-01</totfact>
</mgrwt>
</event>
<event>
12    3  0.1182097E-007  0.9665581E+03  0.7818608E-02  0.9346003E-01
          1   -1    0    0  501    0  0.00000000000E+00  0.00000000000E+00  0.27844312150E+04  0.27844312150E+04  0.00000000000E+00 0. -1.
         -2   -1    0    0    0  501 -0.00000000000E+00 -0.00000000000E+00 -0.37973349370E+03  0.37973349370E+03  0.00000000000E+00 0.  1.
        -24    2    1    2    0    0  0.14168673393E+02 -0.90020142899E+03  0.69206940492E+03  0.11384202467E+04  0.80481258134E+02 0.  0.
    5000000    2    1    2    0    0 -0.14168673393E+02  0.90020142899E+03  0.17126283164E+04  0.20257444619E+04  0.59998459233E+03 0.  0.
        -24    2    4    4    0    0  0.21893504925E+03  0.64224005511E+03  0.13723595032E+04  0.15328870859E+04  0.77248740671E+02 0.  0.
         24    2    4    4    0    0 -0.23310372264E+03  0.25796137388E+03  0.34026881319E+03  0.49285737606E+03  0.79019693654E+02 0.  0.
         11    1    3    3    0    0  0.44661611755E+02 -0.55306877773E+03  0.44458222660E+03  0.71100850112E+03  0.00000000000E+00 0. -1.
        -12    1    3    3    0    0 -0.30492938362E+02 -0.34713265126E+03  0.24748717833E+03  0.42741174562E+03  0.00000000000E+00 0.  1.
         15    1    5    5    0    0  0.21891909041E+03  0.58277108409E+03  0.12735630774E+04  0.14175731990E+04  0.17770000000E+01 0. -1.
        -16    1    5    5    0    0  0.15958838132E-01  0.59468971018E+02  0.98796425791E+02  0.11531388693E+03  0.00000000000E+00 0.  1.
          2    1    6    6  502    0 -0.11644572161E+03  0.12287489333E+03  0.11153854122E+03  0.20272812255E+03  0.00000000000E+00 0. -1.
         -1    1    6    6    0  502 -0.11665800103E+03  0.13508648054E+03  0.22873027196E+03  0.29012925351E+03  0.00000000000E+00 0.  1.
<mgrwt>
<rscale>  0 0.96655805E+03</rscale>
<asrwt>0</asrwt>
<pdfrwt beam="1">  1        1 0.42837402E+00 0.96655805E+03</pdfrwt>
<pdfrwt beam="2">  1       -2 0.58420539E-01 0.96655805E+03</pdfrwt>
<totfact> 0.21109728E+00</totfact>
</mgrwt>
</event>
<event>
12    3  0.1182097E-007  0.3805160E+03  0.7818608E-02  0.1050743E+00
         -2   -1    0    0    0  501 -0.00000000000E+00  0.00000000000E+00  0.78445944697E+03  0.78445944697E+03  0.00000000000E+00 0.  1.
          1   -1    0    0  501    0  0.00000000000E+00 -0.00000000000E+00 -0.42887534301E+03  0.42887534301E+03  0.00000000000E+00 0. -1.
        -24    2    1    2    0    0 -0.17189640086E+03 -0.13943956234E+03 -0.24288549608E+03  0.33746768959E+03  0.76806986295E+02 0.  0.
    5000000    2    1    2    0    0  0.17189640086E+03  0.13943956234E+03  0.59846960004E+03  0.87586710039E+03  0.59998795921E+03 0.  0.
        -24    2    4    4    0    0  0.29509113163E+03  0.22852899989E+03  0.59115909581E+03  0.70372765422E+03  0.80369490446E+02 0.  0.
         24    2    4    4    0    0 -0.12319473077E+03 -0.89089437551E+02  0.73105042337E+01  0.17213944617E+03  0.80403208159E+02 0.  0.
         11    1    3    3    0    0 -0.84415193600E+02 -0.48079073523E+02 -0.15682698682E+03  0.18447825350E+03  0.00000000000E+00 0. -1.
        -12    1    3    3    0    0 -0.87481207256E+02 -0.91360488815E+02 -0.86058509256E+02  0.15298943609E+03  0.00000000000E+00 0.  1.
         15    1    5    5    0    0  0.39389500889E+02  0.47534312567E+02  0.15387210450E+03  0.16580357633E+03  0.17770000000E+01 0. -1.
        -16    1    5    5    0    0  0.25570163074E+03  0.18099468732E+03  0.43728699131E+03  0.53792407789E+03  0.00000000000E+00 0.  1.
          4    1    6    6  502    0 -0.26867807384E+02  0.54224056885E+01  0.23652725567E+02  0.36204046512E+02  0.00000000000E+00 0. -1.
         -3    1    6    6    0  502 -0.96326923389E+02 -0.94511843240E+02 -0.16342221334E+02  0.13593539966E+03  0.00000000000E+00 0.  1.
<mgrwt>
<rscale>  0 0.38051597E+03</rscale>
<asrwt>0</asrwt>
<pdfrwt beam="1">  1        1 0.65980822E-01 0.38051597E+03</pdfrwt>
<pdfrwt beam="2">  1       -2 0.12068607E+00 0.38051597E+03</pdfrwt>
<totfact> 0.26467174E+01</totfact>
</mgrwt>
</event>
<event>
12    3  0.1182097E-007  0.2209258E+04  0.7818608E-02  0.8514585E-01
         -2   -1    0    0    0  501 -0.00000000000E+00  0.00000000000E+00  0.22529473360E+04  0.22529473360E+04  0.00000000000E+00 0.  1.
          1   -1    0    0  501    0  0.00000000000E+00 -0.00000000000E+00 -0.24745490332E+04  0.24745490332E+04  0.00000000000E+00 0. -1.
        -24    2    1    2    0    0 -0.39386268284E+03  0.21589667415E+04  0.65133106539E+03  0.22906405896E+04  0.80851405757E+02 0.  0.
    5000000    2    1    2    0    0  0.39386268284E+03 -0.21589667415E+04 -0.87293276261E+03  0.24368557796E+04  0.59999106553E+03 0.  0.
        -24    2    4    4    0    0  0.26244929944E+03 -0.56390311803E+03 -0.34183398462E+02  0.62807752247E+03  0.80290150093E+02 0.  0.
         24    2    4    4    0    0  0.13141338340E+03 -0.15950636235E+04 -0.83874936415E+03  0.18087782572E+04  0.81736450679E+02 0.  0.
         11    1    3    3    0    0 -0.35739236249E+03  0.18660458144E+04  0.58645367335E+03  0.19884124807E+04  0.00000000000E+00 0. -1.
        -12    1    3    3    0    0 -0.36470320347E+02  0.29292092713E+03  0.64877392046E+02  0.30222810891E+03  0.00000000000E+00 0.  1.
         15    1    5    5    0    0  0.18410173080E+03 -0.42266574743E+03 -0.58587532502E+02  0.46473157632E+03  0.17770000000E+01 0. -1.
        -16    1    5    5    0    0  0.78347568642E+02 -0.14123737060E+03  0.24404134041E+02  0.16334594615E+03  0.00000000000E+00 0.  1.
          4    1    6    6  502    0  0.76935285068E+02 -0.72580726065E+03 -0.34078416517E+03  0.80551167895E+03  0.00000000000E+00 0. -1.
         -3    1    6    6    0  502  0.54478098335E+02 -0.86925636286E+03 -0.49796519899E+03  0.10032665782E+04  0.00000000000E+00 0.  1.
<mgrwt>
<rscale>  0 0.22092582E+04</rscale>
<asrwt>0</asrwt>
<pdfrwt beam="1">  1        1 0.38069985E+00 0.22092582E+04</pdfrwt>
<pdfrwt beam="2">  1       -2 0.34660728E+00 0.22092582E+04</pdfrwt>
<totfact> 0.17509530E-02</totfact>
</mgrwt>
</event>
<event>
12    3  0.1182097E-007  0.1235416E+04  0.7818608E-02  0.9082410E-01
          1   -1    0    0  501    0  0.00000000000E+00  0.00000000000E+00  0.17353169727E+04  0.17353169727E+04  0.00000000000E+00 0. -1.
         -2   -1    0    0    0  501 -0.00000000000E+00 -0.00000000000E+00 -0.89435527860E+03  0.89435527860E+03  0.00000000000E+00 0.  1.
        -24    2    1    2    0    0  0.11535017643E+04  0.19824841998E+03  0.32898218434E+03  0.12183059302E+04  0.78557658803E+02 0.  0.
    5000000    2    1    2    0    0 -0.11535017643E+04 -0.19824841998E+03  0.51197950977E+03  0.14113663211E+04  0.59996926397E+03 0.  0.
        -24    2    4    4    0    0  0.13165591618E+02  0.76855421490E+02  0.65014427777E+02  0.12955818040E+03  0.80488245566E+02 0.  0.
         24    2    4    4    0    0 -0.11666673559E+04 -0.27510384147E+03  0.44696508200E+03  0.12818081407E+04  0.80370903640E+02 0.  0.
         11    1    3    3    0    0  0.66849607021E+03  0.10705405513E+03  0.22965334591E+03  0.71490434737E+03  0.00000000000E+00 0. -1.
        -12    1    3    3    0    0  0.48500569406E+03  0.91194364855E+02  0.99328838427E+02  0.50340158283E+03  0.00000000000E+00 0.  1.
         15    1    5    5    0    0 -0.24567235164E+02  0.22620609039E+02  0.52602133427E+02  0.62332841801E+02  0.17770000000E+01 0. -1.
        -16    1    5    5    0    0  0.37732826783E+02  0.54234812452E+02  0.12412294350E+02  0.67225338599E+02  0.00000000000E+00 0.  1.
          4    1    6    6  502    0 -0.43707445035E+03 -0.67576183784E+02  0.18344798689E+03  0.47880453178E+03  0.00000000000E+00 0. -1.
         -3    1    6    6    0  502 -0.72959290554E+03 -0.20752765769E+03  0.26351709511E+03  0.80300360892E+03  0.00000000000E+00 0.  1.
<mgrwt>
<rscale>  0 0.12354159E+04</rscale>
<asrwt>0</asrwt>
<pdfrwt beam="1">  1        1 0.26697184E+00 0.12354159E+04</pdfrwt>
<pdfrwt beam="2">  1       -2 0.13759312E+00 0.12354159E+04</pdfrwt>
<totfact> 0.14466841E+00</totfact>
</mgrwt>
</event>
<event>
12    3  0.1182097E-007  0.1390273E+04  0.7818608E-02  0.8960890E-01
         -4   -1    0    0    0  501 -0.00000000000E+00  0.00000000000E+00  0.85558083927E+03  0.85558083927E+03  0.00000000000E+00 0.  1.
          3   -1    0    0  501    0  0.00000000000E+00 -0.00000000000E+00 -0.24100023238E+04  0.24100023238E+04  0.00000000000E+00 0. -1.
        -24    2    1    2    0    0  0.48196206952E+03 -0.12685265473E+04 -0.97447057628E+03  0.16725180919E+04  0.79226421986E+02 0.  0.
    5000000    2    1    2    0    0 -0.48196206952E+03  0.12685265473E+04 -0.57995090822E+03  0.15930650712E+04  0.60005518701E+03 0.  0.
        -24    2    4    4    0    0 -0.52691603776E+03  0.85944194589E+03 -0.20739170500E+03  0.10323459677E+04  0.80286416087E+02 0.  0.
         24    2    4    4    0    0  0.44953968245E+02  0.40908460140E+03 -0.37255920322E+03  0.56071910344E+03  0.78958740499E+02 0.  0.
         13    1    3    3    0    0  0.34213768147E+03 -0.84212523701E+03 -0.69011519340E+03  0.11412677548E+04  0.00000000000E+00 0. -1.
        -14    1    3    3    0    0  0.13982438805E+03 -0.42640131027E+03 -0.28435538288E+03  0.53125033710E+03  0.00000000000E+00 0.  1.
         15    1    5    5    0    0 -0.18723253412E+03  0.38074206058E+03 -0.82861629464E+02  0.43230746685E+03  0.17770000000E+01 0. -1.
        -16    1    5    5    0    0 -0.33968350364E+03  0.47869988531E+03 -0.12453007554E+03  0.60003850089E+03  0.00000000000E+00 0.  1.
          2    1    6    6  502    0  0.36064018642E+02  0.34105421398E+03 -0.26616859009E+03  0.43412476164E+03  0.00000000000E+00 0. -1.
         -1    1    6    6    0  502  0.88899496021E+01  0.68030387419E+02 -0.10639061313E+03  0.12659434181E+03  0.00000000000E+00 0.  1.
<mgrwt>
<rscale>  0 0.13902728E+04</rscale>
<asrwt>0</asrwt>
<pdfrwt beam="1">  1        3 0.37076959E+00 0.13902728E+04</pdfrwt>
<pdfrwt beam="2">  1       -4 0.13162782E+00 0.13902728E+04</pdfrwt>
<totfact> 0.14334603E-02</totfact>
</mgrwt>
</event>
<event>
12    3  0.1182097E-007  0.6800289E+03  0.7818608E-02  0.9752008E-01
         -2   -1    0    0    0  501 -0.00000000000E+00  0.00000000000E+00  0.68598848958E+03  0.68598848958E+03  0.00000000000E+00 0.  1.
          1   -1    0    0  501    0  0.00000000000E+00 -0.00000000000E+00 -0.84760853277E+03  0.84760853277E+03  0.00000000000E+00 0. -1.
        -24    2    1    2    0    0 -0.28389385274E+03 -0.57534240323E+03 -0.81398529475E+02  0.65151282008E+03  0.78921692515E+02 0.  0.
    5000000    2    1    2    0    0  0.28389385274E+03  0.57534240323E+03 -0.80221513716E+02  0.88208420227E+03  0.60001870643E+03 0.  0.
        -24    2    4    4    0    0  0.86743830895E+02  0.46273927860E+03 -0.29310215776E+03  0.56075473561E+03  0.82975095500E+02 0.  0.
         24    2    4    4    0    0  0.19715002185E+03  0.11260312463E+03  0.21288064404E+03  0.32132946666E+03  0.79917849986E+02 0.  0.
         11    1    3    3    0    0 -0.21131517410E+03 -0.34189994234E+03 -0.48795283995E+02  0.40488350561E+03  0.00000000000E+00 0. -1.
        -12    1    3    3    0    0 -0.72578678648E+02 -0.23344246089E+03 -0.32603245480E+02  0.24662931447E+03  0.00000000000E+00 0.  1.
         15    1    5    5    0    0  0.49201734160E+02  0.13734129266E+03 -0.12728849761E+03  0.19362066177E+03  0.17770000000E+01 0. -1.
        -16    1    5    5    0    0  0.37542096735E+02  0.32539798594E+03 -0.16581366015E+03  0.36713407384E+03  0.00000000000E+00 0.  1.
          2    1    6    6  502    0  0.14938202929E+03  0.42384134123E+02  0.12767949802E+03  0.20103099193E+03  0.00000000000E+00 0. -1.
         -1    1    6    6    0  502  0.47767992562E+02  0.70218990505E+02  0.85201146017E+02  0.12029847474E+03  0.00000000000E+00 0.  1.
<mgrwt>
<rscale>  0 0.68002893E+03</rscale>
<asrwt>0</asrwt>
<pdfrwt beam="1">  1        1 0.13040131E+00 0.68002893E+03</pdfrwt>
<pdfrwt beam="2">  1       -2 0.10553669E+00 0.68002893E+03</pdfrwt>
<totfact> 0.13189013E+01</totfact>
</mgrwt>
</event>
<event>
12    3  0.1182097E-007  0.4841780E+03  0.7818608E-02  0.1017993E+00
         -2   -1    0    0    0  501 -0.00000000000E+00  0.00000000000E+00  0.82407182358E+03  0.82407182358E+03  0.00000000000E+00 0.  1.
          1   -1    0    0  501    0  0.00000000000E+00 -0.00000000000E+00 -0.46192988574E+03  0.46192988574E+03  0.00000000000E+00 0. -1.
        -24    2    1    2    0    0 -0.30227991841E+03  0.35526962718E+03  0.11478550831E+03  0.48680763206E+03  0.78843519960E+02 0.  0.
    5000000    2    1    2    0    0  0.30227991841E+03 -0.35526962718E+03  0.24735642952E+03  0.79919407726E+03  0.59994692502E+03 0.  0.
        -24    2    4    4    0    0  0.52755008656E+02 -0.57252542344E+02  0.36826429601E+03  0.38458233629E+03  0.78892566977E+02 0.  0.
         24    2    4    4    0    0  0.24952490976E+03 -0.29801708483E+03 -0.12090786649E+03  0.41461174097E+03  0.78786547922E+02 0.  0.
         11    1    3    3    0    0 -0.11704574339E+03  0.10310690650E+03  0.79535405634E+01  0.15618578367E+03  0.00000000000E+00 0. -1.
        -12    1    3    3    0    0 -0.18523417502E+03  0.25216272068E+03  0.10683196775E+03  0.33062184839E+03  0.00000000000E+00 0.  1.
         15    1    5    5    0    0  0.68185123655E+02 -0.30180245671E+02  0.30595898314E+03  0.31491922045E+03  0.17770000000E+01 0. -1.
        -16    1    5    5    0    0 -0.15430114999E+02 -0.27072296673E+02  0.62305312880E+02  0.69663115844E+02  0.00000000000E+00 0.  1.
          4    1    6    6  502    0  0.13856479568E+03 -0.11668167456E+03 -0.30958086705E+02  0.18377491372E+03  0.00000000000E+00 0. -1.
         -3    1    6    6    0  502  0.11096011408E+03 -0.18133541027E+03 -0.89949779788E+02  0.23083682725E+03  0.00000000000E+00 0.  1.
<mgrwt>
<rscale>  0 0.48417804E+03</rscale>
<asrwt>0</asrwt>
<pdfrwt beam="1">  1        1 0.71066136E-01 0.48417804E+03</pdfrwt>
<pdfrwt beam="2">  1       -2 0.12678028E+00 0.48417804E+03</pdfrwt>
<totfact> 0.20925357E+01</totfact>
</mgrwt>
</event>
<event>
12    3  0.1182097E-007  0.1409852E+04  0.7818608E-02  0.8946718E-01
         -2   -1    0    0    0  501 -0.00000000000E+00  0.00000000000E+00  0.11351363024E+04  0.11351363024E+04  0.00000000000E+00 0.  1.
          1   -1    0    0  501    0  0.00000000000E+00 -0.00000000000E+00 -0.18390629570E+04  0.18390629570E+04  0.00000000000E+00 0. -1.
        -24    2    1    2    0    0  0.12331930034E+04 -0.55488982715E+03 -0.46784871904E+02  0.13554415544E+04  0.79782699461E+02 0.  0.
    5000000    2    1    2    0    0 -0.12331930034E+04  0.55488982715E+03 -0.65714178271E+03  0.16187577050E+04  0.59989455827E+03 0.  0.
        -24    2    4    4    0    0 -0.68729041198E+03  0.60030238398E+03 -0.49902809495E+03  0.10430358476E+04  0.78509090522E+02 0.  0.
         24    2    4    4    0    0 -0.54590259143E+03 -0.45412556830E+02 -0.15811368776E+03  0.57572185738E+03  0.79898555445E+02 0.  0.
         11    1    3    3    0    0  0.63445633874E+03 -0.30042838239E+03  0.13202858498E+02  0.70211564160E+03  0.00000000000E+00 0. -1.
        -12    1    3    3    0    0  0.59873666467E+03 -0.25446144477E+03 -0.59987730402E+02  0.65332591276E+03  0.00000000000E+00 0.  1.
         15    1    5    5    0    0 -0.55445654954E+03  0.45853489228E+03 -0.42143346289E+03  0.83383789440E+03  0.17770000000E+01 0. -1.
        -16    1    5    5    0    0 -0.13283386244E+03  0.14176749170E+03 -0.77594632060E+02  0.20919795324E+03  0.00000000000E+00 0.  1.
          2    1    6    6  502    0 -0.48807779328E+03 -0.15628444003E+02 -0.14461473292E+03  0.50929127377E+03  0.00000000000E+00 0. -1.
         -1    1    6    6    0  502 -0.57824798144E+02 -0.29784112826E+02 -0.13498954842E+02  0.66430583612E+02  0.00000000000E+00 0.  1.
<mgrwt>
<rscale>  0 0.14098524E+04</rscale>
<asrwt>0</asrwt>
<pdfrwt beam="1">  1        1 0.28293276E+00 0.14098524E+04</pdfrwt>
<pdfrwt beam="2">  1       -2 0.17463636E+00 0.14098524E+04</pdfrwt>
<totfact> 0.63298014E-01</totfact>
</mgrwt>
</event>
<event>
12    3  0.1182097E-007  0.7022098E+03  0.7818608E-02  0.9713461E-01
         -4   -1    0    0    0  501 -0.00000000000E+00  0.00000000000E+00  0.40541032229E+03  0.40541032229E+03  0.00000000000E+00 0.  1.
          3   -1    0    0  501    0  0.00000000000E+00 -0.00000000000E+00 -0.15346800467E+04  0.15346800467E+04  0.00000000000E+00 0. -1.
        -24    2    1    2    0    0 -0.51569805951E+03 -0.28079853552E+03 -0.88606951329E+03  0.10659845271E+04  0.80071989018E+02 0.  0.
    5000000    2    1    2    0    0  0.51569805951E+03  0.28079853552E+03 -0.24320021115E+03  0.87410584196E+03  0.60010196977E+03 0.  0.
        -24    2    4    4    0    0  0.14844505486E+03  0.39818434475E+03 -0.48496215030E+02  0.43513903552E+03  0.80046178187E+02 0.  0.
         24    2    4    4    0    0  0.36725300465E+03 -0.11738580923E+03 -0.19470399612E+03  0.43896680645E+03  0.78281628876E+02 0.  0.
         11    1    3    3    0    0 -0.47789667743E+03 -0.26622624153E+03 -0.85456364798E+03  0.10146628378E+04  0.00000000000E+00 0. -1.
        -12    1    3    3    0    0 -0.37801382079E+02 -0.14572293990E+02 -0.31505865311E+02  0.51321689257E+02  0.00000000000E+00 0.  1.
         15    1    5    5    0    0  0.37011379158E+02  0.16457331538E+03 -0.51219116077E+02  0.17629740186E+03  0.17770000000E+01 0. -1.
        -16    1    5    5    0    0  0.11143367570E+03  0.23361102937E+03  0.27229010470E+01  0.25884163365E+03  0.00000000000E+00 0.  1.
          2    1    6    6  502    0  0.80625244196E+02 -0.50084454052E+02 -0.75687878932E+02  0.12139826011E+03  0.00000000000E+00 0. -1.
         -1    1    6    6    0  502  0.28662776046E+03 -0.67301355182E+02 -0.11901611719E+03  0.31756854634E+03  0.00000000000E+00 0.  1.
<mgrwt>
<rscale>  0 0.70220985E+03</rscale>
<asrwt>0</asrwt>
<pdfrwt beam="1">  1        3 0.23610462E+00 0.70220985E+03</pdfrwt>
<pdfrwt beam="2">  1       -4 0.62370820E-01 0.70220985E+03</pdfrwt>
<totfact> 0.48994121E-01</totfact>
</mgrwt>
</event>
<event>
12    3  0.1182097E-007  0.7553104E+03  0.7818608E-02  0.9627056E-01
         -2   -1    0    0    0  501 -0.00000000000E+00  0.00000000000E+00  0.39876562853E+03  0.39876562853E+03  0.00000000000E+00 0.  1.
          1   -1    0    0  501    0  0.00000000000E+00 -0.00000000000E+00 -0.19293889473E+04  0.19293889473E+04  0.00000000000E+00 0. -1.
        -24    2    1    2    0    0 -0.11840087261E+03  0.74252724454E+03 -0.91108697663E+03  0.11840106504E+04  0.80226340845E+02 0.  0.
    5000000    2    1    2    0    0  0.11840087261E+03 -0.74252724454E+03 -0.61953634214E+03  0.11441439254E+04  0.59989546369E+03 0.  0.
        -24    2    4    4    0    0  0.38133286089E+02 -0.18828129034E+03 -0.53260274412E+03  0.57187067542E+03  0.80413895262E+02 0.  0.
         24    2    4    4    0    0  0.80267586524E+02 -0.55424595419E+03 -0.86933598017E+02  0.57227325002E+03  0.79421401622E+02 0.  0.
         13    1    3    3    0    0 -0.62561604913E+02  0.46045039281E+03 -0.50299062808E+03  0.68478324350E+03  0.00000000000E+00 0. -1.
        -14    1    3    3    0    0 -0.55839267700E+02  0.28207685173E+03 -0.40809634856E+03  0.49922740690E+03  0.00000000000E+00 0.  1.
         15    1    5    5    0    0  0.29150150193E+02 -0.68930416883E+02 -0.31237631884E+03  0.32122150602E+03  0.17770000000E+01 0. -1.
        -16    1    5    5    0    0  0.89831358963E+01 -0.11935087346E+03 -0.22022642529E+03  0.25064916940E+03  0.00000000000E+00 0.  1.
          4    1    6    6  502    0  0.69781751135E+02 -0.25404386039E+03 -0.63353992019E+02  0.27096402732E+03  0.00000000000E+00 0. -1.
         -3    1    6    6    0  502  0.10485835389E+02 -0.30020209380E+03 -0.23579605998E+02  0.30130922270E+03  0.00000000000E+00 0.  1.
<mgrwt>
<rscale>  0 0.75531037E+03</rscale>
<asrwt>0</asrwt>
<pdfrwt beam="1">  1        1 0.29682907E+00 0.75531037E+03</pdfrwt>
<pdfrwt beam="2">  1       -2 0.61348559E-01 0.75531037E+03</pdfrwt>
<totfact> 0.75079111E+00</totfact>
</mgrwt>
</event>
<event>
12    3  0.1182097E-007  0.5804263E+03  0.7818608E-02  0.9946868E-01
          1   -1    0    0  501    0  0.00000000000E+00  0.00000000000E+00  0.46093063475E+03  0.46093063475E+03  0.00000000000E+00 0. -1.
         -2   -1    0    0    0  501 -0.00000000000E+00 -0.00000000000E+00 -0.10660737539E+04  0.10660737539E+04  0.00000000000E+00 0.  1.
        -24    2    1    2    0    0  0.41956576087E+03  0.12256279316E+03  0.14911747280E+03  0.46874410683E+03  0.80174503596E+02 0.  0.
    5000000    2    1    2    0    0 -0.41956576087E+03 -0.12256279316E+03 -0.75426059191E+03  0.10582602818E+04  0.59995726308E+03 0.  0.
        -24    2    4    4    0    0  0.11624785872E+03  0.80479108716E+02 -0.16175944491E+03  0.22997124460E+03  0.82037818896E+02 0.  0.
         24    2    4    4    0    0 -0.53581361959E+03 -0.20304190187E+03 -0.59250114700E+03  0.82828903718E+03  0.81748829146E+02 0.  0.
         13    1    3    3    0    0  0.39545547084E+03  0.13339186506E+03  0.13419032462E+03  0.43838962385E+03  0.00000000000E+00 0. -1.
        -14    1    3    3    0    0  0.24110290031E+02 -0.10829071900E+02  0.14927148188E+02  0.30354482974E+02  0.00000000000E+00 0.  1.
         15    1    5    5    0    0  0.78851118339E+02  0.56393121134E+02 -0.15793884083E+03  0.18532543848E+03  0.17770000000E+01 0. -1.
        -16    1    5    5    0    0  0.37396740378E+02  0.24085987582E+02 -0.38206040770E+01  0.44645806121E+02  0.00000000000E+00 0.  1.
          2    1    6    6  502    0 -0.21018026238E+03 -0.51127520337E+02 -0.26533242871E+03  0.34233180360E+03  0.00000000000E+00 0. -1.
         -1    1    6    6    0  502 -0.32563335720E+03 -0.15191438154E+03 -0.32716871828E+03  0.48595723358E+03  0.00000000000E+00 0.  1.
<mgrwt>
<rscale>  0 0.58042634E+03</rscale>
<asrwt>0</asrwt>
<pdfrwt beam="1">  1        1 0.70912407E-01 0.58042634E+03</pdfrwt>
<pdfrwt beam="2">  1       -2 0.16401134E+00 0.58042634E+03</pdfrwt>
<totfact> 0.10613460E+01</totfact>
</mgrwt>
</event>
<event>
12    3  0.1182097E-007  0.1352530E+04  0.7818608E-02  0.8988915E-01
          1   -1    0    0  501    0  0.00000000000E+00  0.00000000000E+00  0.21884657998E+04  0.21884657998E+04  0.00000000000E+00 0. -1.
         -2   -1    0    0    0  501 -0.00000000000E+00 -0.00000000000E+00 -0.14236884013E+04  0.14236884013E+04  0.00000000000E+00 0.  1.
        -24    2    1    2    0    0  0.33384029464E+03 -0.12608938890E+04  0.15080263335E+04  0.19954522241E+04  0.79896273543E+02 0.  0.
    5000000    2    1    2    0    0 -0.33384029464E+03  0.12608938890E+04 -0.74324893502E+03  0.16167019770E+04  0.60000296795E+03 0.  0.
        -24    2    4    4    0    0 -0.43414968125E+03  0.69637116613E+03 -0.26573806171E+03  0.86617339027E+03  0.78872541636E+02 0.  0.
         24    2    4    4    0    0  0.10030938661E+03  0.56452272284E+03 -0.47751087332E+03  0.75052858676E+03  0.80800048042E+02 0.  0.
         13    1    3    3    0    0  0.24460972480E+03 -0.95257238393E+03  0.11869629653E+04  0.15414633129E+04  0.00000000000E+00 0. -1.
        -14    1    3    3    0    0  0.89230569837E+02 -0.30832150504E+03  0.32106336824E+03  0.45398891119E+03  0.00000000000E+00 0.  1.
         15    1    5    5    0    0 -0.19093337869E+03  0.26526545168E+03 -0.72329021516E+02  0.33474760646E+03  0.17770000000E+01 0. -1.
        -16    1    5    5    0    0 -0.24321630256E+03  0.43110571445E+03 -0.19340904019E+03  0.53142578381E+03  0.00000000000E+00 0.  1.
          4    1    6    6  502    0  0.54119103171E+02  0.11726905709E+03 -0.11573108545E+03  0.17342027914E+03  0.00000000000E+00 0. -1.
         -3    1    6    6    0  502  0.46190283438E+02  0.44725366575E+03 -0.36177978787E+03  0.57710830761E+03  0.00000000000E+00 0.  1.
<mgrwt>
<rscale>  0 0.13525299E+04</rscale>
<asrwt>0</asrwt>
<pdfrwt beam="1">  1        1 0.33668705E+00 0.13525299E+04</pdfrwt>
<pdfrwt beam="2">  1       -2 0.21902898E+00 0.13525299E+04</pdfrwt>
<totfact> 0.18670979E-01</totfact>
</mgrwt>
</event>
<event>
12    3  0.1182097E-007  0.1247942E+04  0.7818608E-02  0.9071898E-01
          1   -1    0    0  501    0  0.00000000000E+00  0.00000000000E+00  0.13917115452E+04  0.13917115452E+04  0.00000000000E+00 0. -1.
         -2   -1    0    0    0  501 -0.00000000000E+00 -0.00000000000E+00 -0.12062233390E+04  0.12062233390E+04  0.00000000000E+00 0.  1.
        -24    2    1    2    0    0 -0.72594726987E+03 -0.98561843869E+03  0.45878102787E+02  0.12275353654E+04  0.79341839982E+02 0.  0.
    5000000    2    1    2    0    0  0.72594726987E+03  0.98561843869E+03  0.13961010336E+03  0.13703995189E+04  0.60005059371E+03 0.  0.
        -24    2    4    4    0    0  0.22788907148E+03  0.10061198821E+03  0.22837638978E+03  0.34655917206E+03  0.76754695362E+02 0.  0.
         24    2    4    4    0    0  0.49805819839E+03  0.88500645048E+03 -0.88766286420E+02  0.10238403468E+04  0.95242930166E+02 0.  0.
         13    1    3    3    0    0 -0.29131690309E+03 -0.44969072543E+03  0.42807043316E+02  0.53751253894E+03  0.00000000000E+00 0. -1.
        -14    1    3    3    0    0 -0.43463036678E+03 -0.53592771327E+03  0.30710594711E+01  0.69002282642E+03  0.00000000000E+00 0.  1.
         15    1    5    5    0    0  0.62335857383E+02  0.42344574975E+02  0.11538517673E+03  0.13782495740E+03  0.17770000000E+01 0. -1.
        -16    1    5    5    0    0  0.16555321410E+03  0.58267413236E+02  0.11299121305E+03  0.20873421466E+03  0.00000000000E+00 0.  1.
          4    1    6    6  502    0  0.12358095469E+03  0.30145731364E+03 -0.47425193876E+02  0.32923838374E+03  0.00000000000E+00 0. -1.
         -3    1    6    6    0  502  0.37447724370E+03  0.58354913684E+03 -0.41341092543E+02  0.69460196306E+03  0.00000000000E+00 0.  1.
<mgrwt>
<rscale>  0 0.12479416E+04</rscale>
<asrwt>0</asrwt>
<pdfrwt beam="1">  1        1 0.21410947E+00 0.12479416E+04</pdfrwt>
<pdfrwt beam="2">  1       -2 0.18557282E+00 0.12479416E+04</pdfrwt>
<totfact> 0.10989288E+00</totfact>
</mgrwt>
</event>
<event>
12    3  0.1182097E-007  0.5557805E+03  0.7818608E-02  0.1000165E+00
         -2   -1    0    0    0  501 -0.00000000000E+00  0.00000000000E+00  0.15469414757E+04  0.15469414757E+04  0.00000000000E+00 0.  1.
          1   -1    0    0  501    0  0.00000000000E+00 -0.00000000000E+00 -0.29864872242E+03  0.29864872242E+03  0.00000000000E+00 0. -1.
        -24    2    1    2    0    0  0.40392112302E+02 -0.49844805399E+03  0.79478603144E+03  0.94239646666E+03  0.79650984494E+02 0.  0.
    5000000    2    1    2    0    0 -0.40392112302E+02  0.49844805399E+03  0.45350672183E+03  0.90319373145E+03  0.60000715373E+03 0.  0.
        -24    2    4    4    0    0  0.73240773239E+02  0.13564942381E+02  0.37761087062E+03  0.39295816944E+03  0.79233419661E+02 0.  0.
         24    2    4    4    0    0 -0.11363288554E+03  0.48488311161E+03  0.75895851206E+02  0.51023556201E+03  0.80969648077E+02 0.  0.
         13    1    3    3    0    0 -0.16121680705E+02 -0.28452687042E+03  0.45845732530E+03  0.53981345639E+03  0.00000000000E+00 0. -1.
        -14    1    3    3    0    0  0.56513793007E+02 -0.21392118357E+03  0.33632870614E+03  0.40258301027E+03  0.00000000000E+00 0.  1.
         15    1    5    5    0    0  0.47846943772E+02  0.45723272180E+02  0.19964476091E+03  0.21033576951E+03  0.17770000000E+01 0. -1.
        -16    1    5    5    0    0  0.25393829468E+02 -0.32158329799E+02  0.17796610971E+03  0.18262239993E+03  0.00000000000E+00 0.  1.
          2    1    6    6  502    0 -0.87723631308E+02  0.35337179597E+03  0.91142798513E+02  0.37533194827E+03  0.00000000000E+00 0. -1.
         -1    1    6    6    0  502 -0.25909254233E+02  0.13151131564E+03 -0.15246947307E+02  0.13490361374E+03  0.00000000000E+00 0.  1.
<mgrwt>
<rscale>  0 0.55578049E+03</rscale>
<asrwt>0</asrwt>
<pdfrwt beam="1">  1        1 0.45945958E-01 0.55578049E+03</pdfrwt>
<pdfrwt beam="2">  1       -2 0.23799099E+00 0.55578049E+03</pdfrwt>
<totfact> 0.62037489E+00</totfact>
</mgrwt>
</event>
<event>
12    3  0.1182097E-007  0.1022891E+04  0.7818608E-02  0.9283789E-01
          1   -1    0    0  501    0  0.00000000000E+00  0.00000000000E+00  0.17394057132E+04  0.17394057132E+04  0.00000000000E+00 0. -1.
         -2   -1    0    0    0  501 -0.00000000000E+00 -0.00000000000E+00 -0.62753941684E+03  0.62753941684E+03  0.00000000000E+00 0.  1.
        -24    2    1    2    0    0 -0.95101347271E+03 -0.83932708040E+02  0.58325344262E+03  0.11215834599E+04  0.79331925186E+02 0.  0.
    5000000    2    1    2    0    0  0.95101347271E+03  0.83932708040E+02  0.52861285377E+03  0.12453616702E+04  0.60001901277E+03 0.  0.
        -24    2    4    4    0    0  0.43257742410E+03 -0.21783539349E+03  0.38485275757E+03  0.62424379424E+03  0.83625254167E+02 0.  0.
         24    2    4    4    0    0  0.51843604861E+03  0.30176810153E+03  0.14376009620E+03  0.62111787597E+03  0.72667234609E+02 0.  0.
         11    1    3    3    0    0 -0.34041979852E+03 -0.59751885456E+02  0.23903788465E+03  0.42023212316E+03  0.00000000000E+00 0. -1.
        -12    1    3    3    0    0 -0.61059367419E+03 -0.24180822584E+02  0.34421555797E+03  0.70135133670E+03  0.00000000000E+00 0.  1.
         15    1    5    5    0    0  0.66932852791E+02 -0.45361881780E+02  0.10507129958E+03  0.13259277064E+03  0.17770000000E+01 0. -1.
        -16    1    5    5    0    0  0.36564457131E+03 -0.17247351171E+03  0.27978145800E+03  0.49165102360E+03  0.00000000000E+00 0.  1.
          2    1    6    6  502    0  0.15508775041E+03  0.12838195007E+03  0.38369128600E+02  0.20495444728E+03  0.00000000000E+00 0. -1.
         -1    1    6    6    0  502  0.36334829820E+03  0.17338615146E+03  0.10539096760E+03  0.41616342869E+03  0.00000000000E+00 0.  1.
<mgrwt>
<rscale>  0 0.10228906E+04</rscale>
<asrwt>0</asrwt>
<pdfrwt beam="1">  1        1 0.26760088E+00 0.10228906E+04</pdfrwt>
<pdfrwt beam="2">  1       -2 0.96544526E-01 0.10228906E+04</pdfrwt>
<totfact> 0.35302233E+00</totfact>
</mgrwt>
</event>
<event>
12    3  0.1182097E-007  0.4576381E+03  0.7818608E-02  0.1025468E+00
          1   -1    0    0  501    0  0.00000000000E+00  0.00000000000E+00  0.24592497642E+04  0.24592497642E+04  0.00000000000E+00 0. -1.
         -2   -1    0    0    0  501 -0.00000000000E+00 -0.00000000000E+00 -0.91702417679E+02  0.91702417679E+02  0.00000000000E+00 0.  1.
        -24    2    1    2    0    0 -0.12768881135E+03  0.24586959563E+03  0.70791588506E+03  0.76452399033E+03  0.81214166678E+02 0.  0.
    5000000    2    1    2    0    0  0.12768881135E+03 -0.24586959563E+03  0.16596314614E+04  0.17864281915E+04  0.60016064940E+03 0.  0.
        -24    2    4    4    0    0 -0.22012603636E+03 -0.32259927246E+02  0.74296741932E+03  0.77970930577E+03  0.80310899214E+02 0.  0.
         24    2    4    4    0    0  0.34781484771E+03 -0.21360966839E+03  0.91666404210E+03  0.10067188857E+04  0.81275396794E+02 0.  0.
         13    1    3    3    0    0 -0.26913446212E+02  0.22188102446E+02  0.16653175107E+03  0.17014543658E+03  0.00000000000E+00 0. -1.
        -14    1    3    3    0    0 -0.10077536514E+03  0.22368149319E+03  0.54138413399E+03  0.59437855375E+03  0.00000000000E+00 0.  1.
         15    1    5    5    0    0 -0.58854769159E+02 -0.27537794179E+02  0.33005690050E+03  0.33639698165E+03  0.17770000000E+01 0. -1.
        -16    1    5    5    0    0 -0.16127126720E+03 -0.47221330666E+01  0.41291051882E+03  0.44331232412E+03  0.00000000000E+00 0.  1.
          2    1    6    6  502    0  0.20055407395E+03 -0.11086909286E+03  0.60622127526E+03  0.64808805490E+03  0.00000000000E+00 0. -1.
         -1    1    6    6    0  502  0.14726077376E+03 -0.10274057553E+03  0.31044276683E+03  0.35863083084E+03  0.00000000000E+00 0.  1.
<mgrwt>
<rscale>  0 0.45763811E+03</rscale>
<asrwt>0</asrwt>
<pdfrwt beam="1">  1        1 0.37834607E+00 0.45763811E+03</pdfrwt>
<pdfrwt beam="2">  1       -2 0.14108066E-01 0.45763811E+03</pdfrwt>
<totfact> 0.53826224E+01</totfact>
</mgrwt>
</event>
<event>
12    3  0.1182097E-007  0.6930836E+03  0.7818608E-02  0.9729134E-01
         -2   -1    0    0    0  501 -0.00000000000E+00  0.00000000000E+00  0.82740701766E+03  0.82740701766E+03  0.00000000000E+00 0.  1.
          1   -1    0    0  501    0  0.00000000000E+00 -0.00000000000E+00 -0.75101811964E+03  0.75101811964E+03  0.00000000000E+00 0. -1.
        -24    2    1    2    0    0  0.31215089309E+03  0.59239055578E+03 -0.14120836534E+02  0.67478706560E+03  0.82300882371E+02 0.  0.
    5000000    2    1    2    0    0 -0.31215089309E+03 -0.59239055578E+03  0.90509734553E+02  0.90363807170E+03  0.60000416827E+03 0.  0.
        -24    2    4    4    0    0 -0.24704576258E+03 -0.25719919413E+03 -0.22658918724E+03  0.43027688130E+03  0.81317283118E+02 0.  0.
         24    2    4    4    0    0 -0.65105130509E+02 -0.33519136165E+03  0.31709892180E+03  0.47336119040E+03  0.83229582680E+02 0.  0.
         11    1    3    3    0    0  0.30980341934E+03  0.55487817888E+03 -0.27256979965E+01  0.63551190505E+03  0.00000000000E+00 0. -1.
        -12    1    3    3    0    0  0.23474737503E+01  0.37512376896E+02 -0.11395138538E+02  0.39275160543E+02  0.00000000000E+00 0.  1.
         15    1    5    5    0    0 -0.66468561140E+02 -0.24649392809E+02 -0.35806307622E+02  0.79441246090E+02  0.17770000000E+01 0. -1.
        -16    1    5    5    0    0 -0.18057720144E+03 -0.23254980132E+03 -0.19078287962E+03  0.35083563521E+03  0.00000000000E+00 0.  1.
          4    1    6    6  502    0 -0.52965338596E+02 -0.10870169573E+03  0.14402767636E+03  0.18805679277E+03  0.00000000000E+00 0. -1.
         -3    1    6    6    0  502 -0.12139791913E+02 -0.22648966591E+03  0.17307124543E+03  0.28530439763E+03  0.00000000000E+00 0.  1.
<mgrwt>
<rscale>  0 0.69308358E+03</rscale>
<asrwt>0</asrwt>
<pdfrwt beam="1">  1        1 0.11554125E+00 0.69308358E+03</pdfrwt>
<pdfrwt beam="2">  1       -2 0.12729339E+00 0.69308358E+03</pdfrwt>
<totfact> 0.10081203E+01</totfact>
</mgrwt>
</event>
<event>
12    3  0.1182097E-007  0.4507065E+03  0.7818608E-02  0.1027512E+00
          1   -1    0    0  501    0  0.00000000000E+00  0.00000000000E+00  0.50433074082E+03  0.50433074082E+03  0.00000000000E+00 0. -1.
         -2   -1    0    0    0  501 -0.00000000000E+00 -0.00000000000E+00 -0.52337378589E+03  0.52337378589E+03  0.00000000000E+00 0.  1.
        -24    2    1    2    0    0 -0.24158738161E+03  0.76381938050E+02  0.20881676663E+03  0.33767585199E+03  0.78878866477E+02 0.  0.
    5000000    2    1    2    0    0  0.24158738161E+03 -0.76381938050E+02 -0.22785981170E+03  0.69002867472E+03  0.60001734537E+03 0.  0.
        -24    2    4    4    0    0  0.26818718307E+03 -0.29985763944E+03 -0.17407909284E+03  0.44552852268E+03  0.79706742906E+02 0.  0.
         24    2    4    4    0    0 -0.26599801461E+02  0.22347570139E+03 -0.53780718862E+02  0.24450015204E+03  0.78987467854E+02 0.  0.
         13    1    3    3    0    0 -0.12517859423E+03  0.52748832731E+02  0.15830977922E+03  0.20860034996E+03  0.00000000000E+00 0. -1.
        -14    1    3    3    0    0 -0.11640878738E+03  0.23633105319E+02  0.50506987414E+02  0.12907550203E+03  0.00000000000E+00 0.  1.
         15    1    5    5    0    0  0.20084119103E+03 -0.26949958402E+03 -0.13837316056E+03  0.36347970933E+03  0.17770000000E+01 0. -1.
        -16    1    5    5    0    0  0.67345992040E+02 -0.30358055424E+02 -0.35705932277E+02  0.82048813354E+02  0.00000000000E+00 0.  1.
          4    1    6    6  502    0 -0.52129358667E+02  0.13473230967E+03 -0.46959123364E+02  0.15190597280E+03  0.00000000000E+00 0. -1.
         -3    1    6    6    0  502  0.25529557206E+02  0.88743391721E+02 -0.68215954982E+01  0.92594179247E+02  0.00000000000E+00 0.  1.
<mgrwt>
<rscale>  0 0.45070646E+03</rscale>
<asrwt>0</asrwt>
<pdfrwt beam="1">  1        1 0.77589345E-01 0.45070646E+03</pdfrwt>
<pdfrwt beam="2">  1       -2 0.80519044E-01 0.45070646E+03</pdfrwt>
<totfact> 0.54449381E+01</totfact>
</mgrwt>
</event>
<event>
12    3  0.1182097E-007  0.9054570E+03  0.7818608E-02  0.9418786E-01
          1   -1    0    0  501    0  0.00000000000E+00  0.00000000000E+00  0.16875726280E+04  0.16875726280E+04  0.00000000000E+00 0. -1.
         -2   -1    0    0    0  501 -0.00000000000E+00 -0.00000000000E+00 -0.58675472087E+03  0.58675472087E+03  0.00000000000E+00 0.  1.
        -24    2    1    2    0    0  0.41108029241E+03 -0.78059283942E+03  0.28198217981E+03  0.92958974153E+03  0.79441488333E+02 0.  0.
    5000000    2    1    2    0    0 -0.41108029241E+03  0.78059283942E+03  0.81883572737E+03  0.13447376074E+04  0.59959577762E+03 0.  0.
        -24    2    4    4    0    0 -0.36319211956E+03  0.41257046227E+03  0.14856314073E+03  0.57438154447E+03  0.75632332999E+02 0.  0.
         24    2    4    4    0    0 -0.47888172854E+02  0.36802237715E+03  0.67027258664E+03  0.77035606292E+03  0.80308007633E+02 0.  0.
         11    1    3    3    0    0  0.17051159547E+03 -0.39832928530E+03  0.11787123015E+03  0.44903680318E+03  0.00000000000E+00 0. -1.
        -12    1    3    3    0    0  0.24056869694E+03 -0.38226355412E+03  0.16411094966E+03  0.48055293835E+03  0.00000000000E+00 0.  1.
         15    1    5    5    0    0 -0.80391566781E+01 -0.24571411620E+01  0.21671500201E+01  0.88611427590E+01  0.17770000000E+01 0. -1.
        -16    1    5    5    0    0 -0.35515296288E+03  0.41502760343E+03  0.14639599071E+03  0.56552040171E+03  0.00000000000E+00 0.  1.
          4    1    6    6  502    0 -0.14084524516E+02  0.10473030603E+03  0.27119838276E+03  0.29105905525E+03  0.00000000000E+00 0. -1.
         -3    1    6    6    0  502 -0.33803648338E+02  0.26329207112E+03  0.39907420389E+03  0.47929700767E+03  0.00000000000E+00 0.  1.
<mgrwt>
<rscale>  0 0.90545695E+03</rscale>
<asrwt>0</asrwt>
<pdfrwt beam="1">  1        1 0.25962656E+00 0.90545695E+03</pdfrwt>
<pdfrwt beam="2">  1       -2 0.90269958E-01 0.90545695E+03</pdfrwt>
<totfact> 0.45419590E+00</totfact>
</mgrwt>
</event>
<event>
12    3  0.1182097E-007  0.6573528E+03  0.7818608E-02  0.9793079E-01
          1   -1    0    0  501    0  0.00000000000E+00  0.00000000000E+00  0.58671175340E+03  0.58671175340E+03  0.00000000000E+00 0. -1.
         -2   -1    0    0    0  501 -0.00000000000E+00 -0.00000000000E+00 -0.99223220441E+03  0.99223220441E+03  0.00000000000E+00 0.  1.
        -24    2    1    2    0    0  0.35832657333E+03 -0.46635520371E+03  0.94809206279E+02  0.60109423831E+03  0.80252031430E+02 0.  0.
    5000000    2    1    2    0    0 -0.35832657333E+03  0.46635520371E+03 -0.50032965728E+03  0.97784971950E+03  0.59997933197E+03 0.  0.
        -24    2    4    4    0    0 -0.11549464562E+03  0.46421644795E+03 -0.53184516500E+03  0.71975155161E+03  0.79668643745E+02 0.  0.
         24    2    4    4    0    0 -0.24283192771E+03  0.21387557634E+01  0.31515507724E+02  0.25809816789E+03  0.81544574618E+02 0.  0.
         11    1    3    3    0    0  0.28831624845E+03 -0.31697323236E+03  0.63204155746E+02  0.43312013859E+03  0.00000000000E+00 0. -1.
        -12    1    3    3    0    0  0.70010324876E+02 -0.14938197136E+03  0.31605050534E+02  0.16797409971E+03  0.00000000000E+00 0.  1.
         15    1    5    5    0    0 -0.45322180367E+02  0.17940627649E+03 -0.26493768271E+03  0.32316535323E+03  0.17770000000E+01 0. -1.
        -16    1    5    5    0    0 -0.70172465249E+02  0.28481017146E+03 -0.26690748230E+03  0.39658619839E+03  0.00000000000E+00 0.  1.
          4    1    6    6  502    0 -0.82556126326E+02 -0.10229709428E+01 -0.27878279475E+02  0.87142176528E+02  0.00000000000E+00 0. -1.
         -3    1    6    6    0  502 -0.16027580138E+03  0.31617267062E+01  0.59393787198E+02  0.17095599136E+03  0.00000000000E+00 0.  1.
<mgrwt>
<rscale>  0 0.65735281E+03</rscale>
<asrwt>0</asrwt>
<pdfrwt beam="1">  1        1 0.90263346E-01 0.65735281E+03</pdfrwt>
<pdfrwt beam="2">  1       -2 0.15265111E+00 0.65735281E+03</pdfrwt>
<totfact> 0.91358010E+00</totfact>
</mgrwt>
</event>
<event>
12    3  0.1182097E-007  0.1072219E+04  0.7818608E-02  0.9232700E-01
         -2   -1    0    0    0  501 -0.00000000000E+00  0.00000000000E+00  0.21011589302E+04  0.21011589302E+04  0.00000000000E+00 0.  1.
          1   -1    0    0  501    0  0.00000000000E+00 -0.00000000000E+00 -0.60338631619E+03  0.60338631619E+03  0.00000000000E+00 0. -1.
        -24    2    1    2    0    0  0.44395822780E+03 -0.88845907316E+03  0.10848082592E+04  0.14729400825E+04  0.79278589534E+02 0.  0.
    5000000    2    1    2    0    0 -0.44395822780E+03  0.88845907316E+03  0.41296435480E+03  0.12316051639E+04  0.59987772802E+03 0.  0.
        -24    2    4    4    0    0  0.11004234410E+03  0.35525744618E+03  0.70269228311E+02  0.38557890260E+03  0.73594531880E+02 0.  0.
         24    2    4    4    0    0 -0.55400057190E+03  0.53320162699E+03  0.34269512649E+03  0.84602626125E+03  0.84260763890E+02 0.  0.
         11    1    3    3    0    0  0.26297614800E+03 -0.46954926114E+03  0.63165910927E+03  0.82983503986E+03  0.00000000000E+00 0. -1.
        -12    1    3    3    0    0  0.18098207980E+03 -0.41890981202E+03  0.45314914992E+03  0.64310504265E+03  0.00000000000E+00 0.  1.
         15    1    5    5    0    0  0.44135482570E+02  0.25085524358E+03  0.34521420978E+02  0.25704314869E+03  0.17770000000E+01 0. -1.
        -16    1    5    5    0    0  0.65906861527E+02  0.10440220260E+03  0.35747807333E+02  0.12853575391E+03  0.00000000000E+00 0.  1.
          4    1    6    6  502    0 -0.44263220055E+03  0.46059230502E+03  0.26156150386E+03  0.69027744908E+03  0.00000000000E+00 0. -1.
         -3    1    6    6    0  502 -0.11136837135E+03  0.72609321964E+02  0.81133622626E+02  0.15574881217E+03  0.00000000000E+00 0.  1.
<mgrwt>
<rscale>  0 0.10722189E+04</rscale>
<asrwt>0</asrwt>
<pdfrwt beam="1">  1        1 0.92828665E-01 0.10722189E+04</pdfrwt>
<pdfrwt beam="2">  1       -2 0.32325522E+00 0.10722189E+04</pdfrwt>
<totfact> 0.68246551E-01</totfact>
</mgrwt>
</event>
<event>
12    3  0.1182097E-007  0.1011886E+04  0.7818608E-02  0.9295603E-01
         -2   -1    0    0    0  501 -0.00000000000E+00  0.00000000000E+00  0.87898870479E+03  0.87898870479E+03  0.00000000000E+00 0.  1.
          1   -1    0    0  501    0  0.00000000000E+00 -0.00000000000E+00 -0.22290882433E+04  0.22290882433E+04  0.00000000000E+00 0. -1.
        -24    2    1    2    0    0 -0.81469624722E+03 -0.44536778465E+03 -0.17082567160E+04  0.19460000801E+04  0.81809933088E+02 0.  0.
    5000000    2    1    2    0    0  0.81469624722E+03  0.44536778465E+03  0.35815717747E+03  0.11620768680E+04  0.60005303479E+03 0.  0.
        -24    2    4    4    0    0  0.16313367138E+03 -0.13709116060E+03  0.52035557206E+02  0.23270073939E+03  0.77687539824E+02 0.  0.
         24    2    4    4    0    0  0.65156257584E+03  0.58245894525E+03  0.30612162026E+03  0.92937612863E+03  0.78976761974E+02 0.  0.
         13    1    3    3    0    0 -0.39422572292E+03 -0.17045681828E+03 -0.80826265544E+03  0.91529119284E+03  0.00000000000E+00 0. -1.
        -14    1    3    3    0    0 -0.42047052430E+03 -0.27491096637E+03 -0.89999406056E+03  0.10307088873E+04  0.00000000000E+00 0.  1.
         15    1    5    5    0    0  0.10751448474E+03 -0.11627648811E+03  0.66190678189E+02  0.17165066188E+03  0.17770000000E+01 0. -1.
        -16    1    5    5    0    0  0.55619186638E+02 -0.20814672494E+02 -0.14155120983E+02  0.61050077504E+02  0.00000000000E+00 0.  1.
          2    1    6    6  502    0  0.19372458620E+03  0.16199114387E+03  0.12582754183E+03  0.28213988777E+03  0.00000000000E+00 0. -1.
         -1    1    6    6    0  502  0.45783798964E+03  0.42046780138E+03  0.18029407844E+03  0.64723624085E+03  0.00000000000E+00 0.  1.
<mgrwt>
<rscale>  0 0.10118862E+04</rscale>
<asrwt>0</asrwt>
<pdfrwt beam="1">  1        1 0.34293666E+00 0.10118862E+04</pdfrwt>
<pdfrwt beam="2">  1       -2 0.13522903E+00 0.10118862E+04</pdfrwt>
<totfact> 0.72113429E-01</totfact>
</mgrwt>
</event>
<event>
12    3  0.1182097E-007  0.3672990E+03  0.7818608E-02  0.1055731E+00
          1   -1    0    0  501    0  0.00000000000E+00  0.00000000000E+00  0.50542236366E+03  0.50542236366E+03  0.00000000000E+00 0. -1.
         -2   -1    0    0    0  501 -0.00000000000E+00 -0.00000000000E+00 -0.34218416599E+03  0.34218416599E+03  0.00000000000E+00 0.  1.
        -24    2    1    2    0    0 -0.13641807791E+03  0.31289204286E+02  0.16627160346E+03  0.23143364591E+03  0.79538544471E+02 0.  0.
    5000000    2    1    2    0    0  0.13641807791E+03 -0.31289204286E+02 -0.30334057862E+01  0.61617288374E+03  0.60005909277E+03 0.  0.
        -24    2    4    4    0    0 -0.19810939090E+03  0.85578708238E+02 -0.82499973355E+02  0.24406119732E+03  0.78667505154E+02 0.  0.
         24    2    4    4    0    0  0.33452746881E+03 -0.11686791252E+03  0.79466567569E+02  0.37211168642E+03  0.81150695865E+02 0.  0.
         11    1    3    3    0    0 -0.42746411094E+02 -0.26206077125E+02  0.63998228905E+02  0.81300599276E+02  0.00000000000E+00 0. -1.
        -12    1    3    3    0    0 -0.93671666820E+02  0.57495281412E+02  0.10227337456E+03  0.15013304664E+03  0.00000000000E+00 0.  1.
         15    1    5    5    0    0 -0.15982993560E+03  0.55688355187E+02 -0.28868238446E+02  0.17170711732E+03  0.17770000000E+01 0. -1.
        -16    1    5    5    0    0 -0.38279455297E+02  0.29890353051E+02 -0.53631734908E+02  0.72354080000E+02  0.00000000000E+00 0.  1.
          4    1    6    6  502    0  0.27042726675E+03 -0.11109949338E+03  0.36271283597E+02  0.29460076382E+03  0.00000000000E+00 0. -1.
         -3    1    6    6    0  502  0.64100202063E+02 -0.57684191400E+01  0.43195283972E+02  0.77510922593E+02  0.00000000000E+00 0.  1.
<mgrwt>
<rscale>  0 0.36729898E+03</rscale>
<asrwt>0</asrwt>
<pdfrwt beam="1">  1        1 0.77757286E-01 0.36729898E+03</pdfrwt>
<pdfrwt beam="2">  1       -2 0.52643718E-01 0.36729898E+03</pdfrwt>
<totfact> 0.13542144E+02</totfact>
</mgrwt>
</event>
<event>
12    3  0.1182097E-007  0.7772571E+03  0.7818608E-02  0.9593533E-01
          1   -1    0    0  501    0  0.00000000000E+00  0.00000000000E+00  0.11554122281E+04  0.11554122281E+04  0.00000000000E+00 0. -1.
         -2   -1    0    0    0  501 -0.00000000000E+00 -0.00000000000E+00 -0.63923597363E+03  0.63923597363E+03  0.00000000000E+00 0.  1.
        -24    2    1    2    0    0  0.47279505785E+03  0.46275368381E+03 -0.14682531876E+03  0.68243955990E+03  0.80560164309E+02 0.  0.
    5000000    2    1    2    0    0 -0.47279505785E+03 -0.46275368381E+03  0.66300157326E+03  0.11122086419E+04  0.59980066547E+03 0.  0.
        -24    2    4    4    0    0  0.12642324608E+03 -0.15311385218E+03  0.15461687115E+03  0.26391502141E+03  0.79486305756E+02 0.  0.
         24    2    4    4    0    0 -0.59921830393E+03 -0.30963983163E+03  0.50838470211E+03  0.84829362046E+03  0.78788705264E+02 0.  0.
         13    1    3    3    0    0  0.15235456073E+03  0.10389848654E+03 -0.57055362779E+02  0.19303399209E+03  0.00000000000E+00 0. -1.
        -14    1    3    3    0    0  0.32044049712E+03  0.35885519727E+03 -0.89769955983E+02  0.48940556780E+03  0.00000000000E+00 0.  1.
         15    1    5    5    0    0  0.12789870001E+01 -0.43557683801E+02  0.54430419110E+02  0.69747658594E+02  0.17770000000E+01 0. -1.
        -16    1    5    5    0    0  0.12514425908E+03 -0.10955616838E+03  0.10018645204E+03  0.19416736281E+03  0.00000000000E+00 0.  1.
          2    1    6    6  502    0 -0.19334351972E+03 -0.14222164423E+03  0.17729252041E+03  0.29839797334E+03  0.00000000000E+00 0. -1.
         -1    1    6    6    0  502 -0.40587478421E+03 -0.16741818740E+03  0.33109218170E+03  0.54989564712E+03  0.00000000000E+00 0.  1.
<mgrwt>
<rscale>  0 0.77725708E+03</rscale>
<asrwt>0</asrwt>
<pdfrwt beam="1">  1        1 0.17775573E+00 0.77725708E+03</pdfrwt>
<pdfrwt beam="2">  1       -2 0.98343996E-01 0.77725708E+03</pdfrwt>
<totfact> 0.88853956E+00</totfact>
</mgrwt>
</event>
<event>
12    3  0.1182097E-007  0.7383642E+03  0.7818608E-02  0.9653784E-01
          3   -1    0    0  501    0  0.00000000000E+00  0.00000000000E+00  0.13749305059E+04  0.13749305059E+04  0.00000000000E+00 0. -1.
         -4   -1    0    0    0  501 -0.00000000000E+00 -0.00000000000E+00 -0.49312294126E+03  0.49312294126E+03  0.00000000000E+00 0.  1.
        -24    2    1    2    0    0 -0.51634380487E+03 -0.45450612234E+03  0.17674607925E+03  0.71470986438E+03  0.79901649712E+02 0.  0.
    5000000    2    1    2    0    0  0.51634380487E+03  0.45450612234E+03  0.70506148541E+03  0.11533435828E+04  0.59991914597E+03 0.  0.
        -24    2    4    4    0    0  0.15530752283E+02  0.23391854036E+03  0.51017037071E+03  0.56662888903E+03  0.76389809181E+02 0.  0.
         24    2    4    4    0    0  0.50081305259E+03  0.22058758199E+03  0.19489111470E+03  0.58671469377E+03  0.82334624065E+02 0.  0.
         11    1    3    3    0    0 -0.16970124834E+03 -0.18954040916E+03  0.89993406374E+02  0.26985717257E+03  0.00000000000E+00 0. -1.
        -12    1    3    3    0    0 -0.34664255653E+03 -0.26496571318E+03  0.86752672876E+02  0.44485269181E+03  0.00000000000E+00 0.  1.
         15    1    5    5    0    0  0.14619586994E+02  0.10262002550E+03  0.31315273667E+03  0.32986724022E+03  0.17770000000E+01 0. -1.
        -16    1    5    5    0    0  0.91116528834E+00  0.13129851486E+03  0.19701763405E+03  0.23676164882E+03  0.00000000000E+00 0.  1.
          4    1    6    6  502    0  0.47415322403E+03  0.19091819620E+03  0.16586784847E+03  0.53738550469E+03  0.00000000000E+00 0. -1.
         -3    1    6    6    0  502  0.26659828563E+02  0.29669385791E+02  0.29023266232E+02  0.49329189077E+02  0.00000000000E+00 0.  1.
<mgrwt>
<rscale>  0 0.73836421E+03</rscale>
<asrwt>0</asrwt>
<pdfrwt beam="1">  1        3 0.21152777E+00 0.73836421E+03</pdfrwt>
<pdfrwt beam="2">  1       -4 0.75865069E-01 0.73836421E+03</pdfrwt>
<totfact> 0.44292116E-01</totfact>
</mgrwt>
</event>
<event>
12    3  0.1182097E-007  0.9258660E+03  0.7818608E-02  0.9393813E-01
          1   -1    0    0  501    0  0.00000000000E+00  0.00000000000E+00  0.27715236070E+04  0.27715236070E+04  0.00000000000E+00 0. -1.
         -2   -1    0    0    0  501 -0.00000000000E+00 -0.00000000000E+00 -0.54733634725E+03  0.54733634725E+03  0.00000000000E+00 0.  1.
        -24    2    1    2    0    0  0.19528879953E+03  0.83394375427E+03  0.20952670442E+04  0.22651365960E+04  0.84260974108E+02 0.  0.
    5000000    2    1    2    0    0 -0.19528879953E+03 -0.83394375427E+03  0.12892021553E+03  0.10537233582E+04  0.60009382023E+03 0.  0.
        -24    2    4    4    0    0  0.93163747272E+02  0.20230205259E+01  0.10914501591E+03  0.16545825327E+03  0.82342107458E+02 0.  0.
         24    2    4    4    0    0 -0.28845254680E+03 -0.83596677480E+03  0.19775199617E+02  0.88826510490E+03  0.81108062083E+02 0.  0.
         13    1    3    3    0    0  0.98246264920E+02  0.42948315124E+03  0.11881586277E+04  0.12672130959E+04  0.00000000000E+00 0. -1.
        -14    1    3    3    0    0  0.97042534610E+02  0.40446060303E+03  0.90710841646E+03  0.99792350014E+03  0.00000000000E+00 0.  1.
         15    1    5    5    0    0  0.55632966690E+02  0.30746639280E+02  0.23791669064E+02  0.67893917662E+02  0.17770000000E+01 0. -1.
        -16    1    5    5    0    0  0.37530780582E+02 -0.28723618754E+02  0.85353346847E+02  0.97564335612E+02  0.00000000000E+00 0.  1.
          2    1    6    6  502    0 -0.26859918537E+03 -0.78406193088E+03 -0.14017758522E+01  0.82879466625E+03  0.00000000000E+00 0. -1.
         -1    1    6    6    0  502 -0.19853361428E+02 -0.51904843920E+02  0.21176975469E+02  0.59470438643E+02  0.00000000000E+00 0.  1.
<mgrwt>
<rscale>  0 0.92586601E+03</rscale>
<asrwt>0</asrwt>
<pdfrwt beam="1">  1        1 0.42638824E+00 0.92586601E+03</pdfrwt>
<pdfrwt beam="2">  1       -2 0.84205594E-01 0.92586601E+03</pdfrwt>
<totfact> 0.97326066E-01</totfact>
</mgrwt>
</event>
<event>
12    3  0.1404712E-007  0.1231509E+04  0.7818608E-02  0.9085716E-01
          1   -1    0    0  501    0  0.00000000000E+00  0.00000000000E+00  0.16178234609E+04  0.16178234609E+04  0.00000000000E+00 0. -1.
         -4   -1    0    0    0  501 -0.00000000000E+00 -0.00000000000E+00 -0.12844358601E+04  0.12844358601E+04  0.00000000000E+00 0.  1.
        -24    2    1    2    0    0 -0.12023128839E+04 -0.12442832276E+03 -0.50620725829E+03  0.13128808032E+04  0.79821905312E+02 0.  0.
    5000000    2    1    2    0    0  0.12023128839E+04  0.12442832276E+03  0.83959485913E+03  0.15893785178E+04  0.60013820655E+03 0.  0.
        -24    2    4    4    0    0  0.10365214363E+04  0.11697504856E+02  0.88919935312E+03  0.13679955048E+04  0.78884042621E+02 0.  0.
         24    2    4    4    0    0  0.16579144768E+03  0.11273081791E+03 -0.49604493991E+02  0.22138301298E+03  0.79716944114E+02 0.  0.
         13    1    3    3    0    0 -0.48669040458E+03 -0.77418941898E+02 -0.23720471449E+03  0.54692533225E+03  0.00000000000E+00 0. -1.
        -14    1    3    3    0    0 -0.71562247936E+03 -0.47009380865E+02 -0.26900254380E+03  0.76595547091E+03  0.00000000000E+00 0.  1.
         15    1    5    5    0    0  0.65642023435E+03 -0.26990874456E+02  0.58341331417E+03  0.87862977655E+03  0.17770000000E+01 0. -1.
        -16    1    5    5    0    0  0.38010120191E+03  0.38688379312E+02  0.30578603895E+03  0.48936572827E+03  0.00000000000E+00 0.  1.
          4    1    6    6  502    0  0.45684225303E+02  0.75517100087E+02 -0.34398615797E+02  0.94726689037E+02  0.00000000000E+00 0. -1.
         -3    1    6    6    0  502  0.12010722238E+03  0.37213717820E+02 -0.15205878194E+02  0.12665632394E+03  0.00000000000E+00 0.  1.
<mgrwt>
<rscale>  0 0.12315086E+04</rscale>
<asrwt>0</asrwt>
<pdfrwt beam="1">  1        1 0.24889592E+00 0.12315086E+04</pdfrwt>
<pdfrwt beam="2">  1       -4 0.19760552E+00 0.12315086E+04</pdfrwt>
<totfact> 0.34290248E-01</totfact>
</mgrwt>
</event>
<event>
12    3  0.1182097E-007  0.7724620E+03  0.7818608E-02  0.9600755E-01
         -2   -1    0    0    0  501 -0.00000000000E+00  0.00000000000E+00  0.22273313639E+03  0.22273313639E+03  0.00000000000E+00 0.  1.
          1   -1    0    0  501    0  0.00000000000E+00 -0.00000000000E+00 -0.27882484967E+04  0.27882484967E+04  0.00000000000E+00 0. -1.
        -24    2    1    2    0    0 -0.17002699574E+03  0.64267636435E+03 -0.12790840477E+04  0.14435519263E+04  0.76446545356E+02 0.  0.
    5000000    2    1    2    0    0  0.17002699574E+03 -0.64267636435E+03 -0.12864313126E+04  0.15674297068E+04  0.59999022914E+03 0.  0.
        -24    2    4    4    0    0  0.55264429288E+02 -0.71972823583E+03 -0.11222880232E+04  0.13366945881E+04  0.78480088801E+02 0.  0.
         24    2    4    4    0    0  0.11476256646E+03  0.77051871479E+02 -0.16414328944E+03  0.23073511867E+03  0.84783476934E+02 0.  0.
         13    1    3    3    0    0 -0.92020193827E+02  0.21723252764E+03 -0.48367654922E+03  0.53814560428E+03  0.00000000000E+00 0. -1.
        -14    1    3    3    0    0 -0.78006801917E+02  0.42544383671E+03 -0.79540749846E+03  0.90540632201E+03  0.00000000000E+00 0.  1.
         15    1    5    5    0    0 -0.19469824213E+02 -0.20404065334E+03 -0.30976744626E+03  0.37144406142E+03  0.17770000000E+01 0. -1.
        -16    1    5    5    0    0  0.74734253501E+02 -0.51568758249E+03 -0.81252057694E+03  0.96525052672E+03  0.00000000000E+00 0.  1.
          4    1    6    6  502    0  0.48726237338E+02 -0.28180595328E+00 -0.16471426123E+02  0.51435722005E+02  0.00000000000E+00 0. -1.
         -3    1    6    6    0  502  0.66036329119E+02  0.77333677433E+02 -0.14767186331E+03  0.17929939666E+03  0.00000000000E+00 0.  1.
<mgrwt>
<rscale>  0 0.77246204E+03</rscale>
<asrwt>0</asrwt>
<pdfrwt beam="1">  1        1 0.42896126E+00 0.77246204E+03</pdfrwt>
<pdfrwt beam="2">  1       -2 0.34266640E-01 0.77246204E+03</pdfrwt>
<totfact> 0.62798750E+00</totfact>
</mgrwt>
</event>
<event>
12    3  0.1182097E-007  0.8530142E+03  0.7818608E-02  0.9486300E-01
          1   -1    0    0  501    0  0.00000000000E+00  0.00000000000E+00  0.87203237081E+03  0.87203237081E+03  0.00000000000E+00 0. -1.
         -2   -1    0    0    0  501 -0.00000000000E+00 -0.00000000000E+00 -0.98776701705E+03  0.98776701705E+03  0.00000000000E+00 0.  1.
        -24    2    1    2    0    0 -0.52875791235E+03  0.53553258297E+03 -0.40024228604E+03  0.85615889943E+03  0.80212818431E+02 0.  0.
    5000000    2    1    2    0    0  0.52875791235E+03 -0.53553258297E+03  0.28450763981E+03  0.10036404884E+04  0.59997462914E+03 0.  0.
        -24    2    4    4    0    0  0.53322791404E+03 -0.13729010433E+03  0.19126354220E+03  0.58710206137E+03  0.70189079182E+02 0.  0.
         24    2    4    4    0    0 -0.44700016858E+01 -0.39824247864E+03  0.93244097610E+02  0.41653842706E+03  0.78694007213E+02 0.  0.
         11    1    3    3    0    0 -0.34980639799E+03  0.36443794316E+03 -0.22596657236E+03  0.55338993694E+03  0.00000000000E+00 0. -1.
        -12    1    3    3    0    0 -0.17895151437E+03  0.17109463981E+03 -0.17427571368E+03  0.30276896249E+03  0.00000000000E+00 0.  1.
         15    1    5    5    0    0  0.63964289955E+02  0.62339406546E+01  0.19394364283E+02  0.67153492094E+02  0.17770000000E+01 0. -1.
        -16    1    5    5    0    0  0.46926362408E+03 -0.14352404498E+03  0.17186917791E+03  0.51994856928E+03  0.00000000000E+00 0.  1.
          2    1    6    6  502    0 -0.40552384011E+01 -0.22390418180E+03  0.92248355432E+02  0.24219679326E+03  0.00000000000E+00 0. -1.
         -1    1    6    6    0  502 -0.41476328462E+00 -0.17433829684E+03  0.99574217777E+00  0.17434163380E+03  0.00000000000E+00 0.  1.
<mgrwt>
<rscale>  0 0.85301417E+03</rscale>
<asrwt>0</asrwt>
<pdfrwt beam="1">  1        1 0.13415883E+00 0.85301417E+03</pdfrwt>
<pdfrwt beam="2">  1       -2 0.15196416E+00 0.85301417E+03</pdfrwt>
<totfact> 0.49241967E+00</totfact>
</mgrwt>
</event>
<event>
12    3  0.1182097E-007  0.1292940E+04  0.7818608E-02  0.9035183E-01
         -2   -1    0    0    0  501 -0.00000000000E+00  0.00000000000E+00  0.56376711988E+03  0.56376711988E+03  0.00000000000E+00 0.  1.
          1   -1    0    0  501    0  0.00000000000E+00 -0.00000000000E+00 -0.36111898021E+04  0.36111898021E+04  0.00000000000E+00 0. -1.
        -24    2    1    2    0    0 -0.10238069383E+03 -0.12561432065E+04 -0.22151264837E+04  0.25498173451E+04  0.80034946647E+02 0.  0.
    5000000    2    1    2    0    0  0.10238069383E+03  0.12561432065E+04 -0.83229619850E+03  0.16251395769E+04  0.59998676704E+03 0.  0.
        -24    2    4    4    0    0 -0.11627935730E+03  0.83659761599E+03 -0.28077566704E+03  0.89366029349E+03  0.79857904702E+02 0.  0.
         24    2    4    4    0    0  0.21866005113E+03  0.41954559052E+03 -0.55152053145E+03  0.73147928341E+03  0.84001934205E+02 0.  0.
         13    1    3    3    0    0 -0.79259631299E+02 -0.88584833496E+03 -0.16336085048E+04  0.18600231473E+04  0.00000000000E+00 0. -1.
        -14    1    3    3    0    0 -0.23121062533E+02 -0.37029487156E+03 -0.58151797896E+03  0.68979419777E+03  0.00000000000E+00 0.  1.
         15    1    5    5    0    0 -0.12132994703E+03  0.62245956870E+03 -0.20649035131E+03  0.66694699462E+03  0.17770000000E+01 0. -1.
        -16    1    5    5    0    0  0.50505897267E+01  0.21413804729E+03 -0.74285315735E+02  0.22671329887E+03  0.00000000000E+00 0.  1.
          2    1    6    6  502    0  0.12571300939E+03  0.17487752244E+03 -0.29260750510E+03  0.36332500689E+03  0.00000000000E+00 0. -1.
         -1    1    6    6    0  502  0.92947041738E+02  0.24466806808E+03 -0.25891302635E+03  0.36815427652E+03  0.00000000000E+00 0.  1.
<mgrwt>
<rscale>  0 0.12929397E+04</rscale>
<asrwt>0</asrwt>
<pdfrwt beam="1">  1        1 0.55556765E+00 0.12929397E+04</pdfrwt>
<pdfrwt beam="2">  1       -2 0.86733404E-01 0.12929397E+04</pdfrwt>
<totfact> 0.20395730E-01</totfact>
</mgrwt>
</event>
<event>
12    3  0.1182097E-007  0.1709983E+04  0.7818608E-02  0.8755691E-01
          1   -1    0    0  501    0  0.00000000000E+00  0.00000000000E+00  0.96459012204E+03  0.96459012204E+03  0.00000000000E+00 0. -1.
         -2   -1    0    0    0  501 -0.00000000000E+00 -0.00000000000E+00 -0.32567176630E+04  0.32567176630E+04  0.00000000000E+00 0.  1.
        -24    2    1    2    0    0  0.12975955825E+04  0.10399718822E+04 -0.58695924259E+03  0.17650922749E+04  0.75721692913E+02 0.  0.
    5000000    2    1    2    0    0 -0.12975955825E+04 -0.10399718822E+04 -0.17051682984E+04  0.24562155102E+04  0.60008324024E+03 0.  0.
        -24    2    4    4    0    0 -0.19584082422E+03  0.42412244025E+02 -0.14343026583E+03  0.25829880310E+03  0.77418367661E+02 0.  0.
         24    2    4    4    0    0 -0.11017547583E+04 -0.10823841262E+04 -0.15617380325E+04  0.21979167071E+04  0.79957644498E+02 0.  0.
         11    1    3    3    0    0  0.38998293370E+03  0.26959033552E+03 -0.17416883995E+03  0.50507467011E+03  0.00000000000E+00 0. -1.
        -12    1    3    3    0    0  0.90761264882E+03  0.77038154667E+03 -0.41279040265E+03  0.12600176047E+04  0.00000000000E+00 0.  1.
         15    1    5    5    0    0 -0.14804141754E+03  0.49322732304E+01 -0.12763721463E+03  0.19553773271E+03  0.17770000000E+01 0. -1.
        -16    1    5    5    0    0 -0.47799406681E+02  0.37479970795E+02 -0.15793051197E+02  0.62761070385E+02  0.00000000000E+00 0.  1.
          4    1    6    6  502    0 -0.21134821069E+03 -0.16557984823E+03 -0.27675988462E+03  0.38559147557E+03  0.00000000000E+00 0. -1.
         -3    1    6    6    0  502 -0.89040654761E+03 -0.91680427799E+03 -0.12849781479E+04  0.18123252315E+04  0.00000000000E+00 0.  1.
<mgrwt>
<rscale>  0 0.17099831E+04</rscale>
<asrwt>0</asrwt>
<pdfrwt beam="1">  1        1 0.14839848E+00 0.17099831E+04</pdfrwt>
<pdfrwt beam="2">  1       -2 0.50103349E+00 0.17099831E+04</pdfrwt>
<totfact> 0.21162237E-02</totfact>
</mgrwt>
</event>
<event>
12    3  0.1182097E-007  0.7315987E+03  0.7818608E-02  0.9664670E-01
          1   -1    0    0  501    0  0.00000000000E+00  0.00000000000E+00  0.24024767637E+04  0.24024767637E+04  0.00000000000E+00 0. -1.
         -2   -1    0    0    0  501 -0.00000000000E+00 -0.00000000000E+00 -0.28841758613E+03  0.28841758613E+03  0.00000000000E+00 0.  1.
        -24    2    1    2    0    0 -0.70515294344E+03 -0.31246451637E+02  0.67705679503E+03  0.98135696559E+03  0.80240736773E+02 0.  0.
    5000000    2    1    2    0    0  0.70515294344E+03  0.31246451637E+02  0.14370023825E+04  0.17095373842E+04  0.59943740812E+03 0.  0.
        -24    2    4    4    0    0  0.66502913930E+03  0.10199636571E+03  0.14442990139E+04  0.15953681661E+04  0.80826537326E+02 0.  0.
         24    2    4    4    0    0  0.40123804145E+02 -0.70749914073E+02 -0.72966313924E+01  0.11416921809E+03  0.79786587405E+02 0.  0.
         13    1    3    3    0    0 -0.55919486740E+03 -0.44595004507E+02  0.49952710525E+03  0.75114242526E+03  0.00000000000E+00 0. -1.
        -14    1    3    3    0    0 -0.14595807605E+03  0.13348552870E+02  0.17752968978E+03  0.23021454033E+03  0.00000000000E+00 0.  1.
         15    1    5    5    0    0  0.61098097970E+03  0.82435607895E+02  0.13613953482E+04  0.14944878182E+04  0.17770000000E+01 0. -1.
        -16    1    5    5    0    0  0.54048159596E+02  0.19560757815E+02  0.82903665755E+02  0.10088034793E+03  0.00000000000E+00 0.  1.
          4    1    6    6  502    0  0.30464603868E+02 -0.59407857996E+02 -0.40282769133E+02  0.77974913719E+02  0.00000000000E+00 0. -1.
         -3    1    6    6    0  502  0.96592002764E+01 -0.11342056077E+02  0.32986137740E+02  0.36194304373E+02  0.00000000000E+00 0.  1.
<mgrwt>
<rscale>  0 0.73159873E+03</rscale>
<asrwt>0</asrwt>
<pdfrwt beam="1">  1        1 0.36961180E+00 0.73159873E+03</pdfrwt>
<pdfrwt beam="2">  1       -2 0.44371938E-01 0.73159873E+03</pdfrwt>
<totfact> 0.70539601E+00</totfact>
</mgrwt>
</event>
<event>
12    3  0.1182097E-007  0.6255479E+03  0.7818608E-02  0.9853776E-01
         -2   -1    0    0    0  501 -0.00000000000E+00  0.00000000000E+00  0.22086651862E+03  0.22086651862E+03  0.00000000000E+00 0.  1.
          1   -1    0    0  501    0  0.00000000000E+00 -0.00000000000E+00 -0.18231177002E+04  0.18231177002E+04  0.00000000000E+00 0. -1.
        -24    2    1    2    0    0 -0.25143041429E+03  0.41857265375E+03 -0.65927444619E+03  0.82425345746E+03  0.79565363259E+02 0.  0.
    5000000    2    1    2    0    0  0.25143041429E+03 -0.41857265375E+03 -0.94297673536E+03  0.12197307613E+04  0.60009806452E+03 0.  0.
        -24    2    4    4    0    0 -0.14749478913E+03 -0.30032545689E+03 -0.34567502680E+03  0.48747221498E+03  0.78662846065E+02 0.  0.
         24    2    4    4    0    0  0.39892520342E+03 -0.11824719686E+03 -0.59730170856E+03  0.73225854636E+03  0.79432551137E+02 0.  0.
         11    1    3    3    0    0 -0.17543660375E+03  0.32502287093E+03 -0.54355292325E+03  0.65716637843E+03  0.00000000000E+00 0. -1.
        -12    1    3    3    0    0 -0.75993810540E+02  0.93549782821E+02 -0.11572152294E+03  0.16708707903E+03  0.00000000000E+00 0.  1.
         15    1    5    5    0    0 -0.12587731081E+03 -0.19439230766E+03 -0.19960667081E+03  0.30574408811E+03  0.17770000000E+01 0. -1.
        -16    1    5    5    0    0 -0.21617478315E+02 -0.10593314924E+03 -0.14606835599E+03  0.18172812687E+03  0.00000000000E+00 0.  1.
          4    1    6    6  502    0  0.27467784849E+03 -0.48193784817E+02 -0.35986520007E+03  0.45527302091E+03  0.00000000000E+00 0. -1.
         -3    1    6    6    0  502  0.12424735493E+03 -0.70053412040E+02 -0.23743650849E+03  0.27698552545E+03  0.00000000000E+00 0.  1.
<mgrwt>
<rscale>  0 0.62554787E+03</rscale>
<asrwt>0</asrwt>
<pdfrwt beam="1">  1        1 0.28047964E+00 0.62554787E+03</pdfrwt>
<pdfrwt beam="2">  1       -2 0.33979465E-01 0.62554787E+03</pdfrwt>
<totfact> 0.29374379E+01</totfact>
</mgrwt>
</event>
<event>
12    3  0.1182097E-007  0.6338276E+03  0.7818608E-02  0.9837608E-01
          1   -1    0    0  501    0  0.00000000000E+00  0.00000000000E+00  0.99174118599E+03  0.99174118599E+03  0.00000000000E+00 0. -1.
         -2   -1    0    0    0  501 -0.00000000000E+00 -0.00000000000E+00 -0.53124975849E+03  0.53124975849E+03  0.00000000000E+00 0.  1.
        -24    2    1    2    0    0 -0.39562223137E+03 -0.31799000317E+03  0.52467790014E+03  0.73448021882E+03  0.80868417050E+02 0.  0.
    5000000    2    1    2    0    0  0.39562223137E+03  0.31799000317E+03 -0.64186472630E+02  0.78851072566E+03  0.59999555760E+03 0.  0.
        -24    2    4    4    0    0 -0.12940344477E+03  0.12323226152E+03 -0.10233927252E+03  0.22140441949E+03  0.81333563005E+02 0.  0.
         24    2    4    4    0    0  0.52502567614E+03  0.19475774165E+03  0.38152799893E+02  0.56710630617E+03  0.81064096995E+02 0.  0.
         13    1    3    3    0    0 -0.36643207800E+03 -0.26561173288E+03  0.47991655718E+03  0.65965291047E+03  0.00000000000E+00 0. -1.
        -14    1    3    3    0    0 -0.29190153371E+02 -0.52378270288E+02  0.44761342955E+02  0.74827308353E+02  0.00000000000E+00 0.  1.
         15    1    5    5    0    0 -0.49310636243E+02  0.91369882607E+01 -0.54352210280E+02  0.73975292446E+02  0.17770000000E+01 0. -1.
        -16    1    5    5    0    0 -0.80092808525E+02  0.11409527326E+03 -0.47987062243E+02  0.14742912704E+03  0.00000000000E+00 0.  1.
          4    1    6    6  502    0  0.34927586233E+03  0.89058873943E+02  0.32953209325E+02  0.36195445161E+03  0.00000000000E+00 0. -1.
         -3    1    6    6    0  502  0.17574981381E+03  0.10569886771E+03  0.51995905680E+01  0.20515185456E+03  0.00000000000E+00 0.  1.
<mgrwt>
<rscale>  0 0.63382756E+03</rscale>
<asrwt>0</asrwt>
<pdfrwt beam="1">  1        1 0.15257557E+00 0.63382756E+03</pdfrwt>
<pdfrwt beam="2">  1       -2 0.81730732E-01 0.63382756E+03</pdfrwt>
<totfact> 0.18396630E+01</totfact>
</mgrwt>
</event>
<event>
12    3  0.1182097E-007  0.8130651E+03  0.7818608E-02  0.9541296E-01
          1   -1    0    0  501    0  0.00000000000E+00  0.00000000000E+00  0.24461190969E+04  0.24461190969E+04  0.00000000000E+00 0. -1.
         -2   -1    0    0    0  501 -0.00000000000E+00 -0.00000000000E+00 -0.27930889525E+03  0.27930889525E+03  0.00000000000E+00 0.  1.
        -24    2    1    2    0    0 -0.56868481427E+03  0.42185994809E+03  0.11058203050E+04  0.13157020607E+04  0.82856091407E+02 0.  0.
    5000000    2    1    2    0    0  0.56868481427E+03 -0.42185994809E+03  0.10609898967E+04  0.14097259315E+04  0.60021613368E+03 0.  0.
        -24    2    4    4    0    0  0.67121276430E+03 -0.29254971992E+03  0.89105671858E+03  0.11559976095E+04  0.78971411824E+02 0.  0.
         24    2    4    4    0    0 -0.10252795003E+03 -0.12931022817E+03  0.16993317812E+03  0.25372832194E+03  0.90926677522E+02 0.  0.
         13    1    3    3    0    0 -0.36088596727E+03  0.22631009185E+03  0.61872322988E+03  0.75118131915E+03  0.00000000000E+00 0. -1.
        -14    1    3    3    0    0 -0.20779884701E+03  0.19554985624E+03  0.48709707508E+03  0.56452074155E+03  0.00000000000E+00 0.  1.
         15    1    5    5    0    0  0.27289082091E+03 -0.77993949893E+02  0.33083665038E+03  0.43589964823E+03  0.17770000000E+01 0. -1.
        -16    1    5    5    0    0  0.39832194338E+03 -0.21455577003E+03  0.56022006820E+03  0.72009796129E+03  0.00000000000E+00 0.  1.
          4    1    6    6  502    0 -0.11122467833E+03 -0.10586809259E+03  0.11029465528E+03  0.18906055401E+03  0.00000000000E+00 0. -1.
         -3    1    6    6    0  502  0.86967283018E+01 -0.23442135576E+02  0.59638522837E+02  0.64667767935E+02  0.00000000000E+00 0.  1.
<mgrwt>
<rscale>  0 0.81306511E+03</rscale>
<asrwt>0</asrwt>
<pdfrwt beam="1">  1        1 0.37632600E+00 0.81306511E+03</pdfrwt>
<pdfrwt beam="2">  1       -2 0.42970601E-01 0.81306511E+03</pdfrwt>
<totfact> 0.69319802E+00</totfact>
</mgrwt>
</event>
<event>
12    3  0.1182097E-007  0.8277575E+03  0.7818608E-02  0.9520686E-01
          1   -1    0    0  501    0  0.00000000000E+00  0.00000000000E+00  0.12533473697E+04  0.12533473697E+04  0.00000000000E+00 0. -1.
         -2   -1    0    0    0  501 -0.00000000000E+00 -0.00000000000E+00 -0.77173886490E+03  0.77173886490E+03  0.00000000000E+00 0.  1.
        -24    2    1    2    0    0 -0.68960804657E+03 -0.33471340279E+03 -0.24686607252E+03  0.80928218039E+03  0.80015434927E+02 0.  0.
    5000000    2    1    2    0    0  0.68960804657E+03  0.33471340279E+03  0.72847457732E+03  0.12158040542E+04  0.59992663595E+03 0.  0.
        -24    2    4    4    0    0  0.17702215546E+03  0.32350280924E+03  0.55052148965E+03  0.66750786846E+03  0.80634563224E+02 0.  0.
         24    2    4    4    0    0  0.51258589111E+03  0.11210593555E+02  0.17795308768E+03  0.54829618575E+03  0.78047631108E+02 0.  0.
         11    1    3    3    0    0 -0.50407784327E+03 -0.22163302014E+03 -0.20761784863E+03  0.58849030473E+03  0.00000000000E+00 0. -1.
        -12    1    3    3    0    0 -0.18553020331E+03 -0.11308038265E+03 -0.39248223892E+02  0.22079187566E+03  0.00000000000E+00 0.  1.
         15    1    5    5    0    0  0.16073032742E+03  0.28575210935E+03  0.43382002075E+03  0.54377520565E+03  0.17770000000E+01 0. -1.
        -16    1    5    5    0    0  0.16291828044E+02  0.37750699885E+02  0.11670146890E+03  0.12373266281E+03  0.00000000000E+00 0.  1.
          2    1    6    6  502    0  0.47860255331E+03 -0.97215158132E+01  0.16397702409E+03  0.50600728881E+03  0.00000000000E+00 0. -1.
         -1    1    6    6    0  502  0.33983337802E+02  0.20932109368E+02  0.13976063592E+02  0.42288896938E+02  0.00000000000E+00 0.  1.
<mgrwt>
<rscale>  0 0.82775750E+03</rscale>
<asrwt>0</asrwt>
<pdfrwt beam="1">  1        1 0.19282267E+00 0.82775750E+03</pdfrwt>
<pdfrwt beam="2">  1       -2 0.11872906E+00 0.82775750E+03</pdfrwt>
<totfact> 0.47577224E+00</totfact>
</mgrwt>
</event>
<event>
12    3  0.1182097E-007  0.3488082E+03  0.7818608E-02  0.1063105E+00
          1   -1    0    0  501    0  0.00000000000E+00  0.00000000000E+00  0.10921518157E+04  0.10921518157E+04  0.00000000000E+00 0. -1.
         -2   -1    0    0    0  501 -0.00000000000E+00 -0.00000000000E+00 -0.27204359296E+03  0.27204359296E+03  0.00000000000E+00 0.  1.
        -24    2    1    2    0    0 -0.26226434775E+03  0.67811918103E+02 -0.35445916584E+02  0.28470900890E+03  0.80135899645E+02 0.  0.
    5000000    2    1    2    0    0  0.26226434775E+03 -0.67811918103E+02  0.85555413935E+03  0.10794863998E+04  0.59994746239E+03 0.  0.
        -24    2    4    4    0    0  0.10151896374E+02  0.10224183204E+03  0.73151679406E+03  0.74296206330E+03  0.79494366406E+02 0.  0.
         24    2    4    4    0    0  0.25211245137E+03 -0.17005375014E+03  0.12403734529E+03  0.33652433649E+03  0.73378470606E+02 0.  0.
         13    1    3    3    0    0 -0.96327074417E+02  0.35055923753E+02 -0.51669084403E+02  0.11479336801E+03  0.00000000000E+00 0. -1.
        -14    1    3    3    0    0 -0.16593727333E+03  0.32755994350E+02  0.16223167820E+02  0.16991564089E+03  0.00000000000E+00 0.  1.
         15    1    5    5    0    0  0.22003911141E+02  0.99069753886E+02  0.45545198485E+03  0.46662474910E+03  0.17770000000E+01 0. -1.
        -16    1    5    5    0    0 -0.11852014767E+02  0.31720781530E+01  0.27606480921E+03  0.27633731420E+03  0.00000000000E+00 0.  1.
          4    1    6    6  502    0  0.98574647340E+02 -0.26660783834E+02  0.30635447150E+02  0.10661279996E+03  0.00000000000E+00 0. -1.
         -3    1    6    6    0  502  0.15353780403E+03 -0.14339296631E+03  0.93401898141E+02  0.22991153653E+03  0.00000000000E+00 0.  1.
<mgrwt>
<rscale>  0 0.34880819E+03</rscale>
<asrwt>0</asrwt>
<pdfrwt beam="1">  1        1 0.16802335E+00 0.34880819E+03</pdfrwt>
<pdfrwt beam="2">  1       -2 0.41852861E-01 0.34880819E+03</pdfrwt>
<totfact> 0.65406961E+01</totfact>
</mgrwt>
</event>
<event>
12    3  0.1182097E-007  0.1798434E+04  0.7818608E-02  0.8707133E-01
          1   -1    0    0  501    0  0.00000000000E+00  0.00000000000E+00  0.14564248114E+04  0.14564248114E+04  0.00000000000E+00 0. -1.
         -2   -1    0    0    0  501 -0.00000000000E+00 -0.00000000000E+00 -0.31406911715E+04  0.31406911715E+04  0.00000000000E+00 0.  1.
        -24    2    1    2    0    0  0.17185707972E+04 -0.41985915790E+03 -0.20335590896E+04  0.26965941157E+04  0.80560265538E+02 0.  0.
    5000000    2    1    2    0    0 -0.17185707972E+04  0.41985915790E+03  0.34929272940E+03  0.19005218672E+04  0.60017552382E+03 0.  0.
        -24    2    4    4    0    0 -0.15216809884E+04  0.21630843815E+03  0.15317294011E+03  0.15466743504E+04  0.80232325102E+02 0.  0.
         24    2    4    4    0    0 -0.19688980887E+03  0.20355071975E+03  0.19611978930E+03  0.35384751677E+03  0.80911068619E+02 0.  0.
         13    1    3    3    0    0  0.68425565006E+03 -0.12791754136E+03 -0.78462452766E+03  0.10489062596E+04  0.00000000000E+00 0. -1.
        -14    1    3    3    0    0  0.10343151472E+04 -0.29194161654E+03 -0.12489345619E+04  0.16476878561E+04  0.00000000000E+00 0.  1.
         15    1    5    5    0    0 -0.33482243245E+03  0.81296915959E+02  0.35482325597E+02  0.34637754398E+03  0.17770000000E+01 0. -1.
        -16    1    5    5    0    0 -0.11868585559E+04  0.13501152219E+03  0.11769061451E+03  0.12002968065E+04  0.00000000000E+00 0.  1.
          2    1    6    6  502    0 -0.58514060215E+02  0.92872859021E+02  0.37409804004E+02  0.11596877434E+03  0.00000000000E+00 0. -1.
         -1    1    6    6    0  502 -0.13837574865E+03  0.11067786073E+03  0.15870998529E+03  0.23787874243E+03  0.00000000000E+00 0.  1.
<mgrwt>
<rscale>  0 0.17984336E+04</rscale>
<asrwt>0</asrwt>
<pdfrwt beam="1">  1        1 0.22406536E+00 0.17984336E+04</pdfrwt>
<pdfrwt beam="2">  1       -2 0.48318324E+00 0.17984336E+04</pdfrwt>
<totfact> 0.11731950E-02</totfact>
</mgrwt>
</event>
<event>
12    3  0.1182097E-007  0.1763338E+04  0.7818608E-02  0.8726043E-01
          1   -1    0    0  501    0  0.00000000000E+00  0.00000000000E+00  0.41604694996E+04  0.41604694996E+04  0.00000000000E+00 0. -1.
         -2   -1    0    0    0  501 -0.00000000000E+00 -0.00000000000E+00 -0.76791880497E+03  0.76791880497E+03  0.00000000000E+00 0.  1.
        -24    2    1    2    0    0 -0.15046980730E+04  0.86516892789E+03  0.16739138128E+04  0.24131304264E+04  0.92614457959E+02 0.  0.
    5000000    2    1    2    0    0  0.15046980730E+04 -0.86516892789E+03  0.17186368818E+04  0.25152578781E+04  0.60014656318E+03 0.  0.
        -24    2    4    4    0    0  0.11865462722E+04 -0.47529201397E+03  0.14655173352E+04  0.19463285883E+04  0.81604899129E+02 0.  0.
         24    2    4    4    0    0  0.31815180080E+03 -0.38987691391E+03  0.25311954669E+03  0.56892928980E+03  0.79915302194E+02 0.  0.
         13    1    3    3    0    0 -0.71908204958E+03  0.36810485178E+03  0.74464817028E+03  0.10986724141E+04  0.00000000000E+00 0. -1.
        -14    1    3    3    0    0 -0.78561602339E+03  0.49706407610E+03  0.92926564250E+03  0.13144580124E+04  0.00000000000E+00 0.  1.
         15    1    5    5    0    0  0.17937236165E+03 -0.10400963783E+03  0.24120275313E+03  0.31807919569E+03  0.17770000000E+01 0. -1.
        -16    1    5    5    0    0  0.10071739105E+04 -0.37128237614E+03  0.12243145820E+04  0.16282493926E+04  0.00000000000E+00 0.  1.
          2    1    6    6  502    0  0.25073872123E+03 -0.25499698201E+03  0.19497597940E+03  0.40731928472E+03  0.00000000000E+00 0. -1.
         -1    1    6    6    0  502  0.67413079570E+02 -0.13487993190E+03  0.58143567287E+02  0.16161000508E+03  0.00000000000E+00 0.  1.
<mgrwt>
<rscale>  0 0.17633380E+04</rscale>
<asrwt>0</asrwt>
<pdfrwt beam="1">  1        1 0.64007222E+00 0.17633380E+04</pdfrwt>
<pdfrwt beam="2">  1       -2 0.11814136E+00 0.17633380E+04</pdfrwt>
<totfact> 0.31159924E-02</totfact>
</mgrwt>
</event>
<event>
12    3  0.1182097E-007  0.1183169E+04  0.7818608E-02  0.9127718E-01
          1   -1    0    0  501    0  0.00000000000E+00  0.00000000000E+00  0.11863628474E+04  0.11863628474E+04  0.00000000000E+00 0. -1.
         -2   -1    0    0    0  501 -0.00000000000E+00 -0.00000000000E+00 -0.13090311167E+04  0.13090311167E+04  0.00000000000E+00 0.  1.
        -24    2    1    2    0    0  0.45601185751E+03  0.10741037015E+04  0.57025357832E+02  0.11710375486E+04  0.80196464651E+02 0.  0.
    5000000    2    1    2    0    0 -0.45601185751E+03 -0.10741037015E+04 -0.17969362714E+03  0.13243564156E+04  0.59998711650E+03 0.  0.
        -24    2    4    4    0    0 -0.15822971049E+03 -0.70380381309E+03  0.14924174497E+03  0.74101739778E+03  0.80356933586E+02 0.  0.
         24    2    4    4    0    0 -0.29778214703E+03 -0.37029988845E+03 -0.32893537210E+03  0.58333901778E+03  0.79307730851E+02 0.  0.
         11    1    3    3    0    0  0.39741336162E+03  0.88134361614E+03  0.25666915556E+02  0.96714153062E+03  0.00000000000E+00 0. -1.
        -12    1    3    3    0    0  0.58598495890E+02  0.19276008540E+03  0.31358442276E+02  0.20389601798E+03  0.00000000000E+00 0.  1.
         15    1    5    5    0    0 -0.70086319385E+02 -0.26805346361E+03  0.96166384081E+02  0.29328464445E+03  0.17770000000E+01 0. -1.
        -16    1    5    5    0    0 -0.88143391102E+02 -0.43575034949E+03  0.53075360884E+02  0.44773275333E+03  0.00000000000E+00 0.  1.
          4    1    6    6  502    0 -0.14763777090E+03 -0.15631577398E+03 -0.10572877491E+03  0.23960406181E+03  0.00000000000E+00 0. -1.
         -3    1    6    6    0  502 -0.15014437613E+03 -0.21398411446E+03 -0.22320659719E+03  0.34373495597E+03  0.00000000000E+00 0.  1.
<mgrwt>
<rscale>  0 0.11831686E+04</rscale>
<asrwt>0</asrwt>
<pdfrwt beam="1">  1        1 0.18251736E+00 0.11831686E+04</pdfrwt>
<pdfrwt beam="2">  1       -2 0.20138940E+00 0.11831686E+04</pdfrwt>
<totfact> 0.12190474E+00</totfact>
</mgrwt>
</event>
<event>
12    3  0.1182097E-007  0.4045023E+03  0.7818608E-02  0.1042232E+00
         -2   -1    0    0    0  501 -0.00000000000E+00  0.00000000000E+00  0.59855275100E+02  0.59855275100E+02  0.00000000000E+00 0.  1.
          1   -1    0    0  501    0  0.00000000000E+00 -0.00000000000E+00 -0.44667351342E+04  0.44667351342E+04  0.00000000000E+00 0. -1.
        -24    2    1    2    0    0 -0.12664843475E+03 -0.25254503466E+03 -0.22838374729E+04  0.23023616383E+04  0.71670708191E+02 0.  0.
    5000000    2    1    2    0    0  0.12664843475E+03  0.25254503466E+03 -0.21230423862E+04  0.22242287710E+04  0.60005485708E+03 0.  0.
        -24    2    4    4    0    0  0.23256066276E+01  0.35494118885E+03 -0.19168028869E+04  0.19509681700E+04  0.78452769225E+02 0.  0.
         24    2    4    4    0    0  0.12432282812E+03 -0.10239615419E+03 -0.20623949927E+03  0.27326060099E+03  0.78711415996E+02 0.  0.
         11    1    3    3    0    0 -0.53058161205E+02 -0.55430410220E+02 -0.80181313218E+03  0.80547625526E+03  0.00000000000E+00 0. -1.
        -12    1    3    3    0    0 -0.73590273547E+02 -0.19711462444E+03 -0.14820243407E+04  0.14968853831E+04  0.00000000000E+00 0.  1.
         15    1    5    5    0    0  0.10382362950E+02  0.34979085280E+03 -0.17952638046E+04  0.18290535038E+04  0.17770000000E+01 0. -1.
        -16    1    5    5    0    0 -0.80567563224E+01  0.51503360507E+01 -0.12153908235E+03  0.12191466615E+03  0.00000000000E+00 0.  1.
          4    1    6    6  502    0  0.36250893338E+02 -0.18399747302E+02 -0.92259955776E+01  0.41686891980E+02  0.00000000000E+00 0. -1.
         -3    1    6    6    0  502  0.88071934786E+02 -0.83996406888E+02 -0.19701350369E+03  0.23157370901E+03  0.00000000000E+00 0.  1.
<mgrwt>
<rscale>  0 0.40450233E+03</rscale>
<asrwt>0</asrwt>
<pdfrwt beam="1">  1        1 0.68718984E+00 0.40450233E+03</pdfrwt>
<pdfrwt beam="2">  1       -2 0.92085063E-02 0.40450233E+03</pdfrwt>
<totfact> 0.29720679E+00</totfact>
</mgrwt>
</event>
<event>
12    3  0.1182097E-007  0.1725331E+04  0.7818608E-02  0.8747047E-01
         -2   -1    0    0    0  501 -0.00000000000E+00  0.00000000000E+00  0.18838638410E+04  0.18838638410E+04  0.00000000000E+00 0.  1.
          1   -1    0    0  501    0  0.00000000000E+00 -0.00000000000E+00 -0.16370013043E+04  0.16370013043E+04  0.00000000000E+00 0. -1.
        -24    2    1    2    0    0 -0.87886570375E+03  0.14422186790E+04  0.34835876191E+03  0.17255623315E+04  0.61740503333E+02 0.  0.
    5000000    2    1    2    0    0  0.87886570375E+03 -0.14422186790E+04 -0.10149622526E+03  0.17953028138E+04  0.60034245732E+03 0.  0.
        -24    2    4    4    0    0  0.90224700563E+03 -0.14074627816E+04 -0.21650817536E+02  0.16738883360E+04  0.80201389490E+02 0.  0.
         24    2    4    4    0    0 -0.23381301885E+02 -0.34755897409E+02 -0.79845407723E+02  0.12141447772E+03  0.81311306614E+02 0.  0.
         11    1    3    3    0    0 -0.36741296507E+03  0.65376806069E+03  0.13876607799E+03  0.76266702334E+03  0.00000000000E+00 0. -1.
        -12    1    3    3    0    0 -0.51145273868E+03  0.78845061831E+03  0.20959268391E+03  0.96289530821E+03  0.00000000000E+00 0.  1.
         15    1    5    5    0    0  0.80202832719E+03 -0.12935752774E+04 -0.21305553554E+02  0.15221837997E+04  0.17770000000E+01 0. -1.
        -16    1    5    5    0    0  0.10021867844E+03 -0.11388750422E+03 -0.34526398229E+00  0.15170453630E+03  0.00000000000E+00 0.  1.
          2    1    6    6  502    0  0.25116771841E+02  0.35657128043E+01 -0.41609208146E+02  0.48732871227E+02  0.00000000000E+00 0. -1.
         -1    1    6    6    0  502 -0.48498073726E+02 -0.38321610213E+02 -0.38236199578E+02  0.72681606494E+02  0.00000000000E+00 0.  1.
<mgrwt>
<rscale>  0 0.17253314E+04</rscale>
<asrwt>0</asrwt>
<pdfrwt beam="1">  1        1 0.25184635E+00 0.17253314E+04</pdfrwt>
<pdfrwt beam="2">  1       -2 0.28982521E+00 0.17253314E+04</pdfrwt>
<totfact> 0.15562610E-01</totfact>
</mgrwt>
</event>
<event>
12    3  0.1182097E-007  0.6786766E+03  0.7818608E-02  0.9754409E-01
          1   -1    0    0  501    0  0.00000000000E+00  0.00000000000E+00  0.26758064668E+03  0.26758064668E+03  0.00000000000E+00 0. -1.
         -2   -1    0    0    0  501 -0.00000000000E+00 -0.00000000000E+00 -0.19306757225E+04  0.19306757225E+04  0.00000000000E+00 0.  1.
        -24    2    1    2    0    0 -0.49629896525E+03  0.28575802646E+03 -0.90839325938E+03  0.10768734839E+04  0.80671395196E+02 0.  0.
    5000000    2    1    2    0    0  0.49629896525E+03 -0.28575802646E+03 -0.75470181646E+03  0.11213828853E+04  0.59996202473E+03 0.  0.
        -24    2    4    4    0    0  0.58639099455E+03 -0.30898755596E+03 -0.48639825282E+03  0.82578112210E+03  0.77482211152E+02 0.  0.
         24    2    4    4    0    0 -0.90092029303E+02  0.23229529501E+02 -0.26830356364E+03  0.29560176322E+03  0.82081760260E+02 0.  0.
         13    1    3    3    0    0 -0.19589144018E+03  0.94306488687E+02 -0.27954146534E+03  0.35413359201E+03  0.00000000000E+00 0. -1.
        -14    1    3    3    0    0 -0.30040752506E+03  0.19145153777E+03 -0.62885179405E+03  0.72273989188E+03  0.00000000000E+00 0.  1.
         15    1    5    5    0    0  0.38388075459E+03 -0.16784302247E+03 -0.27893611599E+03  0.50333311879E+03  0.17770000000E+01 0. -1.
        -16    1    5    5    0    0  0.20251023996E+03 -0.14114453349E+03 -0.20746213682E+03  0.32244800331E+03  0.00000000000E+00 0.  1.
          2    1    6    6  502    0 -0.85995361932E+02 -0.80307514434E+01 -0.14919815884E+03  0.17239427439E+03  0.00000000000E+00 0. -1.
         -1    1    6    6    0  502 -0.40966673709E+01  0.31260280945E+02 -0.11910540480E+03  0.12320748882E+03  0.00000000000E+00 0.  1.
<mgrwt>
<rscale>  0 0.67867663E+03</rscale>
<asrwt>0</asrwt>
<pdfrwt beam="1">  1        1 0.41166253E-01 0.67867663E+03</pdfrwt>
<pdfrwt beam="2">  1       -2 0.29702704E+00 0.67867663E+03</pdfrwt>
<totfact> 0.31041558E+00</totfact>
</mgrwt>
</event>
<event>
12    3  0.1182097E-007  0.5421605E+03  0.7818608E-02  0.1003325E+00
         -2   -1    0    0    0  501 -0.00000000000E+00  0.00000000000E+00  0.91649950957E+03  0.91649950957E+03  0.00000000000E+00 0.  1.
          1   -1    0    0  501    0  0.00000000000E+00 -0.00000000000E+00 -0.35069446545E+03  0.35069446545E+03  0.00000000000E+00 0. -1.
        -24    2    1    2    0    0  0.35710961194E+02 -0.39105331914E+03  0.10206177836E+03  0.41322418563E+03  0.78355917603E+02 0.  0.
    5000000    2    1    2    0    0 -0.35710961194E+02  0.39105331914E+03  0.46374326576E+03  0.85396978939E+03  0.60000717786E+03 0.  0.
        -24    2    4    4    0    0 -0.25305609924E+03  0.36480603310E+03  0.18238400791E+03  0.48661904489E+03  0.80083315106E+02 0.  0.
         24    2    4    4    0    0  0.21734513805E+03  0.26247286043E+02  0.28135925785E+03  0.36735074450E+03  0.88632434521E+02 0.  0.
         11    1    3    3    0    0  0.59292442102E+02 -0.23236204900E+03  0.67219112415E+02  0.24905044585E+03  0.00000000000E+00 0. -1.
        -12    1    3    3    0    0 -0.23581480907E+02 -0.15869127014E+03  0.34842665947E+02  0.16417373978E+03  0.00000000000E+00 0.  1.
         15    1    5    5    0    0 -0.21619214236E+03  0.26683285971E+03  0.11519256448E+03  0.36223100651E+03  0.17770000000E+01 0. -1.
        -16    1    5    5    0    0 -0.36863956885E+02  0.97973173392E+02  0.67191443430E+02  0.12438803838E+03  0.00000000000E+00 0.  1.
          2    1    6    6  502    0  0.17018980899E+03 -0.18215622986E+02  0.21091039255E+03  0.27162395640E+03  0.00000000000E+00 0. -1.
         -1    1    6    6    0  502  0.47155329057E+02  0.44462909029E+02  0.70448865296E+02  0.95726788097E+02  0.00000000000E+00 0.  1.
<mgrwt>
<rscale>  0 0.54216049E+03</rscale>
<asrwt>0</asrwt>
<pdfrwt beam="1">  1        1 0.53952995E-01 0.54216049E+03</pdfrwt>
<pdfrwt beam="2">  1       -2 0.14099992E+00 0.54216049E+03</pdfrwt>
<totfact> 0.22808628E+01</totfact>
</mgrwt>
</event>
<event>
12    3  0.1182097E-007  0.5216478E+03  0.7818608E-02  0.1008278E+00
          1   -1    0    0  501    0  0.00000000000E+00  0.00000000000E+00  0.99546897577E+03  0.99546897577E+03  0.00000000000E+00 0. -1.
         -2   -1    0    0    0  501 -0.00000000000E+00 -0.00000000000E+00 -0.37495369162E+03  0.37495369162E+03  0.00000000000E+00 0.  1.
        -24    2    1    2    0    0  0.45010661766E+03 -0.62817143495E+02  0.16382806872E+03  0.48998490462E+03  0.81875575526E+02 0.  0.
    5000000    2    1    2    0    0 -0.45010661766E+03  0.62817143495E+02  0.45668721543E+03  0.88043776277E+03  0.60005456468E+03 0.  0.
        -24    2    4    4    0    0  0.51444923172E+02  0.62496664157E+02 -0.81692143682E+02  0.14043394931E+03  0.80595748212E+02 0.  0.
         24    2    4    4    0    0 -0.50155154084E+03  0.32047933816E+00  0.53837935911E+03  0.74000381346E+03  0.78735371923E+02 0.  0.
         13    1    3    3    0    0  0.40810769419E+03 -0.58261893877E+02  0.17246220606E+03  0.44686636800E+03  0.00000000000E+00 0. -1.
        -14    1    3    3    0    0  0.41998923474E+02 -0.45552496178E+01 -0.86341373326E+01  0.43118536611E+02  0.00000000000E+00 0.  1.
         15    1    5    5    0    0  0.30956227184E+02  0.25611360796E+02 -0.88951318170E+02  0.97620308012E+02  0.17770000000E+01 0. -1.
        -16    1    5    5    0    0  0.20488695988E+02  0.36885303361E+02  0.72591744879E+01  0.42813641302E+02  0.00000000000E+00 0.  1.
          2    1    6    6  502    0 -0.16828799238E+03  0.33135490703E+02  0.15774488543E+03  0.23302844891E+03  0.00000000000E+00 0. -1.
         -3    1    6    6    0  502 -0.33326354846E+03 -0.32815011365E+02  0.38063447368E+03  0.50697536455E+03  0.00000000000E+00 0.  1.
<mgrwt>
<rscale>  0 0.52164779E+03</rscale>
<asrwt>0</asrwt>
<pdfrwt beam="1">  1        1 0.15314907E+00 0.52164779E+03</pdfrwt>
<pdfrwt beam="2">  1       -2 0.57685184E-01 0.52164779E+03</pdfrwt>
<totfact> 0.39448934E+01</totfact>
</mgrwt>
</event>
<event>
12    3  0.1182097E-007  0.8082600E+03  0.7818608E-02  0.9548137E-01
         -2   -1    0    0    0  501 -0.00000000000E+00  0.00000000000E+00  0.32779991850E+03  0.32779991850E+03  0.00000000000E+00 0.  1.
          1   -1    0    0  501    0  0.00000000000E+00 -0.00000000000E+00 -0.35052331462E+04  0.35052331462E+04  0.00000000000E+00 0. -1.
        -24    2    1    2    0    0 -0.63456094245E+02 -0.74325361864E+03 -0.26196719812E+04  0.27247887473E+04  0.73074009742E+02 0.  0.
    5000000    2    1    2    0    0  0.63456094245E+02  0.74325361864E+03 -0.55776124654E+03  0.11082443174E+04  0.60054578630E+03 0.  0.
        -24    2    4    4    0    0 -0.12424171414E+03  0.56267853447E+02 -0.31398364705E+03  0.35154204595E+03  0.79962519939E+02 0.  0.
         24    2    4    4    0    0  0.18769780839E+03  0.68698576519E+03 -0.24377759949E+03  0.75670227147E+03  0.77400909459E+02 0.  0.
         13    1    3    3    0    0 -0.62983807541E+01 -0.29757233208E+03 -0.11557769909E+04  0.11934862442E+04  0.00000000000E+00 0. -1.
        -14    1    3    3    0    0 -0.57157713491E+02 -0.44568128656E+03 -0.14638949903E+04  0.15313025031E+04  0.00000000000E+00 0.  1.
         15    1    5    5    0    0 -0.61424247363E+02  0.69207026894E+02 -0.20802965453E+03  0.22768848374E+03  0.17770000000E+01 0. -1.
        -16    1    5    5    0    0 -0.62817466778E+02 -0.12939173447E+02 -0.10595399251E+03  0.12385356221E+03  0.00000000000E+00 0.  1.
          4    1    6    6  502    0  0.13819294259E+03  0.44914113393E+03 -0.19573669845E+03  0.50905589348E+03  0.00000000000E+00 0. -1.
         -3    1    6    6    0  502  0.49504865798E+02  0.23784463126E+03 -0.48040901045E+02  0.24764637799E+03  0.00000000000E+00 0.  1.
<mgrwt>
<rscale>  0 0.80826003E+03</rscale>
<asrwt>0</asrwt>
<pdfrwt beam="1">  1        1 0.53926666E+00 0.80826003E+03</pdfrwt>
<pdfrwt beam="2">  1       -2 0.50430754E-01 0.80826003E+03</pdfrwt>
<totfact> 0.86837797E-01</totfact>
</mgrwt>
</event>
<event>
12    3  0.1182097E-007  0.9624529E+03  0.7818608E-02  0.9350712E-01
          1   -1    0    0  501    0  0.00000000000E+00  0.00000000000E+00  0.14849060764E+04  0.14849060764E+04  0.00000000000E+00 0. -1.
         -2   -1    0    0    0  501 -0.00000000000E+00 -0.00000000000E+00 -0.70215844508E+03  0.70215844508E+03  0.00000000000E+00 0.  1.
        -24    2    1    2    0    0 -0.26044266391E+03 -0.89352248853E+03  0.38310869909E+03  0.10095760745E+04  0.79112301453E+02 0.  0.
    5000000    2    1    2    0    0  0.26044266391E+03  0.89352248853E+03  0.39963893220E+03  0.11774884469E+04  0.60046227843E+03 0.  0.
        -24    2    4    4    0    0  0.29702409744E+03  0.45288823856E+03 -0.39772308440E+02  0.54904126145E+03  0.80829444934E+02 0.  0.
         24    2    4    4    0    0 -0.36581433529E+02  0.44063424997E+03  0.43941124065E+03  0.62844718548E+03  0.79792750323E+02 0.  0.
         13    1    3    3    0    0 -0.12706192181E+03 -0.56301287411E+03  0.25253916384E+03  0.63000337909E+03  0.00000000000E+00 0. -1.
        -14    1    3    3    0    0 -0.13338074210E+03 -0.33050961442E+03  0.13056953526E+03  0.37957269544E+03  0.00000000000E+00 0.  1.
         15    1    5    5    0    0  0.90657455006E+02  0.10269523653E+03  0.19107795072E+02  0.13832335781E+03  0.17770000000E+01 0. -1.
        -16    1    5    5    0    0  0.20636664243E+03  0.35019300203E+03 -0.58880103513E+02  0.41071790364E+03  0.00000000000E+00 0.  1.
          4    1    6    6  502    0  0.17919181564E+02  0.44281245120E+02  0.63576973593E+02  0.79523312988E+02  0.00000000000E+00 0. -1.
         -3    1    6    6    0  502 -0.54500615093E+02  0.39635300485E+03  0.37583426705E+03  0.54892387249E+03  0.00000000000E+00 0.  1.
<mgrwt>
<rscale>  0 0.96245294E+03</rscale>
<asrwt>0</asrwt>
<pdfrwt beam="1">  1        1 0.22844709E+00 0.96245294E+03</pdfrwt>
<pdfrwt beam="2">  1       -2 0.10802438E+00 0.96245294E+03</pdfrwt>
<totfact> 0.40541036E+00</totfact>
</mgrwt>
</event>
<event>
12    3  0.1182097E-007  0.8341314E+03  0.7818608E-02  0.9511886E-01
         -2   -1    0    0    0  501 -0.00000000000E+00  0.00000000000E+00  0.53850455292E+03  0.53850455292E+03  0.00000000000E+00 0.  1.
          1   -1    0    0  501    0  0.00000000000E+00 -0.00000000000E+00 -0.35649489389E+04  0.35649489389E+04  0.00000000000E+00 0. -1.
        -24    2    1    2    0    0  0.78220155280E+03  0.28061675315E+02  0.12904955037E+03  0.79745297331E+03  0.81552016324E+02 0.  0.
    5000000    2    1    2    0    0 -0.78220155280E+03 -0.28061675315E+02 -0.31554939364E+04  0.33060005185E+04  0.59989225638E+03 0.  0.
        -24    2    4    4    0    0 -0.58871862895E+03  0.16009077765E+03 -0.14026914901E+04  0.15308575707E+04  0.61341700678E+02 0.  0.
         24    2    4    4    0    0 -0.19348292385E+03 -0.18815245296E+03 -0.17528024463E+04  0.17751429479E+04  0.77324525074E+02 0.  0.
         13    1    3    3    0    0  0.48761882845E+03  0.16066883987E+01  0.43484598842E+02  0.48955654795E+03  0.00000000000E+00 0. -1.
        -14    1    3    3    0    0  0.29458272435E+03  0.26454986917E+02  0.85564951528E+02  0.30789642536E+03  0.00000000000E+00 0.  1.
         15    1    5    5    0    0 -0.12486456410E+03  0.22785476381E+02 -0.35086808305E+03  0.37312451907E+03  0.17770000000E+01 0. -1.
        -16    1    5    5    0    0 -0.46385406485E+03  0.13730530126E+03 -0.10518234070E+04  0.11577330516E+04  0.00000000000E+00 0.  1.
          2    1    6    6  502    0 -0.13349411140E+03 -0.96800072287E+02 -0.12328705923E+04  0.12438491987E+04  0.00000000000E+00 0. -1.
         -1    1    6    6    0  502 -0.59988812455E+02 -0.91352380674E+02 -0.51993185401E+03  0.53129374915E+03  0.00000000000E+00 0.  1.
<mgrwt>
<rscale>  0 0.83413143E+03</rscale>
<asrwt>0</asrwt>
<pdfrwt beam="1">  1        1 0.54845366E+00 0.83413143E+03</pdfrwt>
<pdfrwt beam="2">  1       -2 0.82846858E-01 0.83413143E+03</pdfrwt>
<totfact> 0.26671300E-01</totfact>
</mgrwt>
</event>
<event>
12    3  0.1182097E-007  0.5032396E+03  0.7818608E-02  0.1012937E+00
          1   -1    0    0  501    0  0.00000000000E+00  0.00000000000E+00  0.11494943333E+04  0.11494943333E+04  0.00000000000E+00 0. -1.
         -2   -1    0    0    0  501 -0.00000000000E+00 -0.00000000000E+00 -0.26717182520E+03  0.26717182520E+03  0.00000000000E+00 0.  1.
        -24    2    1    2    0    0 -0.37839515005E+03 -0.28271946498E+02  0.21982456362E+03  0.44561502008E+03  0.79168900518E+02 0.  0.
    5000000    2    1    2    0    0  0.37839515005E+03  0.28271946498E+02  0.66249794453E+03  0.97105113847E+03  0.60004549367E+03 0.  0.
        -24    2    4    4    0    0  0.14118629722E+03 -0.22939968982E+03  0.92009878995E+02  0.29688040203E+03  0.84346707512E+02 0.  0.
         24    2    4    4    0    0  0.23720885283E+03  0.25767163632E+03  0.57048806553E+03  0.67417073643E+03  0.79917688424E+02 0.  0.
         13    1    3    3    0    0 -0.22781905653E+03  0.16399165713E+02  0.15306314440E+03  0.27495232555E+03  0.00000000000E+00 0. -1.
        -14    1    3    3    0    0 -0.15057609352E+03 -0.44671112211E+02  0.66761419217E+02  0.17066269452E+03  0.00000000000E+00 0.  1.
         15    1    5    5    0    0  0.81585503796E+02 -0.10877111782E+03  0.38751412829E+01  0.13603501369E+03  0.17770000000E+01 0. -1.
        -16    1    5    5    0    0  0.59600793422E+02 -0.12062857200E+03  0.88134737713E+02  0.16084538834E+03  0.00000000000E+00 0.  1.
          2    1    6    6  502    0  0.17400327759E+03  0.18025057408E+03  0.33474694795E+03  0.41811831965E+03  0.00000000000E+00 0. -1.
         -1    1    6    6    0  502  0.63205575241E+02  0.77421062241E+02  0.23574111758E+03  0.25605241678E+03  0.00000000000E+00 0.  1.
<mgrwt>
<rscale>  0 0.50323965E+03</rscale>
<asrwt>0</asrwt>
<pdfrwt beam="1">  1        1 0.17684528E+00 0.50323965E+03</pdfrwt>
<pdfrwt beam="2">  1       -2 0.41103358E-01 0.50323965E+03</pdfrwt>
<totfact> 0.60074489E+01</totfact>
</mgrwt>
</event>
<event>
12    3  0.1182097E-007  0.3276173E+03  0.7818608E-02  0.1072196E+00
         -2   -1    0    0    0  501 -0.00000000000E+00  0.00000000000E+00  0.10021236483E+03  0.10021236483E+03  0.00000000000E+00 0.  1.
          1   -1    0    0  501    0  0.00000000000E+00 -0.00000000000E+00 -0.14263134159E+04  0.14263134159E+04  0.00000000000E+00 0. -1.
        -24    2    1    2    0    0 -0.23090619626E+02  0.12029297002E+03 -0.16162403311E+03  0.21084053039E+03  0.57687310776E+02 0.  0.
    5000000    2    1    2    0    0  0.23090619626E+02 -0.12029297002E+03 -0.11644770179E+04  0.13156852503E+04  0.60001448088E+03 0.  0.
        -24    2    4    4    0    0  0.13304441127E+02 -0.32114057931E+03 -0.96879120913E+03  0.10236939579E+04  0.78004055698E+02 0.  0.
         24    2    4    4    0    0  0.97861784987E+01  0.20084760929E+03 -0.19568580881E+03  0.29199129243E+03  0.80811185109E+02 0.  0.
         11    1    3    3    0    0 -0.28928470889E+02  0.60123647563E+02 -0.48191651009E+02  0.82305192128E+02  0.00000000000E+00 0. -1.
        -12    1    3    3    0    0  0.58378512631E+01  0.60169322455E+02 -0.11343238210E+03  0.12853533826E+03  0.00000000000E+00 0.  1.
         15    1    5    5    0    0  0.13064350110E+02 -0.20828146295E+02 -0.14039196280E+03  0.14253964315E+03  0.17770000000E+01 0. -1.
        -16    1    5    5    0    0  0.24009101676E+00 -0.30031243302E+03 -0.82839924633E+03  0.88115431474E+03  0.00000000000E+00 0.  1.
          4    1    6    6  502    0 -0.76780644977E+01  0.20219343457E+02 -0.64608152114E+02  0.68132135178E+02  0.00000000000E+00 0. -1.
         -3    1    6    6    0  502  0.17464242996E+02  0.18062826584E+03 -0.13107765670E+03  0.22385915726E+03  0.00000000000E+00 0.  1.
<mgrwt>
<rscale>  0 0.32761734E+03</rscale>
<asrwt>0</asrwt>
<pdfrwt beam="1">  1        1 0.21943282E+00 0.32761734E+03</pdfrwt>
<pdfrwt beam="2">  1       -2 0.15417288E-01 0.32761734E+03</pdfrwt>
<totfact> 0.22944438E+02</totfact>
</mgrwt>
</event>
<event>
12    3  0.1182097E-007  0.5433907E+03  0.7818608E-02  0.1003035E+00
          1   -1    0    0  501    0  0.00000000000E+00  0.00000000000E+00  0.23195202650E+04  0.23195202650E+04  0.00000000000E+00 0. -1.
         -2   -1    0    0    0  501 -0.00000000000E+00 -0.00000000000E+00 -0.17761340804E+03  0.17761340804E+03  0.00000000000E+00 0.  1.
        -24    2    1    2    0    0 -0.30355279579E+03  0.32540451654E+03  0.40692907066E+03  0.60813570820E+03  0.78774182498E+02 0.  0.
    5000000    2    1    2    0    0  0.30355279579E+03 -0.32540451654E+03  0.17349777863E+04  0.18889979648E+04  0.60011081723E+03 0.  0.
        -24    2    4    4    0    0  0.27631007384E+01 -0.32263987523E+03  0.40205199907E+03  0.52066965907E+03  0.73122910936E+02 0.  0.
         24    2    4    4    0    0  0.30078969505E+03 -0.27646413077E+01  0.13329257872E+04  0.13683283058E+04  0.71757328451E+02 0.  0.
         11    1    3    3    0    0 -0.13281718203E+03  0.96378902965E+02  0.17761087980E+03  0.24181588327E+03  0.00000000000E+00 0. -1.
        -12    1    3    3    0    0 -0.17073561376E+03  0.22902561358E+03  0.22931819086E+03  0.36631982493E+03  0.00000000000E+00 0.  1.
         15    1    5    5    0    0  0.29899534979E+02 -0.22337291582E+03  0.30484841340E+03  0.37911100564E+03  0.17770000000E+01 0. -1.
        -16    1    5    5    0    0 -0.27136434240E+02 -0.99266959414E+02  0.97203585665E+02  0.14155865343E+03  0.00000000000E+00 0.  1.
          2    1    6    6  502    0  0.72143153961E+02 -0.30670958946E+02  0.37364747051E+03  0.38178236550E+03  0.00000000000E+00 0. -1.
         -1    1    6    6    0  502  0.22864654109E+03  0.27906317639E+02  0.95927831673E+03  0.98654594027E+03  0.00000000000E+00 0.  1.
<mgrwt>
<rscale>  0 0.54339070E+03</rscale>
<asrwt>0</asrwt>
<pdfrwt beam="1">  1        1 0.35684925E+00 0.54339070E+03</pdfrwt>
<pdfrwt beam="2">  1       -2 0.27325141E-01 0.54339070E+03</pdfrwt>
<totfact> 0.20843284E+01</totfact>
</mgrwt>
</event>
<event>
12    3  0.1182097E-007  0.1037583E+04  0.7818608E-02  0.9268259E-01
          1   -1    0    0  501    0  0.00000000000E+00  0.00000000000E+00  0.86787062708E+03  0.86787062708E+03  0.00000000000E+00 0. -1.
         -2   -1    0    0    0  501 -0.00000000000E+00 -0.00000000000E+00 -0.13422330682E+04  0.13422330682E+04  0.00000000000E+00 0.  1.
        -24    2    1    2    0    0  0.27848543803E+03  0.93458737167E+03 -0.21803580639E+02  0.97889600801E+03  0.82184572075E+02 0.  0.
    5000000    2    1    2    0    0 -0.27848543803E+03 -0.93458737167E+03 -0.45255886050E+03  0.12312076873E+04  0.60004595867E+03 0.  0.
        -24    2    4    4    0    0 -0.17313646119E+02 -0.79903577495E+03 -0.18153459874E+03  0.82334937111E+03  0.78685731693E+02 0.  0.
         24    2    4    4    0    0 -0.26117179191E+03 -0.13555159673E+03 -0.27102426175E+03  0.40785831617E+03  0.79431198817E+02 0.  0.
         11    1    3    3    0    0  0.24525848424E+03  0.80312731056E+03  0.92468619036E+01  0.83979206088E+03  0.00000000000E+00 0. -1.
        -12    1    3    3    0    0  0.33226953790E+02  0.13146006111E+03 -0.31050442543E+02  0.13910394713E+03  0.00000000000E+00 0.  1.
         15    1    5    5    0    0 -0.34024981649E+01 -0.70040349585E+03 -0.13456971036E+03  0.71322422749E+03  0.17770000000E+01 0. -1.
        -16    1    5    5    0    0 -0.13911147954E+02 -0.98632279093E+02 -0.46964888380E+02  0.11012514362E+03  0.00000000000E+00 0.  1.
          2    1    6    6  502    0 -0.23611317693E+03 -0.10024517036E+03 -0.20253342820E+03  0.32683071465E+03  0.00000000000E+00 0. -1.
         -1    1    6    6    0  502 -0.25058614987E+02 -0.35306426364E+02 -0.68490833557E+02  0.81027601526E+02  0.00000000000E+00 0.  1.
<mgrwt>
<rscale>  0 0.10375826E+04</rscale>
<asrwt>0</asrwt>
<pdfrwt beam="1">  1        1 0.13351856E+00 0.10375826E+04</pdfrwt>
<pdfrwt beam="2">  1       -2 0.20649739E+00 0.10375826E+04</pdfrwt>
<totfact> 0.20312816E+00</totfact>
</mgrwt>
</event>
<event>
12    3  0.1182097E-007  0.9335136E+03  0.7818608E-02  0.9384631E-01
         -2   -1    0    0    0  501 -0.00000000000E+00  0.00000000000E+00  0.28782614965E+03  0.28782614965E+03  0.00000000000E+00 0.  1.
          1   -1    0    0  501    0  0.00000000000E+00 -0.00000000000E+00 -0.31920950034E+04  0.31920950034E+04  0.00000000000E+00 0. -1.
        -24    2    1    2    0    0  0.20249125474E+03  0.83232865048E+03 -0.14992118527E+04  0.17283758842E+04  0.76637635522E+02 0.  0.
    5000000    2    1    2    0    0 -0.20249125474E+03 -0.83232865048E+03 -0.14050570011E+04  0.17515452689E+04  0.59995996699E+03 0.  0.
        -24    2    4    4    0    0 -0.21120157211E+03 -0.90047902619E+03 -0.11648189313E+04  0.14896130961E+04  0.81703443375E+02 0.  0.
         24    2    4    4    0    0  0.87103173790E+01  0.68150375713E+02 -0.24023806983E+03  0.26193217283E+03  0.78573466430E+02 0.  0.
         13    1    3    3    0    0 -0.44951602263E+00  0.80298826866E+02 -0.11955833192E+03  0.14402186775E+03  0.00000000000E+00 0. -1.
        -14    1    3    3    0    0  0.20294077076E+03  0.75202982361E+03 -0.13796535208E+04  0.15843540164E+04  0.00000000000E+00 0.  1.
         15    1    5    5    0    0 -0.10798632855E+03 -0.40493390084E+03 -0.46600557547E+03  0.62673508383E+03  0.17770000000E+01 0. -1.
        -16    1    5    5    0    0 -0.10321524356E+03 -0.49554512536E+03 -0.69881335579E+03  0.86287801224E+03  0.00000000000E+00 0.  1.
          4    1    6    6  502    0 -0.65471362766E+01  0.66898414758E+02 -0.97790883465E+02  0.11866473688E+03  0.00000000000E+00 0. -1.
         -3    1    6    6    0  502  0.15257453656E+02  0.12519609548E+01 -0.14244718636E+03  0.14326743594E+03  0.00000000000E+00 0.  1.
<mgrwt>
<rscale>  0 0.93351365E+03</rscale>
<asrwt>0</asrwt>
<pdfrwt beam="1">  1        1 0.49109156E+00 0.93351365E+03</pdfrwt>
<pdfrwt beam="2">  1       -2 0.44280945E-01 0.93351365E+03</pdfrwt>
<totfact> 0.19043725E+00</totfact>
</mgrwt>
</event>
<event>
12    3  0.1182097E-007  0.6110242E+03  0.7818608E-02  0.9882795E-01
          1   -1    0    0  501    0  0.00000000000E+00  0.00000000000E+00  0.63086511235E+03  0.63086511235E+03  0.00000000000E+00 0. -1.
         -2   -1    0    0    0  501 -0.00000000000E+00 -0.00000000000E+00 -0.91117475633E+03  0.91117475633E+03  0.00000000000E+00 0.  1.
        -24    2    1    2    0    0 -0.43009201610E+03  0.28082548661E+03 -0.50096671901E+03  0.72200215043E+03  0.80482019336E+02 0.  0.
    5000000    2    1    2    0    0  0.43009201610E+03 -0.28082548661E+03  0.22065707503E+03  0.82003771825E+03  0.59994184581E+03 0.  0.
        -24    2    4    4    0    0  0.27311253638E+03  0.84474162310E+02  0.27885297289E+03  0.40802008446E+03  0.83636518397E+02 0.  0.
         24    2    4    4    0    0  0.15697947972E+03 -0.36529964892E+03 -0.58195897860E+02  0.41201763379E+03  0.91024048867E+02 0.  0.
         11    1    3    3    0    0 -0.15739922673E+03  0.58043583056E+02 -0.15772344504E+03  0.23026128468E+03  0.00000000000E+00 0. -1.
        -12    1    3    3    0    0 -0.27269278937E+03  0.22278190355E+03 -0.34324327396E+03  0.49174086575E+03  0.00000000000E+00 0.  1.
         15    1    5    5    0    0  0.26671960577E+02  0.38930007109E+02  0.42345242725E+02  0.63428828185E+02  0.17770000000E+01 0. -1.
        -16    1    5    5    0    0  0.24644057580E+03  0.45544155201E+02  0.23650773017E+03  0.34459125628E+03  0.00000000000E+00 0.  1.
          2    1    6    6  502    0  0.14427025905E+03 -0.25249301857E+03 -0.66104669799E+02  0.29822216458E+03  0.00000000000E+00 0. -1.
         -1    1    6    6    0  502  0.12709220668E+02 -0.11280663034E+03  0.79087719392E+01  0.11379546921E+03  0.00000000000E+00 0.  1.
<mgrwt>
<rscale>  0 0.61102419E+03</rscale>
<asrwt>0</asrwt>
<pdfrwt beam="1">  1        1 0.97056171E-01 0.61102419E+03</pdfrwt>
<pdfrwt beam="2">  1       -2 0.14018073E+00 0.61102419E+03</pdfrwt>
<totfact> 0.10347721E+01</totfact>
</mgrwt>
</event>
<event>
12    3  0.1182097E-007  0.1568351E+04  0.7818608E-02  0.8840231E-01
         -2   -1    0    0    0  501 -0.00000000000E+00  0.00000000000E+00  0.17509988711E+04  0.17509988711E+04  0.00000000000E+00 0.  1.
          1   -1    0    0  501    0  0.00000000000E+00 -0.00000000000E+00 -0.15475166373E+04  0.15475166373E+04  0.00000000000E+00 0. -1.
        -24    2    1    2    0    0  0.93391149095E+03 -0.12313389320E+04  0.47557068241E+03  0.16185098785E+04  0.70855587784E+02 0.  0.
    5000000    2    1    2    0    0 -0.93391149095E+03  0.12313389320E+04 -0.27208844860E+03  0.16800056300E+04  0.60000046218E+03 0.  0.
        -24    2    4    4    0    0 -0.72613562701E+03  0.68063301071E+03  0.58833196210E+02  0.10000377112E+04  0.77973294738E+02 0.  0.
         24    2    4    4    0    0 -0.20777586394E+03  0.55070592128E+03 -0.33092164481E+03  0.67996791884E+03  0.79996339151E+02 0.  0.
         11    1    3    3    0    0  0.50392614212E+03 -0.67885434693E+03  0.22435240384E+03  0.87471068483E+03  0.00000000000E+00 0. -1.
        -12    1    3    3    0    0  0.42998534883E+03 -0.55248458507E+03  0.25121827858E+03  0.74379919363E+03  0.00000000000E+00 0.  1.
         15    1    5    5    0    0 -0.45299934446E+02  0.71765850490E+02  0.24002293648E+01  0.84919610146E+02  0.17770000000E+01 0. -1.
        -16    1    5    5    0    0 -0.68083569256E+03  0.60886716022E+03  0.56432966845E+02  0.91511810102E+03  0.00000000000E+00 0.  1.
          2    1    6    6  502    0 -0.20322404736E+00 -0.22544490807E+01  0.97811004303E+00  0.24658750834E+01  0.00000000000E+00 0. -1.
         -1    1    6    6    0  502 -0.20757263990E+03  0.55296037036E+03 -0.33189975485E+03  0.67750204376E+03  0.00000000000E+00 0.  1.
<mgrwt>
<rscale>  0 0.15683511E+04</rscale>
<asrwt>0</asrwt>
<pdfrwt beam="1">  1        1 0.23807948E+00 0.15683511E+04</pdfrwt>
<pdfrwt beam="2">  1       -2 0.26938444E+00 0.15683511E+04</pdfrwt>
<totfact> 0.24313011E-01</totfact>
</mgrwt>
</event>
<event>
12    3  0.1182097E-007  0.1034264E+04  0.7818608E-02  0.9271743E-01
          1   -1    0    0  501    0  0.00000000000E+00  0.00000000000E+00  0.11194767772E+04  0.11194767772E+04  0.00000000000E+00 0. -1.
         -2   -1    0    0    0  501 -0.00000000000E+00 -0.00000000000E+00 -0.11758983252E+04  0.11758983252E+04  0.00000000000E+00 0.  1.
        -24    2    1    2    0    0 -0.80050031890E+03 -0.52631049888E+03 -0.49729599673E+03  0.10820379289E+04  0.75493505760E+02 0.  0.
    5000000    2    1    2    0    0  0.80050031890E+03  0.52631049888E+03  0.44087444875E+03  0.12133371735E+04  0.60001109597E+03 0.  0.
        -24    2    4    4    0    0  0.79319510222E+03  0.25837878261E+03  0.40743176680E+03  0.93188323648E+03  0.80545988930E+02 0.  0.
         24    2    4    4    0    0  0.73052166723E+01  0.26793171627E+03  0.33442681952E+02  0.28145393704E+03  0.79102053852E+02 0.  0.
         11    1    3    3    0    0 -0.15566478888E+03 -0.10780058632E+03 -0.13270336093E+03  0.23121997083E+03  0.00000000000E+00 0. -1.
        -12    1    3    3    0    0 -0.64483553002E+03 -0.41850991256E+03 -0.36459263580E+03  0.85081795806E+03  0.00000000000E+00 0.  1.
         15    1    5    5    0    0  0.27736363198E+03  0.84633748932E+02  0.99972570090E+02  0.30674277221E+03  0.17770000000E+01 0. -1.
        -16    1    5    5    0    0  0.51583147024E+03  0.17374503368E+03  0.30745919671E+03  0.62514046427E+03  0.00000000000E+00 0.  1.
          2    1    6    6  502    0  0.74107981748E+01 -0.75726912809E+00 -0.64073621989E+01  0.98258677208E+01  0.00000000000E+00 0. -1.
         -1    1    6    6    0  502 -0.10558150246E+00  0.26868898540E+03  0.39850044151E+02  0.27162806932E+03  0.00000000000E+00 0.  1.
<mgrwt>
<rscale>  0 0.10342640E+04</rscale>
<asrwt>0</asrwt>
<pdfrwt beam="1">  1        1 0.17222720E+00 0.10342640E+04</pdfrwt>
<pdfrwt beam="2">  1       -2 0.18090743E+00 0.10342640E+04</pdfrwt>
<totfact> 0.19062472E+00</totfact>
</mgrwt>
</event>
<event>
12    3  0.1182097E-007  0.4964411E+03  0.7818608E-02  0.1014712E+00
         -4   -1    0    0    0  501 -0.00000000000E+00  0.00000000000E+00  0.87062426464E+03  0.87062426464E+03  0.00000000000E+00 0.  1.
          1   -1    0    0  501    0  0.00000000000E+00 -0.00000000000E+00 -0.37788549328E+03  0.37788549328E+03  0.00000000000E+00 0. -1.
        -24    2    1    2    0    0  0.28104839155E+03  0.26812761271E+03  0.40776038168E+02  0.40281630931E+03  0.98578286969E+02 0.  0.
    5000000    2    1    2    0    0 -0.28104839155E+03 -0.26812761271E+03  0.45196273319E+03  0.84569344861E+03  0.60003873353E+03 0.  0.
        -24    2    4    4    0    0 -0.25234287980E+03  0.46630203584E+02 -0.21409750804E+02  0.26981031759E+03  0.80547657780E+02 0.  0.
         24    2    4    4    0    0 -0.28705511752E+02 -0.31475781630E+03  0.47337248399E+03  0.57588313102E+03  0.87540748613E+02 0.  0.
         11    1    3    3    0    0  0.21561111353E+03  0.14217865726E+03  0.16256058507E+02  0.25878018142E+03  0.00000000000E+00 0. -1.
        -12    1    3    3    0    0  0.65437278024E+02  0.12594895545E+03  0.24519979661E+02  0.14403612788E+03  0.00000000000E+00 0.  1.
         15    1    5    5    0    0 -0.92420739913E+02  0.51824071405E+02 -0.28193238471E+02  0.10966012934E+03  0.17770000000E+01 0. -1.
        -16    1    5    5    0    0 -0.15992213989E+03 -0.51938678211E+01  0.67834876669E+01  0.16015018824E+03  0.00000000000E+00 0.  1.
          4    1    6    6  502    0 -0.92851927346E+01 -0.30467641118E+03  0.45286348088E+03  0.54589308720E+03  0.00000000000E+00 0. -1.
         -3    1    6    6    0  502 -0.19420319018E+02 -0.10081405114E+02  0.20509003113E+02  0.29990043823E+02  0.00000000000E+00 0.  1.
<mgrwt>
<rscale>  0 0.49644111E+03</rscale>
<asrwt>0</asrwt>
<pdfrwt beam="1">  1        1 0.58136230E-01 0.49644111E+03</pdfrwt>
<pdfrwt beam="2">  1       -4 0.13394219E+00 0.49644111E+03</pdfrwt>
<totfact> 0.12568555E+01</totfact>
</mgrwt>
</event>
<event>
12    3  0.1182097E-007  0.1365098E+04  0.7818608E-02  0.8979477E-01
         -2   -1    0    0    0  501 -0.00000000000E+00  0.00000000000E+00  0.19254655588E+04  0.19254655588E+04  0.00000000000E+00 0.  1.
          1   -1    0    0  501    0  0.00000000000E+00 -0.00000000000E+00 -0.10575816561E+04  0.10575816561E+04  0.00000000000E+00 0. -1.
        -24    2    1    2    0    0  0.13046839797E+04 -0.15922025592E+03  0.39039575842E+02  0.13173343246E+04  0.79336357613E+02 0.  0.
    5000000    2    1    2    0    0 -0.13046839797E+04  0.15922025592E+03  0.82884432693E+03  0.16657128903E+04  0.60005427905E+03 0.  0.
        -24    2    4    4    0    0 -0.47627312930E+02  0.14234039757E+03  0.18299000263E+03  0.25033620106E+03  0.81570354801E+02 0.  0.
         24    2    4    4    0    0 -0.12570566668E+04  0.16879858347E+02  0.64585432431E+03  0.14153766892E+04  0.75412009002E+02 0.  0.
         13    1    3    3    0    0  0.60616561957E+03 -0.71783592743E+02 -0.21390197641E+02  0.61077588614E+03  0.00000000000E+00 0. -1.
        -14    1    3    3    0    0  0.69851836011E+03 -0.87436663176E+02  0.60429773482E+02  0.70655843849E+03  0.00000000000E+00 0.  1.
         15    1    5    5    0    0 -0.41955510958E+02  0.55444666449E+02  0.33192553459E+02  0.77066719610E+02  0.17770000000E+01 0. -1.
        -16    1    5    5    0    0 -0.56718019724E+01  0.86895731123E+02  0.14979744917E+03  0.17326948145E+03  0.00000000000E+00 0.  1.
          2    1    6    6  502    0 -0.63212680200E+03  0.44162919677E+02  0.31128594183E+03  0.70599829664E+03  0.00000000000E+00 0. -1.
         -1    1    6    6    0  502 -0.62492986476E+03 -0.27283061330E+02  0.33456838248E+03  0.70937839258E+03  0.00000000000E+00 0.  1.
<mgrwt>
<rscale>  0 0.13650983E+04</rscale>
<asrwt>0</asrwt>
<pdfrwt beam="1">  1        1 0.16270487E+00 0.13650983E+04</pdfrwt>
<pdfrwt beam="2">  1       -2 0.29622547E+00 0.13650983E+04</pdfrwt>
<totfact> 0.38582075E-01</totfact>
</mgrwt>
</event>
<event>
12    3  0.1182097E-007  0.1808198E+04  0.7818608E-02  0.8701952E-01
         -2   -1    0    0    0  501 -0.00000000000E+00  0.00000000000E+00  0.12956461194E+04  0.12956461194E+04  0.00000000000E+00 0.  1.
          1   -1    0    0  501    0  0.00000000000E+00 -0.00000000000E+00 -0.25786458110E+04  0.25786458110E+04  0.00000000000E+00 0. -1.
        -24    2    1    2    0    0  0.16554201901E+04 -0.61615676272E+03 -0.83664124229E+03  0.19561459983E+04  0.80457668804E+02 0.  0.
    5000000    2    1    2    0    0 -0.16554201901E+04  0.61615676272E+03 -0.44635844925E+03  0.19181459321E+04  0.59998565777E+03 0.  0.
        -24    2    4    4    0    0 -0.42311813916E+02  0.13957205426E+03  0.28966309632E+02  0.16842676305E+03  0.79106760078E+02 0.  0.
         24    2    4    4    0    0 -0.16131083762E+04  0.47658470846E+03 -0.47532475888E+03  0.17497191690E+04  0.79573402907E+02 0.  0.
         11    1    3    3    0    0  0.92461470145E+03 -0.32385190855E+03 -0.50276353431E+03  0.11011646454E+04  0.00000000000E+00 0. -1.
        -12    1    3    3    0    0  0.73080548864E+03 -0.29230485417E+03 -0.33387770798E+03  0.85498135295E+03  0.00000000000E+00 0.  1.
         15    1    5    5    0    0 -0.65240103568E+02  0.11531218838E+03  0.24551677187E+02  0.13475575863E+03  0.17770000000E+01 0. -1.
        -16    1    5    5    0    0  0.22928289651E+02  0.24259865878E+02  0.44146324449E+01  0.33671004416E+02  0.00000000000E+00 0.  1.
          2    1    6    6  502    0 -0.58972296414E+03  0.13646155607E+03 -0.18344124881E+03  0.63249159874E+03  0.00000000000E+00 0. -1.
         -1    1    6    6    0  502 -0.10233854120E+04  0.34012315239E+03 -0.29188351007E+03  0.11172275703E+04  0.00000000000E+00 0.  1.
<mgrwt>
<rscale>  0 0.18081984E+04</rscale>
<asrwt>0</asrwt>
<pdfrwt beam="1">  1        1 0.39671473E+00 0.18081984E+04</pdfrwt>
<pdfrwt beam="2">  1       -2 0.19933018E+00 0.18081984E+04</pdfrwt>
<totfact> 0.12825500E-01</totfact>
</mgrwt>
</event>
<event>
12    3  0.1182097E-007  0.8771878E+03  0.7818608E-02  0.9454556E-01
          1   -1    0    0  501    0  0.00000000000E+00  0.00000000000E+00  0.20284581242E+04  0.20284581242E+04  0.00000000000E+00 0. -1.
         -2   -1    0    0    0  501 -0.00000000000E+00 -0.00000000000E+00 -0.13724143831E+04  0.13724143831E+04  0.00000000000E+00 0.  1.
        -24    2    1    2    0    0  0.17827655895E+03 -0.76671802617E+03 -0.11178505099E+04  0.13695075655E+04  0.79511925420E+02 0.  0.
    5000000    2    1    2    0    0 -0.17827655895E+03  0.76671802617E+03  0.17738942511E+04  0.20313649418E+04  0.60008636856E+03 0.  0.
        -24    2    4    4    0    0 -0.16475406058E+03 -0.30682592287E+02  0.38893526168E+03  0.43102883543E+03  0.80186640093E+02 0.  0.
         24    2    4    4    0    0 -0.13522498369E+02  0.79740061845E+03  0.13849589894E+04  0.16003361064E+04  0.83268522377E+02 0.  0.
         13    1    3    3    0    0  0.53429449324E+02 -0.26513453954E+03 -0.32177519836E+03  0.42034546315E+03  0.00000000000E+00 0. -1.
        -14    1    3    3    0    0  0.12484710963E+03 -0.50158348663E+03 -0.79607531157E+03  0.94916210235E+03  0.00000000000E+00 0.  1.
         15    1    5    5    0    0 -0.91082763117E+01  0.38807345265E+01  0.10427859463E+03  0.10476260700E+03  0.17770000000E+01 0. -1.
        -16    1    5    5    0    0 -0.15564578427E+03 -0.34563326813E+02  0.28465666705E+03  0.32626622843E+03  0.00000000000E+00 0.  1.
          2    1    6    6  502    0 -0.38309626042E+01  0.35510708348E+03  0.70000199379E+03  0.78493216797E+03  0.00000000000E+00 0. -1.
         -1    1    6    6    0  502 -0.96915357647E+01  0.44229353498E+03  0.68495699562E+03  0.81540393842E+03  0.00000000000E+00 0.  1.
<mgrwt>
<rscale>  0 0.87718776E+03</rscale>
<asrwt>0</asrwt>
<pdfrwt beam="1">  1        1 0.31207048E+00 0.87718776E+03</pdfrwt>
<pdfrwt beam="2">  1       -2 0.21114068E+00 0.87718776E+03</pdfrwt>
<totfact> 0.28940235E-01</totfact>
</mgrwt>
</event>
<event>
12    3  0.1182097E-007  0.9177723E+03  0.7818608E-02  0.9403634E-01
         -2   -1    0    0    0  501 -0.00000000000E+00  0.00000000000E+00  0.46912699460E+03  0.46912699460E+03  0.00000000000E+00 0.  1.
          1   -1    0    0  501    0  0.00000000000E+00 -0.00000000000E+00 -0.21396743824E+04  0.21396743824E+04  0.00000000000E+00 0. -1.
        -24    2    1    2    0    0 -0.84797512556E+03  0.13483957717E+03 -0.36851083807E+03  0.93774919679E+03  0.79559997305E+02 0.  0.
    5000000    2    1    2    0    0  0.84797512556E+03 -0.13483957717E+03 -0.13020365497E+04  0.16710521802E+04  0.59989389643E+03 0.  0.
        -24    2    4    4    0    0 -0.15477702035E+02  0.46213593866E+02 -0.38473061717E+03  0.39586158362E+03  0.79457473425E+02 0.  0.
         24    2    4    4    0    0  0.86345282759E+03 -0.18105317104E+03 -0.91730593252E+03  0.12751905965E+04  0.79560338430E+02 0.  0.
         11    1    3    3    0    0 -0.36160487877E+03  0.25061924084E+02 -0.17992331738E+03  0.40467096328E+03  0.00000000000E+00 0. -1.
        -12    1    3    3    0    0 -0.48637024679E+03  0.10977765309E+03 -0.18858752069E+03  0.53307823351E+03  0.00000000000E+00 0.  1.
         15    1    5    5    0    0  0.28701775578E+02  0.34585788558E+02 -0.23693102572E+03  0.24116267823E+03  0.17770000000E+01 0. -1.
        -16    1    5    5    0    0 -0.44179477613E+02  0.11627805308E+02 -0.14779959144E+03  0.15469890539E+03  0.00000000000E+00 0.  1.
          4    1    6    6  502    0  0.13334509039E+03 -0.47685006327E+02 -0.17992592215E+03  0.22897185509E+03  0.00000000000E+00 0. -1.
         -3    1    6    6    0  502  0.73010773720E+03 -0.13336816471E+03 -0.73738001036E+03  0.10462187414E+04  0.00000000000E+00 0.  1.
<mgrwt>
<rscale>  0 0.91777227E+03</rscale>
<asrwt>0</asrwt>
<pdfrwt beam="1">  1        1 0.32918067E+00 0.91777227E+03</pdfrwt>
<pdfrwt beam="2">  1       -2 0.72173384E-01 0.91777227E+03</pdfrwt>
<totfact> 0.37308188E+00</totfact>
</mgrwt>
</event>
<event>
12    3  0.1182097E-007  0.3390668E+03  0.7818608E-02  0.1067194E+00
          1   -1    0    0  501    0  0.00000000000E+00  0.00000000000E+00  0.12089619400E+04  0.12089619400E+04  0.00000000000E+00 0. -1.
         -2   -1    0    0    0  501 -0.00000000000E+00 -0.00000000000E+00 -0.25839116629E+03  0.25839116629E+03  0.00000000000E+00 0.  1.
        -24    2    1    2    0    0 -0.26348634939E+03  0.15876022626E+03  0.26741258952E+02  0.32362581788E+03  0.96895352392E+02 0.  0.
    5000000    2    1    2    0    0  0.26348634939E+03 -0.15876022626E+03  0.92382951473E+03  0.11437272884E+04  0.60001772651E+03 0.  0.
        -24    2    4    4    0    0  0.15165251530E+03 -0.14261702780E+03  0.13984211777E+02  0.22349998894E+03  0.80116071191E+02 0.  0.
         24    2    4    4    0    0  0.11183383408E+03 -0.16143198466E+02  0.90984530295E+03  0.92022729943E+03  0.78945538230E+02 0.  0.
         13    1    3    3    0    0 -0.15501337495E+03  0.43307117006E+02 -0.90967310463E+01  0.16120608957E+03  0.00000000000E+00 0. -1.
        -14    1    3    3    0    0 -0.10847297443E+03  0.11545310926E+03  0.35837989998E+02  0.16241972832E+03  0.00000000000E+00 0.  1.
         15    1    5    5    0    0  0.18828164930E+02 -0.67828178677E+02  0.89767577591E+01  0.70985220477E+02  0.17770000000E+01 0. -1.
        -16    1    5    5    0    0  0.13282435037E+03 -0.74788849121E+02  0.50074540181E+01  0.15251476847E+03  0.00000000000E+00 0.  1.
          2    1    6    6  502    0 -0.11561990047E+02 -0.13607443078E+01  0.13247001128E+03  0.13298058177E+03  0.00000000000E+00 0. -1.
         -1    1    6    6    0  502  0.12339582413E+03 -0.14782454158E+02  0.77737529167E+03  0.78724671766E+03  0.00000000000E+00 0.  1.
<mgrwt>
<rscale>  0 0.33906678E+03</rscale>
<asrwt>0</asrwt>
<pdfrwt beam="1">  1        1 0.18599414E+00 0.33906678E+03</pdfrwt>
<pdfrwt beam="2">  1       -2 0.39752488E-01 0.33906678E+03</pdfrwt>
<totfact> 0.59687813E+01</totfact>
</mgrwt>
</event>
<event>
12    3  0.1182097E-007  0.6930206E+03  0.7818608E-02  0.9729243E-01
          1   -1    0    0  501    0  0.00000000000E+00  0.00000000000E+00  0.85354464228E+03  0.85354464228E+03  0.00000000000E+00 0. -1.
         -2   -1    0    0    0  501 -0.00000000000E+00 -0.00000000000E+00 -0.11479126874E+04  0.11479126874E+04  0.00000000000E+00 0.  1.
        -24    2    1    2    0    0  0.42024833709E+03  0.40977575882E+03 -0.81959173742E+03  0.10112957382E+04  0.80396621037E+02 0.  0.
    5000000    2    1    2    0    0 -0.42024833709E+03 -0.40977575882E+03  0.52522369230E+03  0.99016159150E+03  0.60002934344E+03 0.  0.
        -24    2    4    4    0    0 -0.48842161029E+03 -0.47126432543E+03  0.32494265603E+03  0.75704627110E+03  0.82979473788E+02 0.  0.
         24    2    4    4    0    0  0.68173273198E+02  0.61488566612E+02  0.20028103627E+03  0.23311532039E+03  0.76169679724E+02 0.  0.
         11    1    3    3    0    0  0.16212156546E+03  0.18397640456E+03 -0.40249871323E+03  0.47131298897E+03  0.00000000000E+00 0. -1.
        -12    1    3    3    0    0  0.25812677163E+03  0.22579935425E+03 -0.41709302419E+03  0.53998274920E+03  0.00000000000E+00 0.  1.
         15    1    5    5    0    0 -0.20929633921E+03 -0.22356088181E+03  0.10434484535E+03  0.32353582486E+03  0.17770000000E+01 0. -1.
        -16    1    5    5    0    0 -0.27912527107E+03 -0.24770344362E+03  0.22059781068E+03  0.43351044625E+03  0.00000000000E+00 0.  1.
          4    1    6    6  502    0  0.26320361576E+01  0.52175750797E+02  0.74721135407E+02  0.91172828530E+02  0.00000000000E+00 0. -1.
         -1    1    6    6    0  502  0.65541237040E+02  0.93128158145E+01  0.12555990086E+03  0.14194249186E+03  0.00000000000E+00 0.  1.
<mgrwt>
<rscale>  0 0.69302059E+03</rscale>
<asrwt>0</asrwt>
<pdfrwt beam="1">  1        1 0.13131456E+00 0.69302059E+03</pdfrwt>
<pdfrwt beam="2">  1       -2 0.17660195E+00 0.69302059E+03</pdfrwt>
<totfact> 0.34540094E+00</totfact>
</mgrwt>
</event>
<event>
12    3  0.1182097E-007  0.6712416E+03  0.7818608E-02  0.9767717E-01
         -2   -1    0    0    0  501 -0.00000000000E+00  0.00000000000E+00  0.28781645684E+04  0.28781645684E+04  0.00000000000E+00 0.  1.
          1   -1    0    0  501    0  0.00000000000E+00 -0.00000000000E+00 -0.16145740757E+03  0.16145740757E+03  0.00000000000E+00 0. -1.
        -24    2    1    2    0    0  0.37960741400E+03  0.39205645305E+03  0.10613808810E+04  0.11962283611E+04  0.81380993311E+02 0.  0.
    5000000    2    1    2    0    0 -0.37960741400E+03 -0.39205645305E+03  0.16553262798E+04  0.18433936149E+04  0.60015404333E+03 0.  0.
        -24    2    4    4    0    0 -0.26295270335E+03 -0.52893106813E+03  0.13953619517E+04  0.15174208422E+04  0.81356235898E+02 0.  0.
         24    2    4    4    0    0 -0.11665471065E+03  0.13687461508E+03  0.25996432809E+03  0.32597277268E+03  0.79585267947E+02 0.  0.
         11    1    3    3    0    0  0.29750454466E+03  0.26504664639E+03  0.81387648848E+03  0.90617526856E+03  0.00000000000E+00 0. -1.
        -12    1    3    3    0    0  0.82102869342E+02  0.12700980665E+03  0.24750439254E+03  0.29005309250E+03  0.00000000000E+00 0.  1.
         15    1    5    5    0    0 -0.26332006155E+03 -0.48215228657E+03  0.12777972509E+04  0.13908908133E+04  0.17770000000E+01 0.  1.
        -16    1    5    5    0    0  0.36735819294E+00 -0.46778781555E+02  0.11756470075E+03  0.12653002892E+03  0.00000000000E+00 0.  1.
          2    1    6    6  502    0 -0.24198363115E+02  0.89592612293E+02  0.12059176208E+03  0.15216691505E+03  0.00000000000E+00 0. -1.
         -3    1    6    6    0  502 -0.92456347534E+02  0.47282002790E+02  0.13937256602E+03  0.17380585763E+03  0.00000000000E+00 0.  1.
<mgrwt>
<rscale>  0 0.67124164E+03</rscale>
<asrwt>0</asrwt>
<pdfrwt beam="1">  1        1 0.24839603E-01 0.67124164E+03</pdfrwt>
<pdfrwt beam="2">  1       -2 0.44279451E+00 0.67124164E+03</pdfrwt>
<totfact> 0.71961256E-01</totfact>
</mgrwt>
</event>
<event>
12    3  0.1182097E-007  0.9369135E+03  0.7818608E-02  0.9380579E-01
         -2   -1    0    0    0  501 -0.00000000000E+00  0.00000000000E+00  0.36990735635E+03  0.36990735635E+03  0.00000000000E+00 0.  1.
          1   -1    0    0  501    0  0.00000000000E+00 -0.00000000000E+00 -0.29074772028E+04  0.29074772028E+04  0.00000000000E+00 0. -1.
        -24    2    1    2    0    0  0.28007448995E+03 -0.86973801809E+03 -0.15664806571E+04  0.18152221647E+04  0.79271167815E+02 0.  0.
    5000000    2    1    2    0    0 -0.28007448995E+03  0.86973801809E+03 -0.97108918933E+03  0.14621623945E+04  0.60001559488E+03 0.  0.
        -24    2    4    4    0    0 -0.20024712806E+03  0.81544822656E+03 -0.51241902873E+03  0.98734050870E+03  0.84931128628E+02 0.  0.
         24    2    4    4    0    0 -0.79827361885E+02  0.54289791527E+02 -0.45867016060E+03  0.47482188576E+03  0.75879627061E+02 0.  0.
         11    1    3    3    0    0  0.20936480219E+03 -0.60253635237E+03 -0.11570139763E+04  0.13211983264E+04  0.00000000000E+00 0. -1.
        -12    1    3    3    0    0  0.70709687754E+02 -0.26720166572E+03 -0.40946668083E+03  0.49402383831E+03  0.00000000000E+00 0.  1.
         15    1    5    5    0    0  0.67250656051E+01  0.23838099397E+02 -0.78081695507E+01  0.26030880335E+02  0.17770000000E+01 0. -1.
        -16    1    5    5    0    0 -0.20697219367E+03  0.79161012717E+03 -0.50461085918E+03  0.96130962836E+03  0.00000000000E+00 0.  1.
          4    1    6    6  502    0 -0.33153130414E+02 -0.12146619814E+02 -0.21759990434E+03  0.22044588632E+03  0.00000000000E+00 0. -1.
         -3    1    6    6    0  502 -0.46674231471E+02  0.66436411341E+02 -0.24107025626E+03  0.25437599944E+03  0.00000000000E+00 0.  1.
<mgrwt>
<rscale>  0 0.93691352E+03</rscale>
<asrwt>0</asrwt>
<pdfrwt beam="1">  1        1 0.44730419E+00 0.93691352E+03</pdfrwt>
<pdfrwt beam="2">  1       -2 0.56908824E-01 0.93691352E+03</pdfrwt>
<totfact> 0.18332363E+00</totfact>
</mgrwt>
</event>
<event>
12    3  0.1182097E-007  0.4939723E+03  0.7818608E-02  0.1015364E+00
          3   -1    0    0  501    0  0.00000000000E+00  0.00000000000E+00  0.20718895411E+04  0.20718895411E+04  0.00000000000E+00 0. -1.
         -4   -1    0    0    0  501 -0.00000000000E+00 -0.00000000000E+00 -0.30238883512E+03  0.30238883512E+03  0.00000000000E+00 0.  1.
        -24    2    1    2    0    0  0.33812897591E+03 -0.28019376813E+03  0.15263757484E+04  0.15920789206E+04  0.10978438963E+03 0.  0.
    5000000    2    1    2    0    0 -0.33812897591E+03  0.28019376813E+03  0.24312495758E+03  0.78219945558E+03  0.59990540192E+03 0.  0.
        -24    2    4    4    0    0 -0.27060827391E+03  0.33078013839E+03  0.39591945399E+03  0.58774628267E+03  0.77776223113E+02 0.  0.
         24    2    4    4    0    0 -0.67520701995E+02 -0.50586370255E+02 -0.15279449641E+03  0.19445317291E+03  0.85719614266E+02 0.  0.
         13    1    3    3    0    0  0.12747395205E+03 -0.12406502250E+03  0.44197226864E+03  0.47642546585E+03  0.00000000000E+00 0. -1.
        -14    1    3    3    0    0  0.21065502386E+03 -0.15612874563E+03  0.10844034798E+04  0.11156534548E+04  0.00000000000E+00 0.  1.
         15    1    5    5    0    0 -0.14330476463E+03  0.23123226467E+03  0.23161405198E+03  0.35728537976E+03  0.17770000000E+01 0. -1.
        -16    1    5    5    0    0 -0.12730350929E+03  0.99547873717E+02  0.16430540201E+03  0.23046090291E+03  0.00000000000E+00 0.  1.
          2    1    6    6  502    0 -0.21390998943E+02 -0.62922428786E+02 -0.57569055232E+02  0.87926122400E+02  0.00000000000E+00 0. -1.
         -1    1    6    6    0  502 -0.46129703052E+02  0.12336058531E+02 -0.95225441174E+02  0.10652705051E+03  0.00000000000E+00 0.  1.
<mgrwt>
<rscale>  0 0.49397227E+03</rscale>
<asrwt>0</asrwt>
<pdfrwt beam="1">  1        3 0.31875223E+00 0.49397227E+03</pdfrwt>
<pdfrwt beam="2">  1       -4 0.46521361E-01 0.49397227E+03</pdfrwt>
<totfact> 0.32417591E-01</totfact>
</mgrwt>
</event>
<event>
12    3  0.1182097E-007  0.7648505E+03  0.7818608E-02  0.9612336E-01
         -2   -1    0    0    0  501 -0.00000000000E+00  0.00000000000E+00  0.53416231176E+03  0.53416231176E+03  0.00000000000E+00 0.  1.
          1   -1    0    0  501    0  0.00000000000E+00 -0.00000000000E+00 -0.12422099150E+04  0.12422099150E+04  0.00000000000E+00 0. -1.
        -24    2    1    2    0    0 -0.69290015829E+03  0.10739745281E+03 -0.28763707159E+03  0.76216487864E+03  0.80717873256E+02 0.  0.
    5000000    2    1    2    0    0  0.69290015829E+03 -0.10739745281E+03 -0.42041053161E+03  0.10142073481E+04  0.60018887658E+03 0.  0.
        -24    2    4    4    0    0 -0.39722992201E+02 -0.63314489391E+01 -0.23000499564E+03  0.24641751703E+03  0.78748278230E+02 0.  0.
         24    2    4    4    0    0  0.73262315049E+03 -0.10106600387E+03 -0.19040553597E+03  0.76778983105E+03  0.79346951795E+02 0.  0.
         13    1    3    3    0    0 -0.58207435613E+03  0.65677149549E+02 -0.25815667153E+03  0.64013194819E+03  0.00000000000E+00 0. -1.
        -14    1    3    3    0    0 -0.11082580216E+03  0.41720303259E+02 -0.29480400055E+02  0.12203293045E+03  0.00000000000E+00 0.  1.
         15    1    5    5    0    0 -0.41255821000E+02  0.28340781751E+02 -0.16861768120E+03  0.17589861517E+03  0.17770000000E+01 0. -1.
        -16    1    5    5    0    0  0.15328287989E+01 -0.34672230690E+02 -0.61387314438E+02  0.70518901856E+02  0.00000000000E+00 0.  1.
          4    1    6    6  502    0  0.57317225341E+03 -0.61680709520E+02 -0.17680293915E+03  0.60298442873E+03  0.00000000000E+00 0. -1.
         -3    1    6    6    0  502  0.15945089708E+03 -0.39385294348E+02 -0.13602596819E+02  0.16480540231E+03  0.00000000000E+00 0.  1.
<mgrwt>
<rscale>  0 0.76485052E+03</rscale>
<asrwt>0</asrwt>
<pdfrwt beam="1">  1        1 0.19110921E+00 0.76485052E+03</pdfrwt>
<pdfrwt beam="2">  1       -2 0.82178819E-01 0.76485052E+03</pdfrwt>
<totfact> 0.11652619E+01</totfact>
</mgrwt>
</event>
<event>
12    3  0.1182097E-007  0.5092865E+03  0.7818608E-02  0.1011383E+00
         -2   -1    0    0    0  501 -0.00000000000E+00  0.00000000000E+00  0.36814714223E+03  0.36814714223E+03  0.00000000000E+00 0.  1.
          1   -1    0    0  501    0  0.00000000000E+00 -0.00000000000E+00 -0.18835300740E+04  0.18835300740E+04  0.00000000000E+00 0. -1.
        -24    2    1    2    0    0 -0.41104557127E+03 -0.27389447179E+03  0.51110147993E+02  0.50295724215E+03  0.79856727152E+02 0.  0.
    5000000    2    1    2    0    0  0.41104557127E+03  0.27389447179E+03 -0.15664930797E+04  0.17487199740E+04  0.60012026748E+03 0.  0.
        -24    2    4    4    0    0  0.68981261620E+02  0.87976380759E+02 -0.46900226133E+01  0.13711991563E+03  0.79256652242E+02 0.  0.
         24    2    4    4    0    0  0.34206430965E+03  0.18591809103E+03 -0.15618030571E+04  0.16116000584E+04  0.80327022511E+02 0.  0.
         11    1    3    3    0    0 -0.38061003849E+03 -0.23860594777E+03  0.25874529262E+02  0.44996254397E+03  0.00000000000E+00 0. -1.
        -12    1    3    3    0    0 -0.30435532777E+02 -0.35288524020E+02  0.25235618731E+02  0.52994698184E+02  0.00000000000E+00 0.  1.
         15    1    5    5    0    0  0.46103495536E+02  0.78295585595E+01 -0.22445244705E+02  0.51901647630E+02  0.17770000000E+01 0. -1.
        -16    1    5    5    0    0  0.22877766084E+02  0.80146822200E+02  0.17755222092E+02  0.85218268002E+02  0.00000000000E+00 0.  1.
          4    1    6    6  502    0  0.81600494628E+01  0.15991574995E+02 -0.33093904770E+02  0.37650012098E+02  0.00000000000E+00 0. -1.
         -3    1    6    6    0  502  0.33390426019E+03  0.16992651603E+03 -0.15287091523E+04  0.15739500463E+04  0.00000000000E+00 0.  1.
<mgrwt>
<rscale>  0 0.50928650E+03</rscale>
<asrwt>0</asrwt>
<pdfrwt beam="1">  1        1 0.28977385E+00 0.50928650E+03</pdfrwt>
<pdfrwt beam="2">  1       -2 0.56638024E-01 0.50928650E+03</pdfrwt>
<totfact> 0.99547567E+00</totfact>
</mgrwt>
</event>
<event>
12    3  0.1182097E-007  0.4238746E+03  0.7818608E-02  0.1035813E+00
          1   -1    0    0  501    0  0.00000000000E+00  0.00000000000E+00  0.19836864438E+04  0.19836864438E+04  0.00000000000E+00 0. -1.
         -2   -1    0    0    0  501 -0.00000000000E+00 -0.00000000000E+00 -0.11315232192E+03  0.11315232192E+03  0.00000000000E+00 0.  1.
        -24    2    1    2    0    0 -0.25790839391E+03 -0.47570327989E+02  0.75507157946E+03  0.80342559167E+03  0.81116678171E+02 0.  0.
    5000000    2    1    2    0    0  0.25790839391E+03  0.47570327989E+02  0.11154625424E+04  0.12934131740E+04  0.59990105810E+03 0.  0.
        -24    2    4    4    0    0  0.32229086251E+03 -0.15096427095E+03  0.38770491561E+03  0.53222501343E+03  0.79289041889E+02 0.  0.
         24    2    4    4    0    0 -0.64382468601E+02  0.19853459894E+03  0.72775762680E+03  0.76118816062E+03  0.78836306699E+02 0.  0.
         13    1    3    3    0    0 -0.13958367404E+03 -0.53301060246E+02  0.50632707885E+03  0.52791260248E+03  0.00000000000E+00 0. -1.
        -14    1    3    3    0    0 -0.11832471987E+03  0.57307322570E+01  0.24874450061E+03  0.27551298918E+03  0.00000000000E+00 0.  1.
         15    1    5    5    0    0  0.12958074114E+03 -0.10343401284E+03  0.18769959213E+03  0.25044771530E+03  0.17770000000E+01 0. -1.
        -16    1    5    5    0    0  0.19271012137E+03 -0.47530258115E+02  0.20000532348E+03  0.28177729812E+03  0.00000000000E+00 0.  1.
          2    1    6    6  502    0 -0.52669364634E+02  0.75902096583E+02  0.41243358632E+03  0.42265429533E+03  0.00000000000E+00 0. -1.
         -1    1    6    6    0  502 -0.11713103968E+02  0.12263250236E+03  0.31532404048E+03  0.33853386528E+03  0.00000000000E+00 0.  1.
<mgrwt>
<rscale>  0 0.42387464E+03</rscale>
<asrwt>0</asrwt>
<pdfrwt beam="1">  1        1 0.30518250E+00 0.42387464E+03</pdfrwt>
<pdfrwt beam="2">  1       -2 0.17408051E-01 0.42387464E+03</pdfrwt>
<totfact> 0.78658632E+01</totfact>
</mgrwt>
</event>
<event>
12    3  0.1182097E-007  0.2788484E+03  0.7818608E-02  0.1096320E+00
          1   -1    0    0  501    0  0.00000000000E+00  0.00000000000E+00  0.48495341172E+03  0.48495341172E+03  0.00000000000E+00 0. -1.
         -2   -1    0    0    0  501 -0.00000000000E+00 -0.00000000000E+00 -0.26407741524E+03  0.26407741524E+03  0.00000000000E+00 0.  1.
        -24    2    1    2    0    0  0.37539577727E+02 -0.63374165127E+02  0.48924749946E+02  0.12044572257E+03  0.81780414695E+02 0.  0.
    5000000    2    1    2    0    0 -0.37539577727E+02  0.63374165127E+02  0.17195124653E+03  0.62858510439E+03  0.60010540539E+03 0.  0.
        -24    2    4    4    0    0  0.18477007000E+03  0.96752575848E+02  0.28622969263E+03  0.36367967794E+03  0.82670620532E+02 0.  0.
         24    2    4    4    0    0 -0.22230964773E+03 -0.33378410720E+02 -0.11427844611E+03  0.26490542645E+03  0.81114881131E+02 0.  0.
         11    1    3    3    0    0 -0.17125785944E+02 -0.51244219483E+02  0.25573318969E+02  0.59776728061E+02  0.00000000000E+00 0. -1.
        -12    1    3    3    0    0  0.54665363671E+02 -0.12129945645E+02  0.23351430977E+02  0.60668994513E+02  0.00000000000E+00 0.  1.
         15    1    5    5    0    0  0.52230402868E+01  0.30052925548E+02  0.59413809417E+02  0.66810305809E+02  0.17770000000E+01 0. -1.
        -16    1    5    5    0    0  0.17954702972E+03  0.66699650299E+02  0.22681588322E+03  0.29686937213E+03  0.00000000000E+00 0.  1.
          2    1    6    6  502    0 -0.13296287395E+03 -0.29228517100E+02 -0.24779582475E+02  0.13837434650E+03  0.00000000000E+00 0. -1.
         -1    1    6    6    0  502 -0.89346773778E+02 -0.41498936198E+01 -0.89498863631E+02  0.12653107995E+03  0.00000000000E+00 0.  1.
<mgrwt>
<rscale>  0 0.27884840E+03</rscale>
<asrwt>0</asrwt>
<pdfrwt beam="1">  1        1 0.74608217E-01 0.27884840E+03</pdfrwt>
<pdfrwt beam="2">  1       -2 0.40627295E-01 0.27884840E+03</pdfrwt>
<totfact> 0.24078819E+02</totfact>
</mgrwt>
</event>
<event>
12    3  0.1182097E-007  0.8825288E+03  0.7818608E-02  0.9447689E-01
          1   -1    0    0  501    0  0.00000000000E+00  0.00000000000E+00  0.58287078289E+03  0.58287078289E+03  0.00000000000E+00 0. -1.
         -2   -1    0    0    0  501 -0.00000000000E+00 -0.00000000000E+00 -0.14581312279E+04  0.14581312279E+04  0.00000000000E+00 0.  1.
        -24    2    1    2    0    0 -0.33332373245E+03 -0.75085386981E+03 -0.35651770913E+03  0.89901290297E+03  0.78949847079E+02 0.  0.
    5000000    2    1    2    0    0  0.33332373245E+03  0.75085386981E+03 -0.51874273585E+03  0.11419891078E+04  0.60013236196E+03 0.  0.
        -24    2    4    4    0    0  0.29200095810E+02  0.58057356648E+03 -0.51938627719E+03  0.78369890139E+03  0.80644599396E+02 0.  0.
         24    2    4    4    0    0  0.30412363664E+03  0.17028030333E+03  0.64354133875E+00  0.35829020640E+03  0.82975235981E+02 0.  0.
         13    1    3    3    0    0 -0.16238863091E+03 -0.33237839626E+03 -0.20075059168E+03  0.42088747405E+03  0.00000000000E+00 0. -1.
        -14    1    3    3    0    0 -0.17093510154E+03 -0.41847547355E+03 -0.15576711745E+03  0.47812542893E+03  0.00000000000E+00 0.  1.
         15    1    5    5    0    0 -0.22074459174E+02  0.20602318027E+03 -0.15646486116E+03  0.25964830650E+03  0.17770000000E+01 0. -1.
        -16    1    5    5    0    0  0.51274554984E+02  0.37455038621E+03 -0.36292141603E+03  0.52405059489E+03  0.00000000000E+00 0.  1.
          2    1    6    6  502    0  0.27871837460E+03  0.17868531189E+03  0.53454746764E+01  0.33112074402E+03  0.00000000000E+00 0. -1.
         -1    1    6    6    0  502  0.25405262048E+02 -0.84050085582E+01 -0.47019333377E+01  0.27169462374E+02  0.00000000000E+00 0.  1.
<mgrwt>
<rscale>  0 0.88252879E+03</rscale>
<asrwt>0</asrwt>
<pdfrwt beam="1">  1        1 0.89672429E-01 0.88252879E+03</pdfrwt>
<pdfrwt beam="2">  1       -2 0.22432788E+00 0.88252879E+03</pdfrwt>
<totfact> 0.29394378E+00</totfact>
</mgrwt>
</event>
<event>
12    3  0.1182097E-007  0.5254807E+03  0.7818608E-02  0.1007334E+00
          1   -1    0    0  501    0  0.00000000000E+00  0.00000000000E+00  0.12501993425E+04  0.12501993425E+04  0.00000000000E+00 0. -1.
         -2   -1    0    0    0  501 -0.00000000000E+00 -0.00000000000E+00 -0.46140296779E+03  0.46140296779E+03  0.00000000000E+00 0.  1.
        -24    2    1    2    0    0  0.35929040957E+03 -0.41261250625E+01  0.92809840307E+03  0.99848341163E+03  0.80596862242E+02 0.  0.
    5000000    2    1    2    0    0 -0.35929040957E+03  0.41261250625E+01 -0.13930202834E+03  0.71311889869E+03  0.60002240395E+03 0.  0.
        -24    2    4    4    0    0 -0.47932557943E+02 -0.26448499614E+03 -0.36067211762E+02  0.28254899209E+03  0.79266927986E+02 0.  0.
         24    2    4    4    0    0 -0.31135785163E+03  0.26861112120E+03 -0.10323481658E+03  0.43056990660E+03  0.75082427439E+02 0.  0.
         13    1    3    3    0    0  0.23975754227E+03 -0.38604694563E+02  0.57825053455E+03  0.62717436350E+03  0.00000000000E+00 0. -1.
        -14    1    3    3    0    0  0.11953286730E+03  0.34478569500E+02  0.34984786851E+03  0.37130904813E+03  0.00000000000E+00 0.  1.
         15    1    5    5    0    0 -0.38433427702E+02 -0.23908867627E+03 -0.56414452832E+02  0.24864889242E+03  0.17770000000E+01 0. -1.
        -16    1    5    5    0    0 -0.94991302409E+01 -0.25396319870E+02  0.20347241070E+02  0.33900099668E+02  0.00000000000E+00 0.  1.
          2    1    6    6  502    0 -0.96192852670E+02  0.11570195929E+03 -0.64783158853E+02  0.16381961409E+03  0.00000000000E+00 0. -1.
         -1    1    6    6    0  502 -0.21516499896E+03  0.15290916191E+03 -0.38451657725E+02  0.26675029251E+03  0.00000000000E+00 0.  1.
<mgrwt>
<rscale>  0 0.52548067E+03</rscale>
<asrwt>0</asrwt>
<pdfrwt beam="1">  1        1 0.19233836E+00 0.52548067E+03</pdfrwt>
<pdfrwt beam="2">  1       -2 0.70985073E-01 0.52548067E+03</pdfrwt>
<totfact> 0.16473269E+01</totfact>
</mgrwt>
</event>
<event>
12    3  0.1182097E-007  0.5582770E+03  0.7818608E-02  0.9995961E-01
         -2   -1    0    0    0  501 -0.00000000000E+00  0.00000000000E+00  0.10458875947E+04  0.10458875947E+04  0.00000000000E+00 0.  1.
          1   -1    0    0  501    0  0.00000000000E+00 -0.00000000000E+00 -0.33127455143E+03  0.33127455143E+03  0.00000000000E+00 0. -1.
        -24    2    1    2    0    0 -0.91644527428E+02 -0.38939281884E+03  0.45506300621E+03  0.61099180612E+03  0.78760147026E+02 0.  0.
    5000000    2    1    2    0    0  0.91644527428E+02  0.38939281884E+03  0.25955003704E+03  0.76617033998E+03  0.59968765317E+03 0.  0.
        -24    2    4    4    0    0  0.94774773877E+02  0.53709739080E+03  0.21476717982E+03  0.59166441123E+03  0.80535513987E+02 0.  0.
         24    2    4    4    0    0 -0.31302464497E+01 -0.14770457197E+03  0.44782857218E+02  0.17450592875E+03  0.81365692068E+02 0.  0.
         11    1    3    3    0    0 -0.28353894386E+02 -0.25631440591E+03  0.32116251238E+03  0.41188150888E+03  0.00000000000E+00 0. -1.
        -12    1    3    3    0    0 -0.63290633041E+02 -0.13307841293E+03  0.13390049383E+03  0.19911029724E+03  0.00000000000E+00 0.  1.
         15    1    5    5    0    0  0.20836484321E+02  0.12419290827E+03  0.87345502273E+02  0.15326588674E+03  0.17770000000E+01 0. -1.
        -16    1    5    5    0    0  0.73938289557E+02  0.41290448254E+03  0.12742167755E+03  0.43839852449E+03  0.00000000000E+00 0.  1.
          2    1    6    6  502    0  0.27720155650E+02 -0.19138925905E+02 -0.32367223641E+01  0.33840536133E+02  0.00000000000E+00 0. -1.
         -1    1    6    6    0  502 -0.30850402100E+02 -0.12856564606E+03  0.48019579582E+02  0.14066539262E+03  0.00000000000E+00 0.  1.
<mgrwt>
<rscale>  0 0.55827704E+03</rscale>
<asrwt>0</asrwt>
<pdfrwt beam="1">  1        1 0.50965316E-01 0.55827704E+03</pdfrwt>
<pdfrwt beam="2">  1       -2 0.16090578E+00 0.55827704E+03</pdfrwt>
<totfact> 0.17307019E+01</totfact>
</mgrwt>
</event>
<event>
12    3  0.1182097E-007  0.4848026E+03  0.7818608E-02  0.1017824E+00
         -2   -1    0    0    0  501 -0.00000000000E+00  0.00000000000E+00  0.52412395606E+03  0.52412395606E+03  0.00000000000E+00 0.  1.
          1   -1    0    0  501    0  0.00000000000E+00 -0.00000000000E+00 -0.45316001931E+03  0.45316001931E+03  0.00000000000E+00 0. -1.
        -24    2    1    2    0    0  0.28438853049E+03 -0.79360636169E+02  0.17832771070E+02  0.30637066456E+03  0.79812464741E+02 0.  0.
    5000000    2    1    2    0    0 -0.28438853049E+03  0.79360636169E+02  0.53131165672E+02  0.67091331081E+03  0.60010565987E+03 0.  0.
        -24    2    4    4    0    0 -0.60707334834E+02  0.31858258364E+03  0.29417569885E+02  0.33371793249E+03  0.72952189437E+02 0.  0.
         24    2    4    4    0    0 -0.22368119566E+03 -0.23922194747E+03  0.23713595787E+02  0.33719537833E+03  0.76667927423E+02 0.  0.
         13    1    3    3    0    0  0.92041137752E+02  0.18750130640E+01  0.31047152574E+02  0.97154579900E+02  0.00000000000E+00 0. -1.
        -14    1    3    3    0    0  0.19234739274E+03 -0.81235649233E+02 -0.13214381504E+02  0.20921608466E+03  0.00000000000E+00 0.  1.
         15    1    5    5    0    0  0.12824111564E+02  0.11877830780E+03  0.83601970262E+01  0.11977393233E+03  0.17770000000E+01 0. -1.
        -16    1    5    5    0    0 -0.73531446398E+02  0.19980427584E+03  0.21057372858E+02  0.21394400016E+03  0.00000000000E+00 0.  1.
          4    1    6    6  502    0  0.12102445094E+01 -0.27373094967E+02  0.17105023859E+01  0.27453175377E+02  0.00000000000E+00 0. -1.
         -3    1    6    6    0  502 -0.22489144017E+03 -0.21184885251E+03  0.22003093401E+02  0.30974220295E+03  0.00000000000E+00 0.  1.
<mgrwt>
<rscale>  0 0.48480256E+03</rscale>
<asrwt>0</asrwt>
<pdfrwt beam="1">  1        1 0.69716926E-01 0.48480256E+03</pdfrwt>
<pdfrwt beam="2">  1       -2 0.80634455E-01 0.48480256E+03</pdfrwt>
<totfact> 0.62464460E+01</totfact>
</mgrwt>
</event>
<event>
12    3  0.1182097E-007  0.3539055E+03  0.7818608E-02  0.1061023E+00
         -2   -1    0    0    0  501 -0.00000000000E+00  0.00000000000E+00  0.10813810855E+03  0.10813810855E+03  0.00000000000E+00 0.  1.
          1   -1    0    0  501    0  0.00000000000E+00 -0.00000000000E+00 -0.16105151296E+04  0.16105151296E+04  0.00000000000E+00 0. -1.
        -24    2    1    2    0    0  0.18418063307E+03  0.44098294853E+02 -0.35682758795E+03  0.41167307112E+03  0.79256701687E+02 0.  0.
    5000000    2    1    2    0    0 -0.18418063307E+03 -0.44098294853E+02 -0.11455494331E+04  0.13069801670E+04  0.60003873881E+03 0.  0.
        -24    2    4    4    0    0  0.12984790524E+03  0.93233668691E+02 -0.78418543661E+03  0.80423810945E+03  0.79367135672E+02 0.  0.
         24    2    4    4    0    0 -0.31402853831E+03 -0.13733196354E+03 -0.36136399647E+03  0.50274205754E+03  0.68495601293E+02 0.  0.
         11    1    3    3    0    0  0.10759284324E+03  0.31876025153E+02 -0.28365965254E+03  0.30504933924E+03  0.00000000000E+00 0. -1.
        -12    1    3    3    0    0  0.76587789833E+02  0.12222269700E+02 -0.73167935408E+02  0.10662373188E+03  0.00000000000E+00 0.  1.
         15    1    5    5    0    0  0.90487413774E+02  0.31457813797E+02 -0.56684467688E+03  0.57488573781E+03  0.17770000000E+01 0. -1.
        -16    1    5    5    0    0  0.39360491462E+02  0.61775854895E+02 -0.21734075973E+03  0.22935237164E+03  0.00000000000E+00 0.  1.
          4    1    6    6  502    0 -0.18426178878E+03 -0.44903009379E+02 -0.18230905604E+03  0.26306896239E+03  0.00000000000E+00 0. -1.
         -3    1    6    6    0  502 -0.12976674953E+03 -0.92428954165E+02 -0.17905494043E+03  0.23967309516E+03  0.00000000000E+00 0.  1.
<mgrwt>
<rscale>  0 0.35390554E+03</rscale>
<asrwt>0</asrwt>
<pdfrwt beam="1">  1        1 0.24777157E+00 0.35390554E+03</pdfrwt>
<pdfrwt beam="2">  1       -2 0.16636631E-01 0.35390554E+03</pdfrwt>
<totfact> 0.15147495E+02</totfact>
</mgrwt>
</event>
<event>
12    3  0.1182097E-007  0.5673581E+03  0.7818608E-02  0.9975542E-01
         -2   -1    0    0    0  501 -0.00000000000E+00  0.00000000000E+00  0.59829133367E+03  0.59829133367E+03  0.00000000000E+00 0.  1.
          1   -1    0    0  501    0  0.00000000000E+00 -0.00000000000E+00 -0.75300931933E+03  0.75300931933E+03  0.00000000000E+00 0. -1.
        -24    2    1    2    0    0  0.42720183498E+03  0.30110224459E+03 -0.17067208750E+03  0.55553484942E+03  0.79536393899E+02 0.  0.
    5000000    2    1    2    0    0 -0.42720183498E+03 -0.30110224459E+03  0.15954101836E+02  0.79576580359E+03  0.59985390829E+03 0.  0.
        -24    2    4    4    0    0 -0.46021379092E+03 -0.23343428089E+03  0.21846403970E+03  0.56600051878E+03  0.79635128972E+02 0.  0.
         24    2    4    4    0    0  0.33011955937E+02 -0.67667963697E+02 -0.20250993787E+03  0.22976528481E+03  0.78186115284E+02 0.  0.
         13    1    3    3    0    0  0.34382014695E+03  0.27606930252E+03 -0.15278363630E+03  0.46665768264E+03  0.00000000000E+00 0. -1.
        -14    1    3    3    0    0  0.83381688039E+02  0.25032942065E+02 -0.17888451195E+02  0.88877166780E+02  0.00000000000E+00 0.  1.
         15    1    5    5    0    0 -0.15237180569E+03 -0.99354424705E+02  0.11256986592E+03  0.21392428876E+03  0.17770000000E+01 0. -1.
        -16    1    5    5    0    0 -0.30784198523E+03 -0.13407985618E+03  0.10589417378E+03  0.35207623002E+03  0.00000000000E+00 0.  1.
          2    1    6    6  502    0  0.38886579308E+02 -0.25595664421E+02 -0.38707332532E+02  0.60543882260E+02  0.00000000000E+00 0. -1.
         -1    1    6    6    0  502 -0.58746233711E+01 -0.42072299277E+02 -0.16380260534E+03  0.16922140255E+03  0.00000000000E+00 0.  1.
<mgrwt>
<rscale>  0 0.56735815E+03</rscale>
<asrwt>0</asrwt>
<pdfrwt beam="1">  1        1 0.11584759E+00 0.56735815E+03</pdfrwt>
<pdfrwt beam="2">  1       -2 0.92044821E-01 0.56735815E+03</pdfrwt>
<totfact> 0.22263002E+01</totfact>
</mgrwt>
</event>
<event>
12    3  0.1182097E-007  0.1253571E+04  0.7818608E-02  0.9067216E-01
          1   -1    0    0  501    0  0.00000000000E+00  0.00000000000E+00  0.12197522856E+04  0.12197522856E+04  0.00000000000E+00 0. -1.
         -2   -1    0    0    0  501 -0.00000000000E+00 -0.00000000000E+00 -0.15991392280E+04  0.15991392280E+04  0.00000000000E+00 0.  1.
        -24    2    1    2    0    0  0.12197641441E+04  0.11717775825E+03  0.34311317666E+03  0.12750113306E+04  0.79825101870E+02 0.  0.
    5000000    2    1    2    0    0 -0.12197641441E+04 -0.11717775825E+03 -0.72250011902E+03  0.15438801831E+04  0.60000366964E+03 0.  0.
        -24    2    4    4    0    0 -0.12211634857E+03 -0.12392123894E+03  0.53324914924E+02  0.19743398722E+03  0.76601283974E+02 0.  0.
         24    2    4    4    0    0 -0.10976477955E+04  0.67434806912E+01 -0.77582503395E+03  0.13464461959E+04  0.78337204483E+02 0.  0.
         13    1    3    3    0    0  0.10616919128E+04  0.11389405348E+03  0.27347203396E+03  0.11022470352E+04  0.00000000000E+00 0. -1.
        -14    1    3    3    0    0  0.15807223121E+03  0.32837047740E+01  0.69641142702E+02  0.17276429536E+03  0.00000000000E+00 0.  1.
         15    1    5    5    0    0 -0.12654914799E+03 -0.10815451950E+03  0.63470959796E+02  0.17816791914E+03  0.17770000000E+01 0. -1.
        -16    1    5    5    0    0  0.44327994108E+01 -0.15766719448E+02 -0.10146044871E+02  0.19266068081E+02  0.00000000000E+00 0.  1.
          4    1    6    6  502    0 -0.82782277129E+03  0.22298034087E+02 -0.54865790457E+03  0.99338473878E+03  0.00000000000E+00 0. -1.
         -3    1    6    6    0  502 -0.26982502419E+03 -0.15554553396E+02 -0.22716712938E+03  0.35306145709E+03  0.00000000000E+00 0.  1.
<mgrwt>
<rscale>  0 0.12535714E+04</rscale>
<asrwt>0</asrwt>
<pdfrwt beam="1">  1        1 0.18765420E+00 0.12535714E+04</pdfrwt>
<pdfrwt beam="2">  1       -2 0.24602142E+00 0.12535714E+04</pdfrwt>
<totfact> 0.59753624E-01</totfact>
</mgrwt>
</event>
<event>
12    3  0.1182097E-007  0.1134384E+04  0.7818608E-02  0.9172312E-01
          1   -1    0    0  501    0  0.00000000000E+00  0.00000000000E+00  0.30338012841E+04  0.30338012841E+04  0.00000000000E+00 0. -1.
         -2   -1    0    0    0  501 -0.00000000000E+00 -0.00000000000E+00 -0.46919747609E+03  0.46919747609E+03  0.00000000000E+00 0.  1.
        -24    2    1    2    0    0  0.75288048572E+03  0.82041094829E+03  0.13111503586E+04  0.17220201264E+04  0.79592103254E+02 0.  0.
    5000000    2    1    2    0    0 -0.75288048572E+03 -0.82041094829E+03  0.12534534494E+04  0.17809786338E+04  0.60069642453E+03 0.  0.
        -24    2    4    4    0    0 -0.56323685822E+01 -0.12748239937E+03  0.46890803670E+03  0.49237844521E+03  0.79235728646E+02 0.  0.
         24    2    4    4    0    0 -0.74724811714E+03 -0.69292854893E+03  0.78454541269E+03  0.12886001886E+04  0.80307029710E+02 0.  0.
         13    1    3    3    0    0  0.35163285125E+03  0.35268633637E+03  0.53417196373E+03  0.73032390128E+03  0.00000000000E+00 0. -1.
        -14    1    3    3    0    0  0.40124763447E+03  0.46772461192E+03  0.77697839486E+03  0.99169622509E+03  0.00000000000E+00 0.  1.
         15    1    5    5    0    0 -0.97798447720E+01 -0.12796069827E+03  0.34023985157E+03  0.36364254425E+03  0.17770000000E+01 0. -1.
        -16    1    5    5    0    0  0.41474761898E+01  0.47829890212E+00  0.12866818513E+03  0.12873590095E+03  0.00000000000E+00 0.  1.
          2    1    6    6  502    0 -0.41240979812E+03 -0.43396647726E+03  0.47428522356E+03  0.76377694274E+03  0.00000000000E+00 0. -1.
         -1    1    6    6    0  502 -0.33483831902E+03 -0.25896207166E+03  0.31026018913E+03  0.52482324587E+03  0.00000000000E+00 0.  1.
<mgrwt>
<rscale>  0 0.11343845E+04</rscale>
<asrwt>0</asrwt>
<pdfrwt beam="1">  1        1 0.46673865E+00 0.11343845E+04</pdfrwt>
<pdfrwt beam="2">  1       -2 0.72184229E-01 0.11343845E+04</pdfrwt>
<totfact> 0.86625041E-01</totfact>
</mgrwt>
</event>
<event>
12    3  0.1182097E-007  0.8191453E+03  0.7818608E-02  0.9532711E-01
          1   -1    0    0  501    0  0.00000000000E+00  0.00000000000E+00  0.11635484835E+04  0.11635484835E+04  0.00000000000E+00 0. -1.
         -2   -1    0    0    0  501 -0.00000000000E+00 -0.00000000000E+00 -0.60326277167E+03  0.60326277167E+03  0.00000000000E+00 0.  1.
        -24    2    1    2    0    0  0.59572462461E+03  0.41760558250E+03  0.27379698574E+03  0.78128683430E+03  0.78498898999E+02 0.  0.
    5000000    2    1    2    0    0 -0.59572462461E+03 -0.41760558250E+03  0.28648872607E+03  0.98552442084E+03  0.59991694676E+03 0.  0.
        -24    2    4    4    0    0 -0.62141439437E+03 -0.50339995084E+03  0.30885028397E+03  0.86099485238E+03  0.79726268485E+02 0.  0.
         24    2    4    4    0    0  0.25689769760E+02  0.85794368340E+02 -0.22361557900E+02  0.12452956846E+03  0.83587895291E+02 0.  0.
         11    1    3    3    0    0  0.11486720493E+03  0.91343115859E+02  0.23708594987E+02  0.14866114845E+03  0.00000000000E+00 0. -1.
        -12    1    3    3    0    0  0.48085741968E+03  0.32626246664E+03  0.25008839075E+03  0.63262568585E+03  0.00000000000E+00 0.  1.
         15    1    5    5    0    0 -0.21499112905E+03 -0.19768427812E+03  0.14911398578E+03  0.32793047720E+03  0.17770000000E+01 0. -1.
        -16    1    5    5    0    0 -0.40642326532E+03 -0.30571567272E+03  0.15973629818E+03  0.53306437519E+03  0.00000000000E+00 0.  1.
          4    1    6    6  502    0  0.45943977771E+02  0.71583550055E+02  0.79178504933E+01  0.85426846415E+02  0.00000000000E+00 0. -1.
         -3    1    6    6    0  502 -0.20254208011E+02  0.14210818285E+02 -0.30279408393E+02  0.39102722042E+02  0.00000000000E+00 0.  1.
<mgrwt>
<rscale>  0 0.81914528E+03</rscale>
<asrwt>0</asrwt>
<pdfrwt beam="1">  1        1 0.17900746E+00 0.81914528E+03</pdfrwt>
<pdfrwt beam="2">  1       -2 0.92809658E-01 0.81914528E+03</pdfrwt>
<totfact> 0.99883840E+00</totfact>
</mgrwt>
</event>
<event>
12    3  0.1182097E-007  0.7513575E+03  0.7818608E-02  0.9633223E-01
         -2   -1    0    0    0  501 -0.00000000000E+00  0.00000000000E+00  0.17260051399E+04  0.17260051399E+04  0.00000000000E+00 0.  1.
          1   -1    0    0  501    0  0.00000000000E+00 -0.00000000000E+00 -0.14294507167E+04  0.14294507167E+04  0.00000000000E+00 0. -1.
        -24    2    1    2    0    0  0.59119965131E+03 -0.24538271277E+03 -0.12334698084E+04  0.13917577528E+04  0.76237593030E+02 0.  0.
    5000000    2    1    2    0    0 -0.59119965131E+03  0.24538271277E+03  0.15300242316E+04  0.17636981038E+04  0.59993928743E+03 0.  0.
        -24    2    4    4    0    0 -0.28054274610E+03 -0.17519539668E+03  0.71929883230E+03  0.79576116941E+03  0.80295511619E+02 0.  0.
         24    2    4    4    0    0 -0.31065690521E+03  0.42057810945E+03  0.81072539932E+03  0.96793693440E+03  0.78946671646E+02 0.  0.
         11    1    3    3    0    0  0.91912909592E+02 -0.64440143153E+02 -0.18314131213E+03  0.21480515638E+03  0.00000000000E+00 0. -1.
        -12    1    3    3    0    0  0.49928674172E+03 -0.18094256962E+03 -0.10503284963E+04  0.11769525964E+04  0.00000000000E+00 0.  1.
         15    1    5    5    0    0 -0.16316823714E+03 -0.11572118121E+03  0.34242234076E+03  0.39657468726E+03  0.17770000000E+01 0. -1.
        -16    1    5    5    0    0 -0.11737450896E+03 -0.59474215469E+02  0.37687649154E+03  0.39918648216E+03  0.00000000000E+00 0.  1.
          2    1    6    6  502    0 -0.11570388865E+03  0.10183296189E+03  0.26482537474E+03  0.30641445965E+03  0.00000000000E+00 0. -1.
         -1    1    6    6    0  502 -0.19495301656E+03  0.31874514757E+03  0.54590002458E+03  0.66152247475E+03  0.00000000000E+00 0.  1.
<mgrwt>
<rscale>  0 0.75135753E+03</rscale>
<asrwt>0</asrwt>
<pdfrwt beam="1">  1        1 0.21991549E+00 0.75135753E+03</pdfrwt>
<pdfrwt beam="2">  1       -2 0.26553925E+00 0.75135753E+03</pdfrwt>
<totfact> 0.34924860E-01</totfact>
</mgrwt>
</event>
<event>
12    3  0.1182097E-007  0.1115176E+04  0.7818608E-02  0.9190525E-01
         -2   -1    0    0    0  501 -0.00000000000E+00  0.00000000000E+00  0.40915186191E+03  0.40915186191E+03  0.00000000000E+00 0.  1.
          1   -1    0    0  501    0  0.00000000000E+00 -0.00000000000E+00 -0.32249591582E+04  0.32249591582E+04  0.00000000000E+00 0. -1.
        -24    2    1    2    0    0 -0.54912989081E+03 -0.91520360193E+03 -0.14022194783E+04  0.17640737370E+04  0.81212156608E+02 0.  0.
    5000000    2    1    2    0    0  0.54912989081E+03  0.91520360193E+03 -0.14135878180E+04  0.18700372831E+04  0.59972297855E+03 0.  0.
        -24    2    4    4    0    0  0.61609414441E+03  0.77039958125E+03 -0.94204678270E+03  0.13664198274E+04  0.81015395931E+02 0.  0.
         24    2    4    4    0    0 -0.66964253605E+02  0.14480402069E+03 -0.47154103532E+03  0.50361745570E+03  0.76335955021E+02 0.  0.
         13    1    3    3    0    0 -0.35983486343E+03 -0.55307758583E+03 -0.91700291222E+03  0.11297213311E+04  0.00000000000E+00 0. -1.
        -14    1    3    3    0    0 -0.18929502738E+03 -0.36212601610E+03 -0.48521656607E+03  0.63435240594E+03  0.00000000000E+00 0.  1.
         15    1    5    5    0    0  0.36046277019E+03  0.48268074147E+03 -0.52722755800E+03  0.80055365999E+03  0.17770000000E+01 0. -1.
        -16    1    5    5    0    0  0.25563137422E+03  0.28771883978E+03 -0.41481922470E+03  0.56586616742E+03  0.00000000000E+00 0.  1.
          4    1    6    6  502    0 -0.35266927951E+02  0.13766714015E+03 -0.41150887289E+03  0.43535680786E+03  0.00000000000E+00 0. -1.
         -3    1    6    6    0  502 -0.31697325655E+02  0.71368805334E+01 -0.60032162428E+02  0.68260647838E+02  0.00000000000E+00 0.  1.
<mgrwt>
<rscale>  0 0.11151764E+04</rscale>
<asrwt>0</asrwt>
<pdfrwt beam="1">  1        1 0.49614754E+00 0.11151764E+04</pdfrwt>
<pdfrwt beam="2">  1       -2 0.62946443E-01 0.11151764E+04</pdfrwt>
<totfact> 0.84657204E-01</totfact>
</mgrwt>
</event>
<event>
12    3  0.1182097E-007  0.6017147E+03  0.7818608E-02  0.9901855E-01
          1   -1    0    0  501    0  0.00000000000E+00  0.00000000000E+00  0.28112599812E+04  0.28112599812E+04  0.00000000000E+00 0. -1.
         -2   -1    0    0    0  501 -0.00000000000E+00 -0.00000000000E+00 -0.16131918881E+03  0.16131918881E+03  0.00000000000E+00 0.  1.
        -24    2    1    2    0    0 -0.15905030273E+03  0.51201093035E+03  0.10939481144E+04  0.12208490816E+04  0.79358751865E+02 0.  0.
    5000000    2    1    2    0    0  0.15905030273E+03 -0.51201093035E+03  0.15559926779E+04  0.17517300883E+04  0.59999408080E+03 0.  0.
        -24    2    4    4    0    0  0.24351678206E+03 -0.48222129837E+03  0.70281123751E+03  0.89012819853E+03  0.80912115955E+02 0.  0.
         24    2    4    4    0    0 -0.84466479332E+02 -0.29789631987E+02  0.85318144042E+03  0.86160188980E+03  0.80107664588E+02 0.  0.
         13    1    3    3    0    0 -0.46310686499E+00  0.10709982181E+03  0.22103464439E+03  0.24561535034E+03  0.00000000000E+00 0. -1.
        -14    1    3    3    0    0 -0.15858719586E+03  0.40491110854E+03  0.87291347004E+03  0.97523373131E+03  0.00000000000E+00 0.  1.
         15    1    5    5    0    0  0.83867126937E+02 -0.23281452142E+03  0.27662509571E+03  0.37116155199E+03  0.17770000000E+01 0. -1.
        -16    1    5    5    0    0  0.15964965512E+03 -0.24940677694E+03  0.42618614179E+03  0.51896664654E+03  0.00000000000E+00 0.  1.
          4    1    6    6  502    0 -0.65902370165E+02 -0.55502775346E+02  0.69079231865E+03  0.69614489007E+03  0.00000000000E+00 0. -1.
         -3    1    6    6    0  502 -0.18564109167E+02  0.25713143360E+02  0.16238912177E+03  0.16545699973E+03  0.00000000000E+00 0.  1.
<mgrwt>
<rscale>  0 0.60171473E+03</rscale>
<asrwt>0</asrwt>
<pdfrwt beam="1">  1        1 0.43250150E+00 0.60171473E+03</pdfrwt>
<pdfrwt beam="2">  1       -2 0.24818339E-01 0.60171473E+03</pdfrwt>
<totfact> 0.11319929E+01</totfact>
</mgrwt>
</event>
<event>
12    3  0.1182097E-007  0.1610724E+04  0.7818608E-02  0.8813987E-01
         -2   -1    0    0    0  501 -0.00000000000E+00  0.00000000000E+00  0.29620206549E+04  0.29620206549E+04  0.00000000000E+00 0.  1.
          1   -1    0    0  501    0  0.00000000000E+00 -0.00000000000E+00 -0.88390412760E+03  0.88390412760E+03  0.00000000000E+00 0. -1.
        -24    2    1    2    0    0  0.86508168418E+03 -0.12983347954E+04  0.10782819621E+04  0.18981550691E+04  0.79127209350E+02 0.  0.
    5000000    2    1    2    0    0 -0.86508168418E+03  0.12983347954E+04  0.99983456517E+03  0.19477697134E+04  0.60008177570E+03 0.  0.
        -24    2    4    4    0    0 -0.30556228271E+02 -0.38901415508E+02  0.63303396639E+02  0.11260698535E+03  0.78905068965E+02 0.  0.
         24    2    4    4    0    0 -0.83452545591E+03  0.13372362109E+04  0.93653116853E+03  0.18351627281E+04  0.78090899182E+02 0.  0.
         11    1    3    3    0    0  0.17916456488E+03 -0.22951217126E+03  0.17510827847E+03  0.33976269256E+03  0.00000000000E+00 0. -1.
        -12    1    3    3    0    0  0.68591711930E+03 -0.10688226241E+04  0.90317368363E+03  0.15583923765E+04  0.00000000000E+00 0.  1.
         15    1    5    5    0    0 -0.11122475073E+02  0.18655392270E+02 -0.37662245244E+01  0.22115046657E+02  0.17770000000E+01 0. -1.
        -16    1    5    5    0    0 -0.19433753197E+02 -0.57556807777E+02  0.67069621164E+02  0.90491938690E+02  0.00000000000E+00 0.  1.
          2    1    6    6  502    0 -0.97171485370E+02  0.11755092759E+03  0.77841039052E+02  0.17123009522E+03  0.00000000000E+00 0. -1.
         -1    1    6    6    0  502 -0.73735397054E+03  0.12196852833E+04  0.85869012948E+03  0.16639326328E+04  0.00000000000E+00 0.  1.
<mgrwt>
<rscale>  0 0.16107243E+04</rscale>
<asrwt>0</asrwt>
<pdfrwt beam="1">  1        1 0.13598525E+00 0.16107243E+04</pdfrwt>
<pdfrwt beam="2">  1       -2 0.45569548E+00 0.16107243E+04</pdfrwt>
<totfact> 0.49127226E-02</totfact>
</mgrwt>
</event>
<event>
12    3  0.1182097E-007  0.1330829E+04  0.7818608E-02  0.9005469E-01
          1   -1    0    0  501    0  0.00000000000E+00  0.00000000000E+00  0.12937056346E+04  0.12937056346E+04  0.00000000000E+00 0. -1.
         -2   -1    0    0    0  501 -0.00000000000E+00 -0.00000000000E+00 -0.18642221876E+04  0.18642221876E+04  0.00000000000E+00 0.  1.
        -24    2    1    2    0    0 -0.17795747207E+03 -0.12537016596E+04  0.53115236320E+03  0.13755337380E+04  0.80830181662E+02 0.  0.
    5000000    2    1    2    0    0  0.17795747207E+03  0.12537016596E+04 -0.11016689162E+04  0.17823940842E+04  0.59984794509E+03 0.  0.
        -24    2    4    4    0    0  0.33193299405E+03  0.38864937049E+03 -0.35420139122E+03  0.62620882124E+03  0.73830999854E+02 0.  0.
         24    2    4    4    0    0 -0.15397552199E+03  0.86505228909E+03 -0.74746752498E+03  0.11561852629E+04  0.77670696216E+02 0.  0.
         13    1    3    3    0    0 -0.12500056597E+03 -0.69803059650E+03  0.26368774566E+03  0.75657324983E+03  0.00000000000E+00 0. -1.
        -14    1    3    3    0    0 -0.52956906093E+02 -0.55567106307E+03  0.26746461754E+03  0.61896048814E+03  0.00000000000E+00 0.  1.
         15    1    5    5    0    0  0.57179008484E+02  0.93235057895E+02 -0.10725061068E+03  0.15319290536E+03  0.17770000000E+01 0. -1.
        -16    1    5    5    0    0  0.27475398557E+03  0.29541431259E+03 -0.24695078054E+03  0.47301591588E+03  0.00000000000E+00 0.  1.
          4    1    6    6  502    0 -0.11287561221E+03  0.43155455973E+03 -0.35761323042E+03  0.57172324110E+03  0.00000000000E+00 0. -1.
         -3    1    6    6    0  502 -0.41099909780E+02  0.43349772936E+03 -0.38985429456E+03  0.58446202181E+03  0.00000000000E+00 0.  1.
<mgrwt>
<rscale>  0 0.13308290E+04</rscale>
<asrwt>0</asrwt>
<pdfrwt beam="1">  1        1 0.19903164E+00 0.13308290E+04</pdfrwt>
<pdfrwt beam="2">  1       -2 0.28680341E+00 0.13308290E+04</pdfrwt>
<totfact> 0.29525197E-01</totfact>
</mgrwt>
</event>
<event>
12    3  0.1182097E-007  0.6046039E+03  0.7818608E-02  0.9895900E-01
          1   -1    0    0  501    0  0.00000000000E+00  0.00000000000E+00  0.60101049320E+03  0.60101049320E+03  0.00000000000E+00 0. -1.
         -2   -1    0    0    0  501 -0.00000000000E+00 -0.00000000000E+00 -0.84918442318E+03  0.84918442318E+03  0.00000000000E+00 0.  1.
        -24    2    1    2    0    0  0.52681965474E+03  0.13381125775E+02  0.15575044968E+03  0.55530101402E+03  0.79893744775E+02 0.  0.
    5000000    2    1    2    0    0 -0.52681965474E+03 -0.13381125775E+02 -0.40392437967E+03  0.89489390235E+03  0.59996848986E+03 0.  0.
        -24    2    4    4    0    0 -0.30628429374E+03 -0.21205619692E+03 -0.44409572050E+03  0.58520419651E+03  0.80405493553E+02 0.  0.
         24    2    4    4    0    0 -0.22053536099E+03  0.19867507115E+03  0.40171340837E+02  0.30968970584E+03  0.78653340267E+02 0.  0.
         11    1    3    3    0    0  0.16498450739E+03  0.73186802275E+01  0.87993885252E+02  0.18712662718E+03  0.00000000000E+00 0. -1.
        -12    1    3    3    0    0  0.36183514735E+03  0.60624455476E+01  0.67756564432E+02  0.36817438684E+03  0.00000000000E+00 0.  1.
         15    1    5    5    0    0 -0.16556788425E+03 -0.78177794034E+02 -0.25668997479E+03  0.31530523729E+03  0.17770000000E+01 0. -1.
        -16    1    5    5    0    0 -0.14071640950E+03 -0.13387840289E+03 -0.18740574571E+03  0.26989895922E+03  0.00000000000E+00 0.  1.
          4    1    6    6  502    0 -0.22099965537E+03  0.17695007088E+03  0.27278342542E+02  0.28442271926E+03  0.00000000000E+00 0. -1.
         -3    1    6    6    0  502  0.46429437995E+00  0.21725000263E+02  0.12892998294E+02  0.25266986578E+02  0.00000000000E+00 0.  1.
<mgrwt>
<rscale>  0 0.60460393E+03</rscale>
<asrwt>0</asrwt>
<pdfrwt beam="1">  1        1 0.92463153E-01 0.60460393E+03</pdfrwt>
<pdfrwt beam="2">  1       -2 0.13064376E+00 0.60460393E+03</pdfrwt>
<totfact> 0.13291268E+01</totfact>
</mgrwt>
</event>
<event>
12    3  0.1182097E-007  0.4561569E+03  0.7818608E-02  0.1025902E+00
          1   -1    0    0  501    0  0.00000000000E+00  0.00000000000E+00  0.10824006207E+04  0.10824006207E+04  0.00000000000E+00 0. -1.
         -2   -1    0    0    0  501 -0.00000000000E+00 -0.00000000000E+00 -0.52002595552E+03  0.52002595552E+03  0.00000000000E+00 0.  1.
        -24    2    1    2    0    0  0.33115566005E+03  0.26157146293E+03 -0.25930085368E+03  0.50116885689E+03  0.76482605811E+02 0.  0.
    5000000    2    1    2    0    0 -0.33115566005E+03 -0.26157146293E+03  0.82167551890E+03  0.11012577194E+04  0.59961171161E+03 0.  0.
        -24    2    4    4    0    0 -0.22007286882E+03 -0.27204382800E+03  0.88141698261E+03  0.95161152138E+03  0.78921977001E+02 0.  0.
         24    2    4    4    0    0 -0.11108279123E+03  0.10472365070E+02 -0.59741463707E+02  0.14964619798E+03  0.79849139925E+02 0.  0.
         13    1    3    3    0    0  0.30640054530E+02  0.57191719654E+02 -0.30301166208E+02  0.71609122409E+02  0.00000000000E+00 0. -1.
        -14    1    3    3    0    0  0.30051560552E+03  0.20437974328E+03 -0.22899968747E+03  0.42955973448E+03  0.00000000000E+00 0.  1.
         15    1    5    5    0    0 -0.12234436417E+03 -0.18206960034E+03  0.45757617401E+03  0.50744122375E+03  0.17770000000E+01 0. -1.
        -16    1    5    5    0    0 -0.97728504655E+02 -0.89974227662E+02  0.42384080860E+03  0.44417029763E+03  0.00000000000E+00 0.  1.
          2    1    6    6  502    0 -0.50045934971E+02 -0.30200411371E+02 -0.47426959752E+02  0.75272684059E+02  0.00000000000E+00 0. -1.
         -1    1    6    6    0  502 -0.61036856260E+02  0.40672776442E+02 -0.12314503956E+02  0.74373513923E+02  0.00000000000E+00 0.  1.
<mgrwt>
<rscale>  0 0.45615687E+03</rscale>
<asrwt>0</asrwt>
<pdfrwt beam="1">  1        1 0.16652317E+00 0.45615687E+03</pdfrwt>
<pdfrwt beam="2">  1       -2 0.80003993E-01 0.45615687E+03</pdfrwt>
<totfact> 0.16935233E+01</totfact>
</mgrwt>
</event>
<event>
12    3  0.1182097E-007  0.9681810E+03  0.7818608E-02  0.9344149E-01
          1   -1    0    0  501    0  0.00000000000E+00  0.00000000000E+00  0.21323771774E+04  0.21323771774E+04  0.00000000000E+00 0. -1.
         -2   -1    0    0    0  501 -0.00000000000E+00 -0.00000000000E+00 -0.58009306456E+03  0.58009306456E+03  0.00000000000E+00 0.  1.
        -24    2    1    2    0    0  0.28404418717E+03 -0.82665070456E+03  0.57169911510E+02  0.87960088484E+03  0.79980186438E+02 0.  0.
    5000000    2    1    2    0    0 -0.28404418717E+03  0.82665070456E+03  0.14951142013E+04  0.18328693571E+04  0.60000926461E+03 0.  0.
        -24    2    4    4    0    0 -0.24609348267E+02  0.77946832913E+03  0.10960305620E+04  0.13476450757E+04  0.81778732568E+02 0.  0.
         24    2    4    4    0    0 -0.25943483890E+03  0.47182375429E+02  0.39908363932E+03  0.48522428140E+03  0.81499938041E+02 0.  0.
         11    1    3    3    0    0  0.82158590556E+02 -0.14719673467E+03  0.11391075708E+01  0.16857701583E+03  0.00000000000E+00 0. -1.
        -12    1    3    3    0    0  0.20188559661E+03 -0.67945396989E+03  0.56030803939E+02  0.71102386902E+03  0.00000000000E+00 0.  1.
         15    1    5    5    0    0  0.28531627104E+02  0.35977026557E+03  0.51896987706E+03  0.63212466236E+03  0.17770000000E+01 0. -1.
        -16    1    5    5    0    0 -0.53140975371E+02  0.41969806356E+03  0.57706068496E+03  0.71552041337E+03  0.00000000000E+00 0.  1.
          4    1    6    6  502    0 -0.75759431093E+02 -0.21779695985E+02  0.96545559120E+02  0.12463904502E+03  0.00000000000E+00 0. -1.
         -3    1    6    6    0  502 -0.18367540781E+03  0.68962071414E+02  0.30253808020E+03  0.36058523638E+03  0.00000000000E+00 0.  1.
<mgrwt>
<rscale>  0 0.96818095E+03</rscale>
<asrwt>0</asrwt>
<pdfrwt beam="1">  1        1 0.32805802E+00 0.96818095E+03</pdfrwt>
<pdfrwt beam="2">  1       -2 0.89245088E-01 0.96818095E+03</pdfrwt>
<totfact> 0.23207124E+00</totfact>
</mgrwt>
</event>
<event>
12    3  0.1182097E-007  0.1350074E+04  0.7818608E-02  0.8990772E-01
          1   -1    0    0  501    0  0.00000000000E+00  0.00000000000E+00  0.13983016239E+04  0.13983016239E+04  0.00000000000E+00 0. -1.
         -2   -1    0    0    0  501 -0.00000000000E+00 -0.00000000000E+00 -0.13359964875E+04  0.13359964875E+04  0.00000000000E+00 0.  1.
        -24    2    1    2    0    0  0.99909380785E+03 -0.81539984625E+03 -0.13171942033E+03  0.12988352285E+04  0.80979003085E+02 0.  0.
    5000000    2    1    2    0    0 -0.99909380785E+03  0.81539984625E+03  0.19402455676E+03  0.14354628829E+04  0.59986899694E+03 0.  0.
        -24    2    4    4    0    0 -0.72184491063E+03  0.86337197682E+03  0.12696295287E+03  0.11353000677E+04  0.79469535069E+02 0.  0.
         24    2    4    4    0    0 -0.27724889722E+03 -0.47972130575E+02  0.67061603886E+02  0.30016281521E+03  0.80200876520E+02 0.  0.
         13    1    3    3    0    0  0.77295512192E+03 -0.61745847330E+03 -0.68085062758E+02  0.99164013762E+03  0.00000000000E+00 0. -1.
        -14    1    3    3    0    0  0.22613868593E+03 -0.19794137294E+03 -0.63634357572E+02  0.30719509088E+03  0.00000000000E+00 0.  1.
         15    1    5    5    0    0 -0.30175802897E+03  0.33816978926E+03  0.14824663066E+02  0.45347507405E+03  0.17770000000E+01 0. -1.
        -16    1    5    5    0    0 -0.42008688166E+03  0.52520218756E+03  0.11213828980E+03  0.68182499367E+03  0.00000000000E+00 0.  1.
          4    1    6    6  502    0 -0.27337212090E+03 -0.40813302873E+02  0.49491010349E+02  0.28079779608E+03  0.00000000000E+00 0. -1.
         -3    1    6    6    0  502 -0.38767763238E+01 -0.71588277013E+01  0.17570593536E+02  0.19365019131E+02  0.00000000000E+00 0.  1.
<mgrwt>
<rscale>  0 0.13500740E+04</rscale>
<asrwt>0</asrwt>
<pdfrwt beam="1">  1        1 0.21512333E+00 0.13500740E+04</pdfrwt>
<pdfrwt beam="2">  1       -2 0.20553792E+00 0.13500740E+04</pdfrwt>
<totfact> 0.79231848E-01</totfact>
</mgrwt>
</event>
<event>
12    3  0.1182097E-007  0.7953132E+03  0.7818608E-02  0.9566826E-01
          3   -1    0    0  501    0  0.00000000000E+00  0.00000000000E+00  0.26876528060E+04  0.26876528060E+04  0.00000000000E+00 0. -1.
         -4   -1    0    0    0  501 -0.00000000000E+00 -0.00000000000E+00 -0.34333664850E+03  0.34333664850E+03  0.00000000000E+00 0.  1.
        -24    2    1    2    0    0  0.35583529252E+03  0.64132722031E+03  0.33712021674E+03  0.81132763488E+03  0.81750423131E+02 0.  0.
    5000000    2    1    2    0    0 -0.35583529252E+03 -0.64132722031E+03  0.20071959408E+04  0.22196618196E+04  0.60011972966E+03 0.  0.
        -24    2    4    4    0    0 -0.16703736606E+03 -0.63188813335E+03  0.10405580364E+04  0.12314828756E+04  0.81270851030E+02 0.  0.
         24    2    4    4    0    0 -0.18879792646E+03 -0.94390869605E+01  0.96663790441E+03  0.98817894399E+03  0.79843808105E+02 0.  0.
         13    1    3    3    0    0  0.14533316068E+03  0.21045828685E+03  0.84785581103E+02  0.26944946253E+03  0.00000000000E+00 0. -1.
        -14    1    3    3    0    0  0.21050213184E+03  0.43086893346E+03  0.25233463564E+03  0.54187817235E+03  0.00000000000E+00 0.  1.
         15    1    5    5    0    0 -0.85322329602E+02 -0.44390006827E+03  0.75493142168E+03  0.87991577989E+03  0.17770000000E+01 0. -1.
        -16    1    5    5    0    0 -0.81715036456E+02 -0.18798806508E+03  0.28562661468E+03  0.35156709574E+03  0.00000000000E+00 0.  1.
          2    1    6    6  502    0 -0.11094023017E+03  0.24119702195E+02  0.42305208642E+03  0.43802118959E+03  0.00000000000E+00 0. -1.
         -1    1    6    6    0  502 -0.77857696287E+02 -0.33558789156E+02  0.54358581799E+03  0.55015775439E+03  0.00000000000E+00 0.  1.
<mgrwt>
<rscale>  0 0.79531318E+03</rscale>
<asrwt>0</asrwt>
<pdfrwt beam="1">  1        3 0.41348503E+00 0.79531318E+03</pdfrwt>
<pdfrwt beam="2">  1       -4 0.52821025E-01 0.79531318E+03</pdfrwt>
<totfact> 0.75674695E-02</totfact>
</mgrwt>
</event>
<event>
12    3  0.1182097E-007  0.1057307E+04  0.7818608E-02  0.9247832E-01
         -2   -1    0    0    0  501 -0.00000000000E+00  0.00000000000E+00  0.72762407451E+03  0.72762407451E+03  0.00000000000E+00 0.  1.
          1   -1    0    0  501    0  0.00000000000E+00 -0.00000000000E+00 -0.17692398422E+04  0.17692398422E+04  0.00000000000E+00 0. -1.
        -24    2    1    2    0    0  0.10323606610E+04  0.20433126739E+03 -0.42382104403E+03  0.11370226408E+04  0.75341934264E+02 0.  0.
    5000000    2    1    2    0    0 -0.10323606610E+04 -0.20433126739E+03 -0.61779472370E+03  0.13598412760E+04  0.59998181141E+03 0.  0.
        -24    2    4    4    0    0 -0.43171427273E+03 -0.85477994271E+02 -0.59139316687E+03  0.74143860998E+03  0.79382830476E+02 0.  0.
         24    2    4    4    0    0 -0.60064638827E+03 -0.11885327312E+03 -0.26401556825E+02  0.61840266600E+03  0.82599218095E+02 0.  0.
         11    1    3    3    0    0  0.80925532430E+03  0.13064517886E+03 -0.31646487972E+03  0.87869924477E+03  0.00000000000E+00 0. -1.
        -12    1    3    3    0    0  0.22310533671E+03  0.73686088535E+02 -0.10735616431E+03  0.25832339601E+03  0.00000000000E+00 0.  1.
         15    1    5    5    0    0 -0.27442830473E+03 -0.15002991453E+02 -0.36310958956E+03  0.45539841453E+03  0.17770000000E+01 0. -1.
        -16    1    5    5    0    0 -0.15728596800E+03 -0.70475002818E+02 -0.22828357731E+03  0.28604019546E+03  0.00000000000E+00 0.  1.
          2    1    6    6  502    0 -0.47576979902E+03 -0.84557628173E+02 -0.53242770916E+02  0.48614986043E+03  0.00000000000E+00 0. -1.
         -1    1    6    6    0  502 -0.12487658926E+03 -0.34295644946E+02  0.26841214091E+02  0.13225280557E+03  0.00000000000E+00 0.  1.
<mgrwt>
<rscale>  0 0.10573074E+04</rscale>
<asrwt>0</asrwt>
<pdfrwt beam="1">  1        1 0.27219074E+00 0.10573074E+04</pdfrwt>
<pdfrwt beam="2">  1       -2 0.11194217E+00 0.10573074E+04</pdfrwt>
<totfact> 0.23516440E+00</totfact>
</mgrwt>
</event>
<event>
12    3  0.1182097E-007  0.9708575E+03  0.7818608E-02  0.9341098E-01
         -2   -1    0    0    0  501 -0.00000000000E+00  0.00000000000E+00  0.54742293886E+03  0.54742293886E+03  0.00000000000E+00 0.  1.
          1   -1    0    0  501    0  0.00000000000E+00 -0.00000000000E+00 -0.19766058030E+04  0.19766058030E+04  0.00000000000E+00 0. -1.
        -24    2    1    2    0    0 -0.94725627424E+02  0.88229060965E+03 -0.10741506575E+04  0.13955290107E+04  0.79321625578E+02 0.  0.
    5000000    2    1    2    0    0  0.94725627424E+02 -0.88229060965E+03 -0.35503220664E+03  0.11284997312E+04  0.60004509092E+03 0.  0.
        -24    2    4    4    0    0  0.21119487416E+03 -0.74385629109E+02 -0.15933838367E+03  0.28511168160E+03  0.75917414233E+02 0.  0.
         24    2    4    4    0    0 -0.11646924674E+03 -0.80790498055E+03 -0.19569382298E+03  0.84338804958E+03  0.82047466744E+02 0.  0.
         13    1    3    3    0    0 -0.57831944113E+02  0.52142116389E+03 -0.57324647480E+03  0.77706890607E+03  0.00000000000E+00 0. -1.
        -14    1    3    3    0    0 -0.36893683310E+02  0.36086944576E+03 -0.50090418268E+03  0.61846010460E+03  0.00000000000E+00 0.  1.
         15    1    5    5    0    0  0.20825340422E+03 -0.83769354540E+02 -0.14335950389E+03  0.26634918850E+03  0.17770000000E+01 0. -1.
        -16    1    5    5    0    0  0.29414699394E+01  0.93837254308E+01 -0.15978879772E+02  0.18762493095E+02  0.00000000000E+00 0.  1.
          2    1    6    6  502    0  0.82104948866E+01 -0.16192152728E+03 -0.29135985276E+02  0.16472673997E+03  0.00000000000E+00 0. -1.
         -1    1    6    6    0  502 -0.12467974162E+03 -0.64598345327E+03 -0.16655783770E+03  0.67866130961E+03  0.00000000000E+00 0.  1.
<mgrwt>
<rscale>  0 0.97085751E+03</rscale>
<asrwt>0</asrwt>
<pdfrwt beam="1">  1        1 0.30409321E+00 0.97085751E+03</pdfrwt>
<pdfrwt beam="2">  1       -2 0.84218911E-01 0.97085751E+03</pdfrwt>
<totfact> 0.33739115E+00</totfact>
</mgrwt>
</event>
<event>
12    3  0.1182097E-007  0.7265920E+03  0.7818608E-02  0.9672807E-01
         -2   -1    0    0    0  501 -0.00000000000E+00  0.00000000000E+00  0.89078703725E+03  0.89078703725E+03  0.00000000000E+00 0.  1.
          1   -1    0    0  501    0  0.00000000000E+00 -0.00000000000E+00 -0.15794719590E+04  0.15794719590E+04  0.00000000000E+00 0. -1.
        -24    2    1    2    0    0 -0.53788702995E+03 -0.31167682230E+03 -0.12779295453E+04  0.14245317427E+04  0.98599516329E+02 0.  0.
    5000000    2    1    2    0    0  0.53788702995E+03  0.31167682230E+03  0.58924462351E+03  0.10457272536E+04  0.59989279379E+03 0.  0.
        -24    2    4    4    0    0  0.59474684044E+03  0.10772587112E+03  0.53761883886E+03  0.81326319441E+03  0.83870972143E+02 0.  0.
         24    2    4    4    0    0 -0.56859810490E+02  0.20395095117E+03  0.51625784653E+02  0.23246405919E+03  0.80902958166E+02 0.  0.
         11    1    3    3    0    0 -0.24733640734E+03 -0.97950040084E+02 -0.60862601845E+03  0.66422521714E+03  0.00000000000E+00 0. -1.
        -12    1    3    3    0    0 -0.29055062261E+03 -0.21372678221E+03 -0.66930352683E+03  0.76030652552E+03  0.00000000000E+00 0.  1.
         15    1    5    5    0    0  0.46070059290E+03  0.11198624692E+03  0.39090566032E+03  0.61448868891E+03  0.17770000000E+01 0. -1.
        -16    1    5    5    0    0  0.13404624754E+03 -0.42603757953E+01  0.14671317854E+03  0.19877450550E+03  0.00000000000E+00 0.  1.
          2    1    6    6  502    0 -0.89222659436E+01  0.12871042289E+03  0.61086248986E+02  0.14274981473E+03  0.00000000000E+00 0. -1.
         -1    1    6    6    0  502 -0.47937544546E+02  0.75240528283E+02 -0.94604643333E+01  0.89714244459E+02  0.00000000000E+00 0.  1.
<mgrwt>
<rscale>  0 0.72659204E+03</rscale>
<asrwt>0</asrwt>
<pdfrwt beam="1">  1        1 0.24299569E+00 0.72659204E+03</pdfrwt>
<pdfrwt beam="2">  1       -2 0.13704416E+00 0.72659204E+03</pdfrwt>
<totfact> 0.19971567E+00</totfact>
</mgrwt>
</event>
<event>
12    3  0.1182097E-007  0.1619646E+04  0.7818608E-02  0.8808569E-01
         -2   -1    0    0    0  501 -0.00000000000E+00  0.00000000000E+00  0.12535949314E+04  0.12535949314E+04  0.00000000000E+00 0.  1.
          1   -1    0    0  501    0  0.00000000000E+00 -0.00000000000E+00 -0.21686807967E+04  0.21686807967E+04  0.00000000000E+00 0. -1.
        -24    2    1    2    0    0 -0.13057202922E+04  0.87434472759E+03 -0.17048040928E+03  0.15829699616E+04  0.85709656594E+02 0.  0.
    5000000    2    1    2    0    0  0.13057202922E+04 -0.87434472759E+03 -0.74460545600E+03  0.18393057665E+04  0.59935317934E+03 0.  0.
        -24    2    4    4    0    0  0.44210140837E+03 -0.62778963629E+03 -0.43720559942E+03  0.88677921035E+03  0.75200724917E+02 0.  0.
         24    2    4    4    0    0  0.86361888380E+03 -0.24655509129E+03 -0.30739985658E+03  0.95252655616E+03  0.78645908175E+02 0.  0.
         13    1    3    3    0    0 -0.73482595335E+03  0.48810323506E+03 -0.13832481576E+03  0.89294328176E+03  0.00000000000E+00 0. -1.
        -14    1    3    3    0    0 -0.57089433882E+03  0.38624149253E+03 -0.32155593519E+02  0.69002667980E+03  0.00000000000E+00 0.  1.
         15    1    5    5    0    0  0.10879766423E+03 -0.19197786791E+03 -0.15610903147E+03  0.27030653145E+03  0.17770000000E+01 0. -1.
        -16    1    5    5    0    0  0.33330374414E+03 -0.43581176838E+03 -0.28109656795E+03  0.61647267890E+03  0.00000000000E+00 0.  1.
          2    1    6    6  502    0  0.64575382681E+02 -0.11189396846E+02 -0.28099791442E+01  0.65597855399E+02  0.00000000000E+00 0. -1.
         -1    1    6    6    0  502  0.79904350111E+03 -0.23536569445E+03 -0.30458987744E+03  0.88692870076E+03  0.00000000000E+00 0.  1.
<mgrwt>
<rscale>  0 0.16196464E+04</rscale>
<asrwt>0</asrwt>
<pdfrwt beam="1">  1        1 0.33364320E+00 0.16196464E+04</pdfrwt>
<pdfrwt beam="2">  1       -2 0.19286076E+00 0.16196464E+04</pdfrwt>
<totfact> 0.27695669E-01</totfact>
</mgrwt>
</event>
<event>
12    3  0.1182097E-007  0.6073875E+03  0.7818608E-02  0.9890197E-01
         -2   -1    0    0    0  501 -0.00000000000E+00  0.00000000000E+00  0.38090532332E+03  0.38090532332E+03  0.00000000000E+00 0.  1.
          1   -1    0    0  501    0  0.00000000000E+00 -0.00000000000E+00 -0.12461255301E+04  0.12461255301E+04  0.00000000000E+00 0. -1.
        -24    2    1    2    0    0  0.30161890875E+03 -0.46031182521E+03 -0.43707248495E+03  0.70718827814E+03  0.78879408595E+02 0.  0.
    5000000    2    1    2    0    0 -0.30161890875E+03  0.46031182521E+03 -0.42814772186E+03  0.91984257530E+03  0.59994912206E+03 0.  0.
        -24    2    4    4    0    0  0.60951446231E+02  0.74174890713E+02  0.10561572784E+03  0.16359966829E+03  0.79957340430E+02 0.  0.
         24    2    4    4    0    0 -0.36257035498E+03  0.38613693449E+03 -0.53376344970E+03  0.75624290701E+03  0.80255340516E+02 0.  0.
         11    1    3    3    0    0  0.14555018022E+03 -0.29114481945E+03 -0.24475040831E+03  0.40725044287E+03  0.00000000000E+00 0. -1.
        -12    1    3    3    0    0  0.15606872853E+03 -0.16916700576E+03 -0.19232207663E+03  0.29993783526E+03  0.00000000000E+00 0.  1.
         15    1    5    5    0    0 -0.67017128250E+01  0.52983397869E+02  0.37463536469E+02  0.65259694286E+02  0.17770000000E+01 0. -1.
        -16    1    5    5    0    0  0.67653159056E+02  0.21191492844E+02  0.68152191367E+02  0.98339974005E+02  0.00000000000E+00 0.  1.
          2    1    6    6  502    0 -0.31025389176E+03  0.28677633685E+03 -0.43940715603E+03  0.60957099135E+03  0.00000000000E+00 0. -1.
         -1    1    6    6    0  502 -0.52316463222E+02  0.99360597645E+02 -0.94356293664E+02  0.14667191566E+03  0.00000000000E+00 0.  1.
<mgrwt>
<rscale>  0 0.60738745E+03</rscale>
<asrwt>0</asrwt>
<pdfrwt beam="1">  1        1 0.19171162E+00 0.60738745E+03</pdfrwt>
<pdfrwt beam="2">  1       -2 0.58600820E-01 0.60738745E+03</pdfrwt>
<totfact> 0.24665670E+01</totfact>
</mgrwt>
</event>
<event>
12    3  0.2136866E-007  0.1347489E+04  0.7818608E-02  0.8992731E-01
          1   -1    0    0  501    0  0.00000000000E+00  0.00000000000E+00  0.17806628121E+04  0.17806628121E+04  0.00000000000E+00 0. -1.
         -2   -1    0    0    0  501 -0.00000000000E+00 -0.00000000000E+00 -0.13633978867E+04  0.13633978867E+04  0.00000000000E+00 0.  1.
        -24    2    1    2    0    0  0.12986119287E+03  0.13377919041E+04 -0.46918169446E+03  0.14258832021E+04  0.80376212463E+02 0.  0.
    5000000    2    1    2    0    0 -0.12986119287E+03 -0.13377919041E+04  0.88644661978E+03  0.17181774966E+04  0.59982930240E+03 0.  0.
        -24    2    4    4    0    0 -0.94255719364E+02 -0.11296346661E+04  0.44104475772E+03  0.12189572371E+04  0.79860177612E+02 0.  0.
         24    2    4    4    0    0 -0.35605473506E+02 -0.20815723803E+03  0.44540186206E+03  0.49922025957E+03  0.78999135100E+02 0.  0.
         11    1    3    3    0    0  0.46722367845E+02  0.75585727194E+03 -0.29560411948E+03  0.81294833209E+03  0.00000000000E+00 0. -1.
        -12    1    3    3    0    0  0.83138825024E+02  0.58193463221E+03 -0.17357757498E+03  0.61293487006E+03  0.00000000000E+00 0.  1.
         15    1    5    5    0    0 -0.69035789592E+02 -0.75533265845E+03  0.33452294900E+03  0.82897655353E+03  0.17770000000E+01 0. -1.
        -16    1    5    5    0    0 -0.25219929772E+02 -0.37430200767E+03  0.10652180871E+03  0.38998068354E+03  0.00000000000E+00 0.  1.
          4    1    6    6  502    0 -0.94008527203E+01 -0.16792383383E+03  0.27657295099E+03  0.32369644301E+03  0.00000000000E+00 0. -1.
         -3    1    6    6    0  502 -0.26204620785E+02 -0.40233404200E+02  0.16882891108E+03  0.17552381656E+03  0.00000000000E+00 0.  1.
<mgrwt>
<rscale>  0 0.13474893E+04</rscale>
<asrwt>0</asrwt>
<pdfrwt beam="1">  1        1 0.27394812E+00 0.13474893E+04</pdfrwt>
<pdfrwt beam="2">  1       -2 0.20975352E+00 0.13474893E+04</pdfrwt>
<totfact> 0.40525236E-01</totfact>
</mgrwt>
</event>
<event>
12    3  0.1445743E-007  0.5283769E+03  0.7818608E-02  0.1006627E+00
          1   -1    0    0  501    0  0.00000000000E+00  0.00000000000E+00  0.11486090828E+04  0.11486090828E+04  0.00000000000E+00 0. -1.
         -2   -1    0    0    0  501 -0.00000000000E+00 -0.00000000000E+00 -0.29013471242E+03  0.29013471242E+03  0.00000000000E+00 0.  1.
        -24    2    1    2    0    0 -0.23838586141E+03 -0.33675705680E+03  0.24186359319E+03  0.48453580277E+03  0.77741959236E+02 0.  0.
    5000000    2    1    2    0    0  0.23838586141E+03  0.33675705680E+03  0.61661077719E+03  0.95420799246E+03  0.60005908718E+03 0.  0.
        -24    2    4    4    0    0  0.15205602391E+02  0.39879866783E+03  0.16203400549E+03  0.43797081511E+03  0.79321044793E+02 0.  0.
         24    2    4    4    0    0  0.22318025901E+03 -0.62041611029E+02  0.45457677170E+03  0.51623717735E+03  0.78753999263E+02 0.  0.
         11    1    3    3    0    0 -0.12143831897E+03 -0.10616930874E+03  0.92738992413E+02  0.18606372066E+03  0.00000000000E+00 0. -1.
        -12    1    3    3    0    0 -0.11694754243E+03 -0.23058774806E+03  0.14912460078E+03  0.29847208210E+03  0.00000000000E+00 0.  1.
         15    1    5    5    0    0  0.27862117209E+02  0.89173847333E+02  0.13791691778E+02  0.94454439359E+02  0.17770000000E+01 0. -1.
        -16    1    5    5    0    0 -0.12656514818E+02  0.30962482050E+03  0.14824231372E+03  0.34351637575E+03  0.00000000000E+00 0.  1.
          2    1    6    6  502    0  0.12598512101E+03 -0.19531575662E+02  0.16973694961E+03  0.21228369044E+03  0.00000000000E+00 0. -1.
         -1    1    6    6    0  502  0.97195138003E+02 -0.42510035367E+02  0.28483982209E+03  0.30395348691E+03  0.00000000000E+00 0.  1.
<mgrwt>
<rscale>  0 0.52837693E+03</rscale>
<asrwt>0</asrwt>
<pdfrwt beam="1">  1        1 0.17670909E+00 0.52837693E+03</pdfrwt>
<pdfrwt beam="2">  1       -2 0.44636110E-01 0.52837693E+03</pdfrwt>
<totfact> 0.51000216E+01</totfact>
</mgrwt>
</event>
<event>
12    3  0.2117252E-007  0.8082999E+03  0.7818608E-02  0.9548080E-01
         -4   -1    0    0    0  501 -0.00000000000E+00  0.00000000000E+00  0.12394323949E+04  0.12394323949E+04  0.00000000000E+00 0.  1.
          3   -1    0    0  501    0  0.00000000000E+00 -0.00000000000E+00 -0.73610356579E+03  0.73610356579E+03  0.00000000000E+00 0. -1.
        -24    2    1    2    0    0  0.42388493217E+03  0.65556580208E+03 -0.14336636921E+03  0.79748532598E+03  0.77356142366E+02 0.  0.
    5000000    2    1    2    0    0 -0.42388493217E+03 -0.65556580208E+03  0.64669519831E+03  0.11780506347E+04  0.60011970625E+03 0.  0.
        -24    2    4    4    0    0 -0.31634176191E+03 -0.22983768185E+03  0.61174485890E+03  0.73040915151E+03  0.79801540705E+02 0.  0.
         24    2    4    4    0    0 -0.10754317025E+03 -0.42572812023E+03  0.34950339409E+02  0.44764148319E+03  0.79695705150E+02 0.  0.
         13    1    3    3    0    0  0.16956294656E+03  0.30257710942E+03 -0.95752458520E+02  0.35982361416E+03  0.00000000000E+00 0. -1.
        -14    1    3    3    0    0  0.25432198560E+03  0.35298869266E+03 -0.47613910693E+02  0.43766171183E+03  0.00000000000E+00 0.  1.
         15    1    5    5    0    0 -0.11910407963E+03 -0.11694872886E+03  0.31654898127E+03  0.35786757640E+03  0.17770000000E+01 0. -1.
        -16    1    5    5    0    0 -0.19723768228E+03 -0.11288895298E+03  0.29519587763E+03  0.37254157511E+03  0.00000000000E+00 0.  1.
          2    1    6    6  502    0 -0.43300735872E+02 -0.24242796829E+03  0.55142623279E+02  0.25236279923E+03  0.00000000000E+00 0. -1.
         -1    1    6    6    0  502 -0.64242434380E+02 -0.18330015195E+03 -0.20192283870E+02  0.19527868395E+03  0.00000000000E+00 0.  1.
<mgrwt>
<rscale>  0 0.80829992E+03</rscale>
<asrwt>0</asrwt>
<pdfrwt beam="1">  1        3 0.11324670E+00 0.80829992E+03</pdfrwt>
<pdfrwt beam="2">  1       -4 0.19068191E+00 0.80829992E+03</pdfrwt>
<totfact> 0.22213946E-01</totfact>
</mgrwt>
</event>
<event>
12    3  0.1182097E-007  0.4725384E+03  0.7818608E-02  0.1021206E+00
         -2   -1    0    0    0  501 -0.00000000000E+00  0.00000000000E+00  0.57432139809E+03  0.57432139809E+03  0.00000000000E+00 0.  1.
          1   -1    0    0  501    0  0.00000000000E+00 -0.00000000000E+00 -0.10655547332E+04  0.10655547332E+04  0.00000000000E+00 0. -1.
        -24    2    1    2    0    0 -0.14908883754E+03  0.24306961915E+03  0.41911231967E+03  0.51289885856E+03  0.78101097154E+02 0.  0.
    5000000    2    1    2    0    0  0.14908883754E+03 -0.24306961915E+03 -0.91034565476E+03  0.11269772727E+04  0.60003186654E+03 0.  0.
        -24    2    4    4    0    0 -0.19551878194E+03  0.29602468319E+02 -0.23704279719E+03  0.31901299007E+03  0.80474218929E+02 0.  0.
         24    2    4    4    0    0  0.34460761948E+03 -0.27267208747E+03 -0.67330285758E+03  0.80796428266E+03  0.79781359643E+02 0.  0.
         13    1    3    3    0    0 -0.12026659245E+03  0.15233467563E+03  0.32800356180E+03  0.38112497060E+03  0.00000000000E+00 0. -1.
        -14    1    3    3    0    0 -0.28822245084E+02  0.90734943518E+02  0.91108757872E+02  0.13177388796E+03  0.00000000000E+00 0.  1.
         15    1    5    5    0    0 -0.80597353303E+02  0.50340059580E+02 -0.86718288342E+02  0.12865952829E+03  0.17770000000E+01 0. -1.
        -16    1    5    5    0    0 -0.11492142864E+03 -0.20737591261E+02 -0.15032450884E+03  0.19035346178E+03  0.00000000000E+00 0.  1.
          2    1    6    6  502    0  0.33479427332E+03 -0.24573926077E+03 -0.60434293102E+03  0.73328396137E+03  0.00000000000E+00 0. -1.
         -1    1    6    6    0  502  0.98133461547E+01 -0.26932826699E+02 -0.68959926558E+02  0.74680321288E+02  0.00000000000E+00 0.  1.
<mgrwt>
<rscale>  0 0.47253839E+03</rscale>
<asrwt>0</asrwt>
<pdfrwt beam="1">  1        1 0.16393150E+00 0.47253839E+03</pdfrwt>
<pdfrwt beam="2">  1       -2 0.88357138E-01 0.47253839E+03</pdfrwt>
<totfact> 0.13888399E+01</totfact>
</mgrwt>
</event>
<event>
12    3  0.1182097E-007  0.9849619E+03  0.7818608E-02  0.9325194E-01
         -2   -1    0    0    0  501 -0.00000000000E+00  0.00000000000E+00  0.70127108416E+03  0.70127108416E+03  0.00000000000E+00 0.  1.
          1   -1    0    0  501    0  0.00000000000E+00 -0.00000000000E+00 -0.15711978459E+04  0.15711978459E+04  0.00000000000E+00 0. -1.
        -24    2    1    2    0    0  0.19875711291E+03  0.88989149102E+03 -0.67449832242E+02  0.91775058171E+03  0.79406515097E+02 0.  0.
    5000000    2    1    2    0    0 -0.19875711291E+03 -0.88989149102E+03 -0.80247692953E+03  0.13547183484E+04  0.59990109625E+03 0.  0.
        -24    2    4    4    0    0  0.15338696318E+03 -0.87949401271E+02 -0.24682572640E+03  0.31434592475E+03  0.81411077486E+02 0.  0.
         24    2    4    4    0    0 -0.35214407609E+03 -0.80194208974E+03 -0.55565120313E+03  0.10403724236E+04  0.80684290084E+02 0.  0.
         11    1    3    3    0    0  0.14601334807E+03  0.58711391454E+03 -0.79370873305E+02  0.61018225310E+03  0.00000000000E+00 0. -1.
        -12    1    3    3    0    0  0.52743764837E+02  0.30277757647E+03  0.11921041063E+02  0.30756832861E+03  0.00000000000E+00 0.  1.
         15    1    5    5    0    0  0.22947690363E+02 -0.28902165820E+02 -0.11163776753E+02  0.38596882290E+02  0.17770000000E+01 0. -1.
        -16    1    5    5    0    0  0.13043927282E+03 -0.59047235451E+02 -0.23566194964E+03  0.27574904246E+03  0.00000000000E+00 0.  1.
          4    1    6    6  502    0 -0.96452989046E+02 -0.28219067243E+03 -0.22331894658E+03  0.37256691560E+03  0.00000000000E+00 0. -1.
         -3    1    6    6    0  502 -0.25569108705E+03 -0.51975141732E+03 -0.33233225655E+03  0.66780550802E+03  0.00000000000E+00 0.  1.
<mgrwt>
<rscale>  0 0.98496188E+03</rscale>
<asrwt>0</asrwt>
<pdfrwt beam="1">  1        1 0.24172274E+00 0.98496188E+03</pdfrwt>
<pdfrwt beam="2">  1       -2 0.10788786E+00 0.98496188E+03</pdfrwt>
<totfact> 0.35379461E+00</totfact>
</mgrwt>
</event>
<event>
12    3  0.1182097E-007  0.3939440E+03  0.7818608E-02  0.1045897E+00
          1   -1    0    0  501    0  0.00000000000E+00  0.00000000000E+00  0.26316480362E+03  0.26316480362E+03  0.00000000000E+00 0. -1.
         -2   -1    0    0    0  501 -0.00000000000E+00 -0.00000000000E+00 -0.12035737243E+04  0.12035737243E+04  0.00000000000E+00 0.  1.
        -24    2    1    2    0    0  0.14925666198E+03  0.33013945695E+03 -0.12340949072E+03  0.39030076754E+03  0.76388314305E+02 0.  0.
    5000000    2    1    2    0    0 -0.14925666198E+03 -0.33013945695E+03 -0.81699942991E+03  0.10764377603E+04  0.59996714179E+03 0.  0.
        -24    2    4    4    0    0 -0.41739382897E+02 -0.27055602096E+03 -0.41019460618E+02  0.28699922484E+03  0.75784050759E+02 0.  0.
         24    2    4    4    0    0 -0.10751727908E+03 -0.59583435995E+02 -0.77597996929E+03  0.78943853549E+03  0.77188972263E+02 0.  0.
         11    1    3    3    0    0  0.11151425710E+02  0.10045204562E+03 -0.19976909766E+02  0.10302448587E+03  0.00000000000E+00 0. -1.
        -12    1    3    3    0    0  0.13810523627E+03  0.22968741133E+03 -0.10343258096E+03  0.28727628167E+03  0.00000000000E+00 0.  1.
         15    1    5    5    0    0 -0.14319122186E+02 -0.24825970032E+03 -0.34468951653E+02  0.25105613400E+03  0.17770000000E+01 0. -1.
        -16    1    5    5    0    0 -0.27420260711E+02 -0.22296320639E+02 -0.65505089648E+01  0.35943090841E+02  0.00000000000E+00 0.  1.
          2    1    6    6  502    0 -0.94378139413E+02 -0.70422345243E+02 -0.74346032526E+03  0.75272823459E+03  0.00000000000E+00 0. -1.
         -1    1    6    6    0  502 -0.13139139668E+02  0.10838909248E+02 -0.32519644029E+02  0.36710300907E+02  0.00000000000E+00 0.  1.
<mgrwt>
<rscale>  0 0.39394404E+03</rscale>
<asrwt>0</asrwt>
<pdfrwt beam="1">  1        1 0.40486893E-01 0.39394404E+03</pdfrwt>
<pdfrwt beam="2">  1       -2 0.18516519E+00 0.39394404E+03</pdfrwt>
<totfact> 0.16117692E+01</totfact>
</mgrwt>
</event>
<event>
12    3  0.1182097E-007  0.5429461E+03  0.7818608E-02  0.1003140E+00
          1   -1    0    0  501    0  0.00000000000E+00  0.00000000000E+00  0.15894412004E+04  0.15894412004E+04  0.00000000000E+00 0. -1.
         -2   -1    0    0    0  501 -0.00000000000E+00 -0.00000000000E+00 -0.48693501859E+03  0.48693501859E+03  0.00000000000E+00 0.  1.
        -24    2    1    2    0    0 -0.24938568054E+03  0.34314218541E+03 -0.27721497248E+03  0.51317419676E+03  0.80992827943E+02 0.  0.
    5000000    2    1    2    0    0  0.24938568054E+03 -0.34314218541E+03  0.13797211543E+04  0.15632020223E+04  0.60002526752E+03 0.  0.
        -24    2    4    4    0    0 -0.12593427520E+03  0.17701328342E+01  0.66037648687E+03  0.67788142500E+03  0.86968654721E+02 0.  0.
         24    2    4    4    0    0  0.37531995575E+03 -0.34491231825E+03  0.71934466745E+03  0.88532059727E+03  0.80661223010E+02 0.  0.
         11    1    3    3    0    0 -0.12761191817E+03  0.10918523627E+03 -0.10110820502E+03  0.19603338135E+03  0.00000000000E+00 0. -1.
        -12    1    3    3    0    0 -0.12177376237E+03  0.23395694914E+03 -0.17610676746E+03  0.31714081541E+03  0.00000000000E+00 0.  1.
         15    1    5    5    0    0 -0.12604251085E+03 -0.11926562072E+02  0.46212114063E+03  0.47915348665E+03  0.17770000000E+01 0. -1.
        -16    1    5    5    0    0  0.10823564667E+00  0.13696694906E+02  0.19825534624E+03  0.19872793835E+03  0.00000000000E+00 0.  1.
          4    1    6    6  502    0  0.17804216586E+03 -0.20775017903E+03  0.34207079998E+03  0.43803148507E+03  0.00000000000E+00 0. -1.
         -3    1    6    6    0  502  0.19727778988E+03 -0.13716213921E+03  0.37727386747E+03  0.44728911219E+03  0.00000000000E+00 0.  1.
<mgrwt>
<rscale>  0 0.54294610E+03</rscale>
<asrwt>0</asrwt>
<pdfrwt beam="1">  1        1 0.24452941E+00 0.54294610E+03</pdfrwt>
<pdfrwt beam="2">  1       -2 0.74913081E-01 0.54294610E+03</pdfrwt>
<totfact> 0.85327209E+00</totfact>
</mgrwt>
</event>
<event>
12    3  0.1182097E-007  0.6497492E+03  0.7818608E-02  0.9807250E-01
          1   -1    0    0  501    0  0.00000000000E+00  0.00000000000E+00  0.28771677116E+03  0.28771677116E+03  0.00000000000E+00 0. -1.
         -2   -1    0    0    0  501 -0.00000000000E+00 -0.00000000000E+00 -0.18110917304E+04  0.18110917304E+04  0.00000000000E+00 0.  1.
        -24    2    1    2    0    0  0.20339410050E+03 -0.55959579589E+03 -0.59810189024E+03  0.84553166966E+03  0.51781448314E+02 0.  0.
    5000000    2    1    2    0    0 -0.20339410050E+03  0.55959579589E+03 -0.92527306903E+03  0.12532768319E+04  0.60004662342E+03 0.  0.
        -24    2    4    4    0    0 -0.62705270222E+02  0.54256062147E+03 -0.34613375326E+03  0.65167307996E+03  0.81026224864E+02 0.  0.
         24    2    4    4    0    0 -0.14068883028E+03  0.17035174424E+02 -0.57913931577E+03  0.60160375197E+03  0.80256982113E+02 0.  0.
         13    1    3    3    0    0  0.16341568360E+03 -0.41230567089E+03 -0.47065302042E+03  0.64669538233E+03  0.00000000000E+00 0. -1.
        -14    1    3    3    0    0  0.39978416900E+02 -0.14729012500E+03 -0.12744886982E+03  0.19883628733E+03  0.00000000000E+00 0.  1.
         15    1    5    5    0    0  0.19297964966E+02  0.13485193929E+03 -0.88746960940E+02  0.16259347400E+03  0.17770000000E+01 0. -1.
        -16    1    5    5    0    0 -0.82003235188E+02  0.40770868217E+03 -0.25738679232E+03  0.48907960595E+03  0.00000000000E+00 0.  1.
          2    1    6    6  502    0 -0.56291336214E+02  0.33163311203E+02 -0.36618955357E+03  0.37197218832E+03  0.00000000000E+00 0. -1.
         -1    1    6    6    0  502 -0.84397494064E+02 -0.16128136780E+02 -0.21294976220E+03  0.22963156365E+03  0.00000000000E+00 0.  1.
<mgrwt>
<rscale>  0 0.64974920E+03</rscale>
<asrwt>0</asrwt>
<pdfrwt beam="1">  1        1 0.44264119E-01 0.64974920E+03</pdfrwt>
<pdfrwt beam="2">  1       -2 0.27862949E+00 0.64974920E+03</pdfrwt>
<totfact> 0.36581945E+00</totfact>
</mgrwt>
</event>
<event>
12    3  0.1182097E-007  0.7451863E+03  0.7818608E-02  0.9642933E-01
         -2   -1    0    0    0  501 -0.00000000000E+00  0.00000000000E+00  0.53335786726E+03  0.53335786726E+03  0.00000000000E+00 0.  1.
          1   -1    0    0  501    0  0.00000000000E+00 -0.00000000000E+00 -0.12615042130E+04  0.12615042130E+04  0.00000000000E+00 0. -1.
        -24    2    1    2    0    0 -0.62130115072E+03  0.12518585305E+03 -0.66145559708E+03  0.91952849813E+03  0.79514365143E+02 0.  0.
    5000000    2    1    2    0    0  0.62130115072E+03 -0.12518585305E+03 -0.66690748635E+02  0.87533358210E+03  0.60006216870E+03 0.  0.
        -24    2    4    4    0    0  0.32639443279E+03 -0.34587488826E+03 -0.11361953758E+03  0.49554004022E+03  0.80546682509E+02 0.  0.
         24    2    4    4    0    0  0.29490671793E+03  0.22068903521E+03  0.46928788942E+02  0.37979354188E+03  0.79794740914E+02 0.  0.
         11    1    3    3    0    0 -0.40229868699E+03  0.91917938106E+02 -0.37657837190E+03  0.55866305684E+03  0.00000000000E+00 0. -1.
        -12    1    3    3    0    0 -0.21900246374E+03  0.33267914941E+02 -0.28487722518E+03  0.36086544128E+03  0.00000000000E+00 0.  1.
         15    1    5    5    0    0  0.32243563223E+03 -0.32128970513E+03 -0.11805392227E+03  0.47024642247E+03  0.17770000000E+01 0. -1.
        -16    1    5    5    0    0  0.39588005541E+01 -0.24585183128E+02  0.44343846944E+01  0.25293617750E+02  0.00000000000E+00 0.  1.
          4    1    6    6  502    0  0.26292721841E+03  0.22197457411E+03  0.36010623159E+02  0.34597716501E+03  0.00000000000E+00 0. -1.
         -3    1    6    6    0  502  0.31979499529E+02 -0.12855389003E+01  0.10918165783E+02  0.33816376867E+02  0.00000000000E+00 0.  1.
<mgrwt>
<rscale>  0 0.74518635E+03</rscale>
<asrwt>0</asrwt>
<pdfrwt beam="1">  1        1 0.19407757E+00 0.74518635E+03</pdfrwt>
<pdfrwt beam="2">  1       -2 0.82055057E-01 0.74518635E+03</pdfrwt>
<totfact> 0.11354317E+01</totfact>
</mgrwt>
</event>
<event>
12    3  0.1182097E-007  0.9578157E+03  0.7818608E-02  0.9356062E-01
          1   -1    0    0  501    0  0.00000000000E+00  0.00000000000E+00  0.78555616567E+03  0.78555616567E+03  0.00000000000E+00 0. -1.
         -2   -1    0    0    0  501 -0.00000000000E+00 -0.00000000000E+00 -0.11915387865E+04  0.11915387865E+04  0.00000000000E+00 0.  1.
        -24    2    1    2    0    0  0.15085167202E+03  0.85932425634E+03 -0.17329753656E+03  0.89287670192E+03  0.77474926070E+02 0.  0.
    5000000    2    1    2    0    0 -0.15085167202E+03 -0.85932425634E+03 -0.23268508428E+03  0.10842182503E+04  0.60016036298E+03 0.  0.
        -24    2    4    4    0    0  0.21640830393E+02 -0.84590824616E+03 -0.25881637266E+03  0.88868855216E+03  0.82172632373E+02 0.  0.
         24    2    4    4    0    0 -0.17249250241E+03 -0.13416010180E+02  0.26131288373E+02  0.19552969812E+03  0.87266063831E+02 0.  0.
         11    1    3    3    0    0  0.89684468941E+02  0.37911495409E+03 -0.10897288404E+03  0.40453249787E+03  0.00000000000E+00 0. -1.
        -12    1    3    3    0    0  0.61167203077E+02  0.48020930226E+03 -0.64324652523E+02  0.48834420405E+03  0.00000000000E+00 0.  1.
         15    1    5    5    0    0  0.25218093585E+02 -0.96858090401E+02 -0.16798271033E+02  0.10150261848E+03  0.17770000000E+01 0. -1.
        -16    1    5    5    0    0 -0.35772631918E+01 -0.74905015576E+03 -0.24201810162E+03  0.78718593367E+03  0.00000000000E+00 0.  1.
          2    1    6    6  502    0 -0.12461272179E+03  0.29995480463E+02  0.80810905029E+01  0.12842648988E+03  0.00000000000E+00 0. -1.
         -1    1    6    6    0  502 -0.47879780621E+02 -0.43411490642E+02  0.18050197870E+02  0.67103208234E+02  0.00000000000E+00 0.  1.
<mgrwt>
<rscale>  0 0.95781570E+03</rscale>
<asrwt>0</asrwt>
<pdfrwt beam="1">  1        1 0.12085479E+00 0.95781570E+03</pdfrwt>
<pdfrwt beam="2">  1       -2 0.18331366E+00 0.95781570E+03</pdfrwt>
<totfact> 0.34345662E+00</totfact>
</mgrwt>
</event>
<event>
12    3  0.1182097E-007  0.7196095E+03  0.7818608E-02  0.9684273E-01
          1   -1    0    0  501    0  0.00000000000E+00  0.00000000000E+00  0.18761504104E+04  0.18761504104E+04  0.00000000000E+00 0. -1.
         -2   -1    0    0    0  501 -0.00000000000E+00 -0.00000000000E+00 -0.32801759369E+03  0.32801759369E+03  0.00000000000E+00 0.  1.
        -24    2    1    2    0    0 -0.25978364829E+03 -0.60927310613E+03  0.55143079559E+03  0.86546524960E+03  0.79075370132E+02 0.  0.
    5000000    2    1    2    0    0  0.25978364829E+03  0.60927310613E+03  0.99670202109E+03  0.13387027545E+04  0.60000740347E+03 0.  0.
        -24    2    4    4    0    0 -0.87843823691E+02  0.91985089808E+02  0.54404470964E+03  0.56424285902E+03  0.78788094085E+02 0.  0.
         24    2    4    4    0    0  0.34762747199E+03  0.51728801632E+03  0.45265731145E+03  0.77445989545E+03  0.80360045641E+02 0.  0.
         13    1    3    3    0    0 -0.18922979713E+03 -0.51363625148E+03  0.46905230317E+03  0.72086072030E+03  0.00000000000E+00 0. -1.
        -14    1    3    3    0    0 -0.70553851160E+02 -0.95636854649E+02  0.82378492419E+02  0.14460452930E+03  0.00000000000E+00 0.  1.
         15    1    5    5    0    0  0.12089188685E+02  0.28958301180E+02  0.10918349568E+03  0.11361745089E+03  0.17770000000E+01 0. -1.
        -16    1    5    5    0    0 -0.99933012376E+02  0.63026788628E+02  0.43486121396E+03  0.45062540813E+03  0.00000000000E+00 0.  1.
          2    1    6    6  502    0  0.10808720928E+03  0.17297609962E+03  0.19510108081E+03  0.28225521711E+03  0.00000000000E+00 0. -1.
         -1    1    6    6    0  502  0.23954026270E+03  0.34431191670E+03  0.25755623064E+03  0.49220467834E+03  0.00000000000E+00 0.  1.
<mgrwt>
<rscale>  0 0.71960954E+03</rscale>
<asrwt>0</asrwt>
<pdfrwt beam="1">  1        1 0.28863852E+00 0.71960954E+03</pdfrwt>
<pdfrwt beam="2">  1       -2 0.50464246E-01 0.71960954E+03</pdfrwt>
<totfact> 0.12295998E+01</totfact>
</mgrwt>
</event>
<event>
12    3  0.1182097E-007  0.3604806E+03  0.7818608E-02  0.1058394E+00
         -2   -1    0    0    0  501 -0.00000000000E+00  0.00000000000E+00  0.21289617102E+04  0.21289617102E+04  0.00000000000E+00 0.  1.
          1   -1    0    0  501    0  0.00000000000E+00 -0.00000000000E+00 -0.97987677778E+02  0.97987677778E+02  0.00000000000E+00 0. -1.
        -24    2    1    2    0    0  0.20638514237E+03  0.14109081601E+03  0.63795034664E+03  0.68969587640E+03  0.78729357896E+02 0.  0.
    5000000    2    1    2    0    0 -0.20638514237E+03 -0.14109081601E+03  0.13930236857E+04  0.15372535115E+04  0.60010992688E+03 0.  0.
        -24    2    4    4    0    0 -0.88514093457E+02  0.11637995053E+03  0.68343067600E+02  0.18010427410E+03  0.79923319720E+02 0.  0.
         24    2    4    4    0    0 -0.11787104891E+03 -0.25747076654E+03  0.13246806181E+04  0.13571492374E+04  0.83009233154E+02 0.  0.
         13    1    3    3    0    0  0.13926598453E+03  0.49025543268E+02  0.33819868474E+03  0.36902150168E+03  0.00000000000E+00 0. -1.
        -14    1    3    3    0    0  0.67119157841E+02  0.92065272738E+02  0.29975166189E+03  0.32067437472E+03  0.00000000000E+00 0.  1.
         15    1    5    5    0    0 -0.10035536819E+03  0.87127294323E+02  0.66167176750E+02  0.14847093436E+03  0.17770000000E+01 0. -1.
        -16    1    5    5    0    0  0.11841274733E+02  0.29252656209E+02  0.21758908497E+01  0.31633339747E+02  0.00000000000E+00 0.  1.
          2    1    6    6  502    0 -0.12968648936E+03 -0.21745672083E+03  0.11528598857E+04  0.11803355146E+04  0.00000000000E+00 0. -1.
         -1    1    6    6    0  502  0.11815440445E+02 -0.40014045712E+02  0.17182073239E+03  0.17681372279E+03  0.00000000000E+00 0.  1.
<mgrwt>
<rscale>  0 0.36048060E+03</rscale>
<asrwt>0</asrwt>
<pdfrwt beam="1">  1        1 0.15075029E-01 0.36048060E+03</pdfrwt>
<pdfrwt beam="2">  1       -2 0.32753254E+00 0.36048060E+03</pdfrwt>
<totfact> 0.80025857E+00</totfact>
</mgrwt>
</event>
<event>
12    3  0.1182097E-007  0.2166442E+03  0.7818608E-02  0.1136410E+00
          1   -1    0    0  501    0  0.00000000000E+00  0.00000000000E+00  0.21493944044E+04  0.21493944044E+04  0.00000000000E+00 0. -1.
         -2   -1    0    0    0  501 -0.00000000000E+00 -0.00000000000E+00 -0.89604163589E+02  0.89604163589E+02  0.00000000000E+00 0.  1.
        -24    2    1    2    0    0  0.18004515667E+02 -0.16274129449E+03  0.16835043412E+03  0.24794775989E+03  0.79544524959E+02 0.  0.
    5000000    2    1    2    0    0 -0.18004515667E+02  0.16274129449E+03  0.18914398067E+04  0.19910508081E+04  0.59994156930E+03 0.  0.
        -24    2    4    4    0    0 -0.21326484686E+02  0.16141261549E+03  0.19024572597E+04  0.19110296791E+04  0.78625427800E+02 0.  0.
         24    2    4    4    0    0  0.33219690184E+01  0.13286789949E+01 -0.11017452985E+02  0.80021129056E+02  0.79178254332E+02 0.  0.
         13    1    3    3    0    0 -0.13539676634E+02 -0.14538839031E+03  0.13626363492E+03  0.19972201952E+03  0.00000000000E+00 0. -1.
        -14    1    3    3    0    0  0.31544192301E+02 -0.17352904178E+02  0.32086799201E+02  0.48225740370E+02  0.00000000000E+00 0.  1.
         15    1    5    5    0    0 -0.47605595124E+02  0.11246352273E+03  0.11313775480E+04  0.11379510756E+04  0.17770000000E+01 0. -1.
        -16    1    5    5    0    0  0.26279110438E+02  0.48949092759E+02  0.77107971168E+03  0.77307860344E+03  0.00000000000E+00 0.  1.
          2    1    6    6  502    0 -0.14782453568E+02  0.33523580815E+02 -0.20368965563E+02  0.41919520062E+02  0.00000000000E+00 0. -1.
         -3    1    6    6    0  502  0.18104422587E+02 -0.32194901820E+02  0.93515125782E+01  0.38101608993E+02  0.00000000000E+00 0.  1.
<mgrwt>
<rscale>  0 0.21664421E+03</rscale>
<asrwt>0</asrwt>
<pdfrwt beam="1">  1        1 0.33067602E+00 0.21664421E+03</pdfrwt>
<pdfrwt beam="2">  1       -2 0.13785258E-01 0.21664421E+03</pdfrwt>
<totfact> 0.95366460E+01</totfact>
</mgrwt>
</event>
<event>
12    3  0.1182097E-007  0.1197729E+04  0.7818608E-02  0.9114846E-01
         -2   -1    0    0    0  501 -0.00000000000E+00  0.00000000000E+00  0.44309909956E+03  0.44309909956E+03  0.00000000000E+00 0.  1.
          1   -1    0    0  501    0  0.00000000000E+00 -0.00000000000E+00 -0.41981768534E+04  0.41981768534E+04  0.00000000000E+00 0. -1.
        -24    2    1    2    0    0  0.19165776701E+03  0.11162473879E+04 -0.28620298011E+04  0.30791270067E+04  0.84069078897E+02 0.  0.
    5000000    2    1    2    0    0 -0.19165776701E+03 -0.11162473879E+04 -0.89304795275E+03  0.15621489463E+04  0.60002812754E+03 0.  0.
        -24    2    4    4    0    0  0.19236538234E+03 -0.43751678702E+03 -0.23452567387E+03  0.53866905027E+03  0.82077248737E+02 0.  0.
         24    2    4    4    0    0 -0.38402314935E+03 -0.67873060091E+03 -0.65852227888E+03  0.10234798961E+04  0.75567836976E+02 0.  0.
         13    1    3    3    0    0  0.18709279734E+03  0.10035667496E+04 -0.25173917147E+04  0.27165071289E+04  0.00000000000E+00 0. -1.
        -14    1    3    3    0    0  0.45649696701E+01  0.11268063834E+03 -0.34463808637E+03  0.36261987781E+03  0.00000000000E+00 0.  1.
         15    1    5    5    0    0  0.12853054321E+03 -0.22003644711E+03 -0.15603452180E+03  0.29880774475E+03  0.17770000000E+01 0. -1.
        -16    1    5    5    0    0  0.63834839132E+02 -0.21748033990E+03 -0.78491152071E+02  0.23986130552E+03  0.00000000000E+00 0.  1.
          4    1    6    6  502    0 -0.78908990655E+02 -0.11757921329E+03 -0.15661983343E+03  0.21114277735E+03  0.00000000000E+00 0. -1.
         -3    1    6    6    0  502 -0.30511415870E+03 -0.56115138762E+03 -0.50190244545E+03  0.81233711870E+03  0.00000000000E+00 0.  1.
<mgrwt>
<rscale>  0 0.11977292E+04</rscale>
<asrwt>0</asrwt>
<pdfrwt beam="1">  1        1 0.64587336E+00 0.11977292E+04</pdfrwt>
<pdfrwt beam="2">  1       -2 0.68169092E-01 0.11977292E+04</pdfrwt>
<totfact> 0.11214189E-01</totfact>
</mgrwt>
</event>
<event>
12    3  0.1182097E-007  0.6326374E+03  0.7818608E-02  0.9839916E-01
         -2   -1    0    0    0  501 -0.00000000000E+00  0.00000000000E+00  0.15253080064E+03  0.15253080064E+03  0.00000000000E+00 0.  1.
          1   -1    0    0  501    0  0.00000000000E+00 -0.00000000000E+00 -0.33470309060E+04  0.33470309060E+04  0.00000000000E+00 0. -1.
        -24    2    1    2    0    0 -0.11420054892E+03  0.51033583209E+03 -0.67688205123E+03  0.85916011547E+03  0.80637248510E+02 0.  0.
    5000000    2    1    2    0    0  0.11420054892E+03 -0.51033583209E+03 -0.25176180541E+04  0.26404015911E+04  0.59986287540E+03 0.  0.
        -24    2    4    4    0    0  0.15496152393E+03 -0.59812486349E+03 -0.23485339694E+04  0.24297949049E+04  0.80777769538E+02 0.  0.
         24    2    4    4    0    0 -0.40760975008E+02  0.87789031403E+02 -0.16908408469E+03  0.21060668627E+03  0.79983607611E+02 0.  0.
         11    1    3    3    0    0 -0.63049854401E+02  0.13562424366E+03 -0.16455612306E+03  0.22236892149E+03  0.00000000000E+00 0. -1.
        -12    1    3    3    0    0 -0.51150694519E+02  0.37471158843E+03 -0.51232592817E+03  0.63679119398E+03  0.00000000000E+00 0.  1.
         15    1    5    5    0    0  0.73847899570E+02 -0.33221306550E+03 -0.11411178039E+04  0.11907863088E+04  0.17770000000E+01 0. -1.
        -16    1    5    5    0    0  0.81113624357E+02 -0.26591179800E+03 -0.12074161655E+04  0.12390085960E+04  0.00000000000E+00 0.  1.
          4    1    6    6  502    0 -0.11961306205E+02  0.89541626431E+02 -0.94962407739E+02  0.13106729033E+03  0.00000000000E+00 0. -1.
         -3    1    6    6    0  502 -0.28799668803E+02 -0.17525950280E+01 -0.74121676949E+02  0.79539395938E+02  0.00000000000E+00 0.  1.
<mgrwt>
<rscale>  0 0.63263738E+03</rscale>
<asrwt>0</asrwt>
<pdfrwt beam="1">  1        1 0.51492787E+00 0.63263738E+03</pdfrwt>
<pdfrwt beam="2">  1       -2 0.23466275E-01 0.63263738E+03</pdfrwt>
<totfact> 0.50997012E+00</totfact>
</mgrwt>
</event>
<event>
12    3  0.1182097E-007  0.4450937E+03  0.7818608E-02  0.1029195E+00
          1   -1    0    0  501    0  0.00000000000E+00  0.00000000000E+00  0.26413587447E+04  0.26413587447E+04  0.00000000000E+00 0. -1.
         -2   -1    0    0    0  501 -0.00000000000E+00 -0.00000000000E+00 -0.12143681749E+03  0.12143681749E+03  0.00000000000E+00 0.  1.
        -24    2    1    2    0    0  0.28324472516E+03 -0.11741140527E+03  0.15497337738E+04  0.15816732438E+04  0.77475596066E+02 0.  0.
    5000000    2    1    2    0    0 -0.28324472516E+03  0.11741140527E+03  0.97018815342E+03  0.11811223184E+04  0.59980985791E+03 0.  0.
        -24    2    4    4    0    0  0.11438577523E+03  0.10933558924E+03  0.62022860450E+03  0.64498826634E+03  0.79296691151E+02 0.  0.
         24    2    4    4    0    0 -0.39763050039E+03  0.80758160268E+01  0.34995954891E+03  0.53613405209E+03  0.82418458418E+02 0.  0.
         11    1    3    3    0    0  0.11653451035E+03 -0.85492137366E+02  0.62535368399E+03  0.64183831899E+03  0.00000000000E+00 0. -1.
        -12    1    3    3    0    0  0.16671021481E+03 -0.31919267899E+02  0.92438008985E+03  0.93983492481E+03  0.00000000000E+00 0.  1.
         15    1    5    5    0    0  0.25731959885E+02  0.77113617997E+02  0.32715573418E+03  0.33710929381E+03  0.17770000000E+01 0. -1.
        -16    1    5    5    0    0  0.88653815348E+02  0.32221971242E+02  0.29307287033E+03  0.30787897253E+03  0.00000000000E+00 0.  1.
          2    1    6    6  502    0 -0.14803373806E+03  0.24903121020E+02  0.17657000489E+03  0.23175659573E+03  0.00000000000E+00 0. -1.
         -1    1    6    6    0  502 -0.24959676233E+03 -0.16827304994E+02  0.17338954403E+03  0.30437745635E+03  0.00000000000E+00 0.  1.
<mgrwt>
<rscale>  0 0.44509372E+03</rscale>
<asrwt>0</asrwt>
<pdfrwt beam="1">  1        1 0.40636284E+00 0.44509372E+03</pdfrwt>
<pdfrwt beam="2">  1       -2 0.18682589E-01 0.44509372E+03</pdfrwt>
<totfact> 0.25271061E+01</totfact>
</mgrwt>
</event>
<event>
12    3  0.1182097E-007  0.2199443E+03  0.7818608E-02  0.1133925E+00
          1   -1    0    0  501    0  0.00000000000E+00  0.00000000000E+00  0.74709520478E+03  0.74709520478E+03  0.00000000000E+00 0. -1.
         -2   -1    0    0    0  501 -0.00000000000E+00 -0.00000000000E+00 -0.20565539644E+03  0.20565539644E+03  0.00000000000E+00 0.  1.
        -24    2    1    2    0    0 -0.98452380503E+02 -0.32564724336E+02 -0.97839881553E+01  0.13139953247E+03  0.80104795188E+02 0.  0.
    5000000    2    1    2    0    0  0.98452380503E+02  0.32564724336E+02  0.55122379649E+03  0.82135106874E+03  0.60001380969E+03 0.  0.
        -24    2    4    4    0    0 -0.87490677049E+02  0.23270976248E+02  0.60102611752E+03  0.61381988666E+03  0.85710573493E+02 0.  0.
         24    2    4    4    0    0  0.18594305755E+03  0.92937480886E+01 -0.49802321034E+02  0.20753118208E+03  0.76991726517E+02 0.  0.
         11    1    3    3    0    0 -0.85721469009E+02  0.10279727176E+02 -0.68839840329E+01  0.86609654635E+02  0.00000000000E+00 0. -1.
        -12    1    3    3    0    0 -0.12730911494E+02 -0.42844451512E+02 -0.29000041223E+01  0.44789877838E+02  0.00000000000E+00 0.  1.
         15    1    5    5    0    0 -0.40211015710E+02 -0.19082022860E+02  0.41242568787E+03  0.41482424606E+03  0.17770000000E+01 0. -1.
        -16    1    5    5    0    0 -0.47279661339E+02  0.42352999108E+02  0.18860042965E+03  0.19899564059E+03  0.00000000000E+00 0.  1.
          2    1    6    6  502    0  0.13365035935E+03 -0.28071652905E+02 -0.26156612857E+02  0.13904892897E+03  0.00000000000E+00 0. -1.
         -1    1    6    6    0  502  0.52292698200E+02  0.37365400994E+02 -0.23645708177E+02  0.68482253115E+02  0.00000000000E+00 0.  1.
<mgrwt>
<rscale>  0 0.21994431E+03</rscale>
<asrwt>0</asrwt>
<pdfrwt beam="1">  1        1 0.11493772E+00 0.21994431E+03</pdfrwt>
<pdfrwt beam="2">  1       -2 0.31639292E-01 0.21994431E+03</pdfrwt>
<totfact> 0.21175729E+02</totfact>
</mgrwt>
</event>
<event>
12    3  0.1182097E-007  0.1569411E+04  0.7818608E-02  0.8839563E-01
          1   -1    0    0  501    0  0.00000000000E+00  0.00000000000E+00  0.96563557490E+03  0.96563557490E+03  0.00000000000E+00 0. -1.
         -2   -1    0    0    0  501 -0.00000000000E+00 -0.00000000000E+00 -0.29752726682E+04  0.29752726682E+04  0.00000000000E+00 0.  1.
        -24    2    1    2    0    0  0.15543534455E+04 -0.16498061052E+03 -0.39420680364E+03  0.16143416165E+04  0.86409578272E+02 0.  0.
    5000000    2    1    2    0    0 -0.15543534455E+04  0.16498061052E+03 -0.16154302897E+04  0.23265666267E+04  0.60005334088E+03 0.  0.
        -24    2    4    4    0    0 -0.13766642384E+04  0.10247164483E+03 -0.10829929485E+04  0.17564142036E+04  0.80076619475E+02 0.  0.
         24    2    4    4    0    0 -0.17768920712E+03  0.62508965691E+02 -0.53243734125E+03  0.57015242303E+03  0.78124503273E+02 0.  0.
         13    1    3    3    0    0  0.93429067402E+03 -0.14086734699E+03 -0.24635809998E+03  0.97643995537E+03  0.00000000000E+00 0. -1.
        -14    1    3    3    0    0  0.62006277151E+03 -0.24113263525E+02 -0.14784870366E+03  0.63790166112E+03  0.00000000000E+00 0.  1.
         15    1    5    5    0    0 -0.48774991395E+03  0.90028839712E+01 -0.34853497779E+03  0.59955051409E+03  0.17770000000E+01 0. -1.
        -16    1    5    5    0    0 -0.88891432446E+03  0.93468760857E+02 -0.73445797067E+03  0.11568636895E+04  0.00000000000E+00 0.  1.
          2    1    6    6  502    0 -0.17066860736E+03  0.67116450330E+02 -0.43134573935E+03  0.46871263936E+03  0.00000000000E+00 0. -1.
         -1    1    6    6    0  502 -0.70205997581E+01 -0.46074846389E+01 -0.10109160190E+03  0.10143978367E+03  0.00000000000E+00 0.  1.
<mgrwt>
<rscale>  0 0.15694110E+04</rscale>
<asrwt>0</asrwt>
<pdfrwt beam="1">  1        1 0.14855932E+00 0.15694110E+04</pdfrwt>
<pdfrwt beam="2">  1       -2 0.45773426E+00 0.15694110E+04</pdfrwt>
<totfact> 0.40990837E-02</totfact>
</mgrwt>
</event>
<event>
12    3  0.1182097E-007  0.6715676E+03  0.7818608E-02  0.9767130E-01
         -2   -1    0    0    0  501 -0.00000000000E+00  0.00000000000E+00  0.43233980274E+03  0.43233980274E+03  0.00000000000E+00 0.  1.
          1   -1    0    0  501    0  0.00000000000E+00 -0.00000000000E+00 -0.11585003135E+04  0.11585003135E+04  0.00000000000E+00 0. -1.
        -24    2    1    2    0    0  0.13645930560E+03  0.52598587417E+03 -0.51804484511E+03  0.75497509897E+03  0.79590556035E+02 0.  0.
    5000000    2    1    2    0    0 -0.13645930560E+03 -0.52598587417E+03 -0.20811566567E+03  0.83586501728E+03  0.60006325909E+03 0.  0.
        -24    2    4    4    0    0 -0.35744941136E+03 -0.37289412081E+03 -0.18257060738E+03  0.55416768903E+03  0.83364823939E+02 0.  0.
         24    2    4    4    0    0  0.22099010576E+03 -0.15309175337E+03 -0.25545058286E+02  0.28169732826E+03  0.80169339224E+02 0.  0.
         11    1    3    3    0    0  0.35158243614E+02  0.25387371324E+03 -0.27925077498E+03  0.37903688434E+03  0.00000000000E+00 0. -1.
        -12    1    3    3    0    0  0.10130106199E+03  0.27211216094E+03 -0.23879407013E+03  0.37593821463E+03  0.00000000000E+00 0.  1.
         15    1    5    5    0    0 -0.26411661269E+03 -0.28261839924E+03 -0.97468636739E+02  0.39891607835E+03  0.17770000000E+01 0. -1.
        -16    1    5    5    0    0 -0.93332798672E+02 -0.90275721567E+02 -0.85101970641E+02  0.15525161068E+03  0.00000000000E+00 0.  1.
          2    1    6    6  502    0  0.16920883673E+03 -0.72661092166E+02 -0.71623685844E+01  0.18428934930E+03  0.00000000000E+00 0. -1.
         -1    1    6    6    0  502  0.51781269030E+02 -0.80430661200E+02 -0.18382689702E+02  0.97407978955E+02  0.00000000000E+00 0.  1.
<mgrwt>
<rscale>  0 0.67156761E+03</rscale>
<asrwt>0</asrwt>
<pdfrwt beam="1">  1        1 0.17823082E+00 0.67156761E+03</pdfrwt>
<pdfrwt beam="2">  1       -2 0.66513817E-01 0.67156761E+03</pdfrwt>
<totfact> 0.21614377E+01</totfact>
</mgrwt>
</event>
<event>
12    3  0.1182097E-007  0.1095641E+04  0.7818608E-02  0.9209451E-01
         -2   -1    0    0    0  501 -0.00000000000E+00  0.00000000000E+00  0.50942370629E+03  0.50942370629E+03  0.00000000000E+00 0.  1.
          1   -1    0    0  501    0  0.00000000000E+00 -0.00000000000E+00 -0.25852705937E+04  0.25852705937E+04  0.00000000000E+00 0. -1.
        -24    2    1    2    0    0  0.73582091959E+03  0.70245863555E+03 -0.14045569784E+04  0.17361236144E+04  0.80401110017E+02 0.  0.
    5000000    2    1    2    0    0 -0.73582091959E+03 -0.70245863555E+03 -0.67128990899E+03  0.13585706856E+04  0.60016964723E+03 0.  0.
        -24    2    4    4    0    0 -0.62716999007E+03 -0.79514786192E+03 -0.55562452177E+03  0.11578080675E+04  0.78731145449E+02 0.  0.
         24    2    4    4    0    0 -0.10865092952E+03  0.92689226374E+02 -0.11566538723E+03  0.20076261806E+03  0.80813549846E+02 0.  0.
         11    1    3    3    0    0  0.38166363712E+03  0.31204719480E+03 -0.70179185905E+03  0.85764351400E+03  0.00000000000E+00 0. -1.
        -12    1    3    3    0    0  0.35415728247E+03  0.39041144074E+03 -0.70276511934E+03  0.87848010037E+03  0.00000000000E+00 0.  1.
         15    1    5    5    0    0 -0.10843293484E+03 -0.16981435204E+03 -0.83459276338E+02  0.21808994487E+03  0.17770000000E+01 0. -1.
        -16    1    5    5    0    0 -0.51873705523E+03 -0.62533350988E+03 -0.47216524543E+03  0.93971812265E+03  0.00000000000E+00 0.  1.
          2    1    6    6  502    0 -0.63063314374E+02  0.92088844010E+02 -0.53772059148E+02  0.12389015762E+03  0.00000000000E+00 0. -1.
         -1    1    6    6    0  502 -0.45587615144E+02  0.60038236387E+00 -0.61893328079E+02  0.76872460441E+02  0.00000000000E+00 0.  1.
<mgrwt>
<rscale>  0 0.10956408E+04</rscale>
<asrwt>0</asrwt>
<pdfrwt beam="1">  1        1 0.39773394E+00 0.10956408E+04</pdfrwt>
<pdfrwt beam="2">  1       -2 0.78372878E-01 0.10956408E+04</pdfrwt>
<totfact> 0.15064565E+00</totfact>
</mgrwt>
</event>
<event>
12    3  0.1182097E-007  0.2403311E+03  0.7818608E-02  0.1119572E+00
          1   -1    0    0  501    0  0.00000000000E+00  0.00000000000E+00  0.16518506024E+04  0.16518506024E+04  0.00000000000E+00 0. -1.
         -4   -1    0    0    0  501 -0.00000000000E+00 -0.00000000000E+00 -0.10201345130E+03  0.10201345130E+03  0.00000000000E+00 0.  1.
        -24    2    1    2    0    0 -0.62696218657E+02  0.16650537780E+03  0.37851090494E+03  0.42582627847E+03  0.80016608296E+02 0.  0.
    5000000    2    1    2    0    0  0.62696218657E+02 -0.16650537780E+03  0.11713262461E+04  0.13280377752E+04  0.60002025034E+03 0.  0.
        -24    2    4    4    0    0  0.12643822288E+03 -0.50308281986E+02  0.12442484552E+02  0.15870907808E+03  0.80723036384E+02 0.  0.
         24    2    4    4    0    0 -0.63742004221E+02 -0.11619709582E+03  0.11588837616E+04  0.11693286971E+04  0.82177982999E+02 0.  0.
         13    1    3    3    0    0 -0.25495822491E+02  0.58643319079E+02  0.60750626499E+02  0.88202689625E+02  0.00000000000E+00 0. -1.
        -14    1    3    3    0    0 -0.37200396166E+02  0.10786205872E+03  0.31776027845E+03  0.33762358885E+03  0.00000000000E+00 0.  1.
         15    1    5    5    0    0  0.10103126982E+03 -0.12459841215E+02  0.35243258619E+02  0.10773954767E+03  0.17770000000E+01 0. -1.
        -16    1    5    5    0    0  0.25406953054E+02 -0.37848440771E+02 -0.22800774067E+02  0.50969530411E+02  0.00000000000E+00 0.  1.
          2    1    6    6  502    0  0.12631550736E+02  0.36143907149E+01  0.70959469186E+02  0.72165546914E+02  0.00000000000E+00 0. -1.
         -1    1    6    6    0  502 -0.76373554957E+02 -0.11981148653E+03  0.10879242924E+04  0.10971631502E+04  0.00000000000E+00 0.  1.
<mgrwt>
<rscale>  0 0.24033109E+03</rscale>
<asrwt>0</asrwt>
<pdfrwt beam="1">  1        1 0.25413084E+00 0.24033109E+03</pdfrwt>
<pdfrwt beam="2">  1       -4 0.15694378E-01 0.24033109E+03</pdfrwt>
<totfact> 0.94723616E+01</totfact>
</mgrwt>
</event>
<event>
12    3  0.1182097E-007  0.3774501E+03  0.7818608E-02  0.1051880E+00
          1   -1    0    0  501    0  0.00000000000E+00  0.00000000000E+00  0.76539588283E+02  0.76539588283E+02  0.00000000000E+00 0. -1.
         -4   -1    0    0    0  501 -0.00000000000E+00 -0.00000000000E+00 -0.20989848397E+04  0.20989848397E+04  0.00000000000E+00 0.  1.
        -24    2    1    2    0    0 -0.38323818699E+02  0.13589672598E+03 -0.24187359481E+03  0.29116206882E+03  0.79598236433E+02 0.  0.
    5000000    2    1    2    0    0  0.38323818699E+02 -0.13589672598E+03 -0.17805716566E+04  0.18843623592E+04  0.60037441742E+03 0.  0.
        -24    2    4    4    0    0  0.16578022559E+03  0.18544232977E+03 -0.74805785286E+03  0.79233265104E+03  0.79552107568E+02 0.  0.
         24    2    4    4    0    0 -0.12745640689E+03 -0.32133905574E+03 -0.10325138037E+04  0.10920297081E+04  0.83307887242E+02 0.  0.
         13    1    3    3    0    0 -0.56821818447E+02  0.66865959723E+02 -0.10571759675E+03  0.13738990460E+03  0.00000000000E+00 0. -1.
        -14    1    3    3    0    0  0.18497999748E+02  0.69030766257E+02 -0.13615599805E+03  0.15377216422E+03  0.00000000000E+00 0.  1.
         15    1    5    5    0    0  0.49797949414E+02  0.68260873860E+02 -0.15225578968E+03  0.17413892697E+03  0.17770000000E+01 0. -1.
        -16    1    5    5    0    0  0.11598227617E+03  0.11718145590E+03 -0.59580206318E+03  0.61819372407E+03  0.00000000000E+00 0.  1.
          4    1    6    6  502    0 -0.10402028365E+03 -0.28113948572E+03 -0.78724942575E+03  0.84239022322E+03  0.00000000000E+00 0. -1.
         -3    1    6    6    0  502 -0.23436123239E+02 -0.40199570027E+02 -0.24526437800E+03  0.24963948489E+03  0.00000000000E+00 0.  1.
<mgrwt>
<rscale>  0 0.37745014E+03</rscale>
<asrwt>0</asrwt>
<pdfrwt beam="1">  1        1 0.11775322E-01 0.37745014E+03</pdfrwt>
<pdfrwt beam="2">  1       -4 0.32292072E+00 0.37745014E+03</pdfrwt>
<totfact> 0.60467260E+00</totfact>
</mgrwt>
</event>
<event>
12    3  0.1182097E-007  0.3870118E+03  0.7818608E-02  0.1048372E+00
         -2   -1    0    0    0  501 -0.00000000000E+00  0.00000000000E+00  0.32419755379E+03  0.32419755379E+03  0.00000000000E+00 0.  1.
          1   -1    0    0  501    0  0.00000000000E+00 -0.00000000000E+00 -0.51347421332E+03  0.51347421332E+03  0.00000000000E+00 0. -1.
        -24    2    1    2    0    0 -0.99128272967E+02  0.13227821622E+03 -0.10048600340E+03  0.20897805119E+03  0.79059774943E+02 0.  0.
    5000000    2    1    2    0    0  0.99128272967E+02 -0.13227821622E+03 -0.88790656138E+02  0.62869371592E+03  0.60004005435E+03 0.  0.
        -24    2    4    4    0    0 -0.11596139436E+03 -0.30234155539E+03 -0.82004027412E+02  0.34336819018E+03  0.79495864150E+02 0.  0.
         24    2    4    4    0    0  0.21508966733E+03  0.17006333917E+03 -0.67866287256E+01  0.28532552574E+03  0.78609751219E+02 0.  0.
         13    1    3    3    0    0 -0.44929157623E+02  0.73962458259E+02 -0.79442854750E+01  0.86903314713E+02  0.00000000000E+00 0. -1.
        -14    1    3    3    0    0 -0.54199115345E+02  0.58315757962E+02 -0.92541717923E+02  0.12207473648E+03  0.00000000000E+00 0.  1.
         15    1    5    5    0    0 -0.41688000326E+02 -0.14191358042E+03  0.13251877201E+01  0.14792656127E+03  0.17770000000E+01 0. -1.
        -16    1    5    5    0    0 -0.74273394036E+02 -0.16042797497E+03 -0.83329215132E+02  0.19544162891E+03  0.00000000000E+00 0.  1.
          2    1    6    6  502    0  0.12565569798E+03  0.14158830208E+03  0.11691292857E+02  0.18966625438E+03  0.00000000000E+00 0. -1.
         -1    1    6    6    0  502  0.89433969350E+02  0.28475037085E+02 -0.18477921583E+02  0.95659271358E+02  0.00000000000E+00 0.  1.
<mgrwt>
<rscale>  0 0.38701183E+03</rscale>
<asrwt>0</asrwt>
<pdfrwt beam="1">  1        1 0.78996033E-01 0.38701183E+03</pdfrwt>
<pdfrwt beam="2">  1       -2 0.49876547E-01 0.38701183E+03</pdfrwt>
<totfact> 0.14760379E+02</totfact>
</mgrwt>
</event>
<event>
12    3  0.1204025E-007  0.7482210E+03  0.7818608E-02  0.9638145E-01
         -2   -1    0    0    0  501 -0.00000000000E+00  0.00000000000E+00  0.64983090157E+03  0.64983090157E+03  0.00000000000E+00 0.  1.
          1   -1    0    0  501    0  0.00000000000E+00 -0.00000000000E+00 -0.10120029600E+04  0.10120029600E+04  0.00000000000E+00 0. -1.
        -24    2    1    2    0    0 -0.25380571447E+03 -0.59981005745E+03  0.98471462852E+02  0.66370315426E+03  0.81337582068E+02 0.  0.
    5000000    2    1    2    0    0  0.25380571447E+03  0.59981005745E+03 -0.46064352130E+03  0.99813070733E+03  0.59990249998E+03 0.  0.
        -24    2    4    4    0    0 -0.11967810190E+03  0.39706181837E+03 -0.97804508353E+02  0.43353088234E+03  0.80014801177E+02 0.  0.
         24    2    4    4    0    0  0.37348381636E+03  0.20274823908E+03 -0.36283901294E+03  0.56459982499E+03  0.80770065777E+02 0.  0.
         11    1    3    3    0    0 -0.10250187600E+03 -0.28410509297E+03  0.83202874232E+02  0.31328111452E+03  0.00000000000E+00 0. -1.
        -12    1    3    3    0    0 -0.15130383847E+03 -0.31570496448E+03  0.15268588620E+02  0.35042203974E+03  0.00000000000E+00 0.  1.
         15    1    5    5    0    0  0.14338145036E+01  0.76509533083E+02  0.21754476557E+01  0.76574504753E+02  0.17770000000E+01 0. -1.
        -16    1    5    5    0    0 -0.12111191640E+03  0.32055228529E+03 -0.99979956008E+02  0.35695637759E+03  0.00000000000E+00 0.  1.
          2    1    6    6  502    0  0.49481515990E+02  0.22670109401E+02 -0.15446299737E+02  0.56576872135E+02  0.00000000000E+00 0. -1.
         -1    1    6    6    0  502  0.32400230037E+03  0.18007812968E+03 -0.34739271321E+03  0.50802295285E+03  0.00000000000E+00 0.  1.
<mgrwt>
<rscale>  0 0.74822105E+03</rscale>
<asrwt>0</asrwt>
<pdfrwt beam="1">  1        1 0.15569276E+00 0.74822105E+03</pdfrwt>
<pdfrwt beam="2">  1       -2 0.99973985E-01 0.74822105E+03</pdfrwt>
<totfact> 0.10992222E+01</totfact>
</mgrwt>
</event>
<event>
12    3  0.1182097E-007  0.1061385E+04  0.7818608E-02  0.9243668E-01
          1   -1    0    0  501    0  0.00000000000E+00  0.00000000000E+00  0.19897453246E+04  0.19897453246E+04  0.00000000000E+00 0. -1.
         -2   -1    0    0    0  501 -0.00000000000E+00 -0.00000000000E+00 -0.78944308664E+03  0.78944308664E+03  0.00000000000E+00 0.  1.
        -24    2    1    2    0    0 -0.10169870525E+04  0.41534631082E+02  0.12282880632E+04  0.15972976059E+04  0.81733011308E+02 0.  0.
    5000000    2    1    2    0    0  0.10169870525E+04 -0.41534631082E+02 -0.27985825287E+02  0.11818908053E+04  0.60007906037E+03 0.  0.
        -24    2    4    4    0    0  0.10439503983E+04 -0.13595381919E+02  0.68191127512E+02  0.10503102229E+04  0.92110074656E+02 0.  0.
         24    2    4    4    0    0 -0.26963345836E+02 -0.27939249163E+02 -0.96176952799E+02  0.13158058240E+03  0.80968016852E+02 0.  0.
         13    1    3    3    0    0 -0.25356909804E+03  0.12171469526E+02  0.36361968554E+03  0.44346894802E+03  0.00000000000E+00 0. -1.
        -14    1    3    3    0    0 -0.76341795445E+03  0.29363161556E+02  0.86466837771E+03  0.11538286579E+04  0.00000000000E+00 0.  1.
         15    1    5    5    0    0  0.83794157680E+03 -0.47606006812E+02  0.53757930615E+02  0.84101456042E+03  0.17770000000E+01 0. -1.
        -16    1    5    5    0    0  0.20600882153E+03  0.34010624893E+02  0.14433196897E+02  0.20929566246E+03  0.00000000000E+00 0.  1.
          4    1    6    6  502    0 -0.11937386066E+02 -0.37278061246E+02 -0.58981532631E+01  0.39584633992E+02  0.00000000000E+00 0. -1.
         -3    1    6    6    0  502 -0.15025959769E+02  0.93388120833E+01 -0.90278799536E+02  0.91995948409E+02  0.00000000000E+00 0.  1.
<mgrwt>
<rscale>  0 0.10613850E+04</rscale>
<asrwt>0</asrwt>
<pdfrwt beam="1">  1        1 0.30611466E+00 0.10613850E+04</pdfrwt>
<pdfrwt beam="2">  1       -2 0.12145278E+00 0.10613850E+04</pdfrwt>
<totfact> 0.13642863E+00</totfact>
</mgrwt>
</event>
<event>
12    3  0.1182097E-007  0.5469780E+03  0.7818608E-02  0.1002196E+00
          1   -1    0    0  501    0  0.00000000000E+00  0.00000000000E+00  0.20693179670E+03  0.20693179670E+03  0.00000000000E+00 0. -1.
         -2   -1    0    0    0  501 -0.00000000000E+00 -0.00000000000E+00 -0.32868564472E+04  0.32868564472E+04  0.00000000000E+00 0.  1.
        -24    2    1    2    0    0 -0.49303576524E+03  0.20725914352E+03 -0.23389360690E+04  0.24005715155E+04  0.77981073481E+02 0.  0.
    5000000    2    1    2    0    0  0.49303576524E+03 -0.20725914352E+03 -0.74098858151E+03  0.10932167284E+04  0.60001509893E+03 0.  0.
        -24    2    4    4    0    0  0.44161579868E+03 -0.12222464578E+03 -0.15320860302E+03  0.49147542529E+03  0.90065753444E+02 0.  0.
         24    2    4    4    0    0  0.51419966560E+02 -0.85034497735E+02 -0.58777997849E+03  0.60174130311E+03  0.82051288746E+02 0.  0.
         13    1    3    3    0    0 -0.24069100696E+03  0.10838496572E+03 -0.13249889035E+04  0.13510274076E+04  0.00000000000E+00 0. -1.
        -14    1    3    3    0    0 -0.25234475828E+03  0.98874177802E+02 -0.10139471655E+04  0.10495441079E+04  0.00000000000E+00 0.  1.
         15    1    5    5    0    0  0.32779114049E+03 -0.10297764802E+03 -0.73987476842E+02  0.35146654497E+03  0.17770000000E+01 0. -1.
        -16    1    5    5    0    0  0.11382465819E+03 -0.19246997768E+02 -0.79221126181E+02  0.14000888032E+03  0.00000000000E+00 0.  1.
          4    1    6    6  502    0  0.92358445195E+01 -0.24203649594E+02 -0.38502181593E+03  0.38589236352E+03  0.00000000000E+00 0. -1.
         -1    1    6    6    0  502  0.42184122041E+02 -0.60830848141E+02 -0.20275816256E+03  0.21584893959E+03  0.00000000000E+00 0.  1.
<mgrwt>
<rscale>  0 0.54697802E+03</rscale>
<asrwt>0</asrwt>
<pdfrwt beam="1">  1        1 0.31835662E-01 0.54697802E+03</pdfrwt>
<pdfrwt beam="2">  1       -2 0.50567021E+00 0.54697802E+03</pdfrwt>
<totfact> 0.20842119E-01</totfact>
</mgrwt>
</event>
<event>
12    3  0.1182097E-007  0.2041450E+04  0.7818608E-02  0.8587483E-01
          1   -1    0    0  501    0  0.00000000000E+00  0.00000000000E+00  0.31854167278E+04  0.31854167278E+04  0.00000000000E+00 0. -1.
         -2   -1    0    0    0  501 -0.00000000000E+00 -0.00000000000E+00 -0.13532663506E+04  0.13532663506E+04  0.00000000000E+00 0.  1.
        -24    2    1    2    0    0  0.20295855259E+04 -0.99318954649E+02  0.88866483528E+03  0.22194047312E+04  0.83369717317E+02 0.  0.
    5000000    2    1    2    0    0 -0.20295855259E+04  0.99318954649E+02  0.94348554194E+03  0.23192783472E+04  0.59983783014E+03 0.  0.
        -24    2    4    4    0    0 -0.37274972680E+03  0.92977558565E+02 -0.33712257792E+02  0.39405142403E+03  0.80949510402E+02 0.  0.
         24    2    4    4    0    0 -0.16568357991E+04  0.63413960841E+01  0.97719779973E+03  0.19252269232E+04  0.80237694186E+02 0.  0.
         11    1    3    3    0    0  0.16599901993E+04 -0.10731354094E+03  0.70635446134E+03  0.18072134027E+04  0.00000000000E+00 0. -1.
        -12    1    3    3    0    0  0.36959532661E+03  0.79945862955E+01  0.18231037394E+03  0.41219132852E+03  0.00000000000E+00 0.  1.
         15    1    5    5    0    0 -0.80474706402E+02 -0.12306721238E+02  0.11809861319E+01  0.81438235585E+02  0.17770000000E+01 0. -1.
        -16    1    5    5    0    0 -0.29227502039E+03  0.10528427980E+03 -0.34893243924E+02  0.31261318845E+03  0.00000000000E+00 0.  1.
          4    1    6    6  502    0 -0.70851929248E+03 -0.23161931644E+02  0.38304814599E+03  0.80576792257E+03  0.00000000000E+00 0. -1.
         -3    1    6    6    0  502 -0.94831650658E+03  0.29503327728E+02  0.59414965374E+03  0.11194590006E+04  0.00000000000E+00 0.  1.
<mgrwt>
<rscale>  0 0.20414498E+04</rscale>
<asrwt>0</asrwt>
<pdfrwt beam="1">  1        1 0.49006411E+00 0.20414498E+04</pdfrwt>
<pdfrwt beam="2">  1       -2 0.20819482E+00 0.20414498E+04</pdfrwt>
<totfact> 0.39956939E-02</totfact>
</mgrwt>
</event>
<event>
12    3  0.1182097E-007  0.1022988E+04  0.7818608E-02  0.9283685E-01
         -2   -1    0    0    0  501 -0.00000000000E+00  0.00000000000E+00  0.18223928550E+04  0.18223928550E+04  0.00000000000E+00 0.  1.
          1   -1    0    0  501    0  0.00000000000E+00 -0.00000000000E+00 -0.68462310306E+03  0.68462310306E+03  0.00000000000E+00 0. -1.
        -24    2    1    2    0    0  0.92924724521E+03 -0.40959321622E+03  0.30574522995E+03  0.10635560621E+04  0.80026909204E+02 0.  0.
    5000000    2    1    2    0    0 -0.92924724521E+03  0.40959321622E+03  0.83202452202E+03  0.14434598959E+04  0.60003718252E+03 0.  0.
        -24    2    4    4    0    0 -0.40454164177E+03  0.13103538433E+03  0.18449534604E+02  0.43295449932E+03  0.79277999999E+02 0.  0.
         24    2    4    4    0    0 -0.52470560344E+03  0.27855783189E+03  0.81357498742E+03  0.10105053966E+04  0.79413225832E+02 0.  0.
         13    1    3    3    0    0  0.37652595256E+02 -0.31391361059E+01  0.26352186082E+01  0.37875011315E+02  0.00000000000E+00 0. -1.
        -14    1    3    3    0    0  0.89159464995E+03 -0.40645408011E+03  0.30311001134E+03  0.10256810508E+04  0.00000000000E+00 0.  1.
         15    1    5    5    0    0 -0.16514011060E+03  0.92341892050E+02 -0.52931486878E+01  0.18928670400E+03  0.17770000000E+01 0. -1.
        -16    1    5    5    0    0 -0.23940153116E+03  0.38693492282E+02  0.23742683292E+02  0.24366779532E+03  0.00000000000E+00 0.  1.
          2    1    6    6  502    0 -0.33403335362E+03  0.20683489682E+03  0.48875211588E+03  0.62708658625E+03  0.00000000000E+00 0. -1.
         -1    1    6    6    0  502 -0.19067224982E+03  0.71722935069E+02  0.32482287154E+03  0.38341881036E+03  0.00000000000E+00 0.  1.
<mgrwt>
<rscale>  0 0.10229879E+04</rscale>
<asrwt>0</asrwt>
<pdfrwt beam="1">  1        1 0.10532663E+00 0.10229879E+04</pdfrwt>
<pdfrwt beam="2">  1       -2 0.28036813E+00 0.10229879E+04</pdfrwt>
<totfact> 0.10375491E+00</totfact>
</mgrwt>
</event>
<event>
12    3  0.1182097E-007  0.4123790E+03  0.7818608E-02  0.1039576E+00
         -2   -1    0    0    0  501 -0.00000000000E+00  0.00000000000E+00  0.31703928951E+03  0.31703928951E+03  0.00000000000E+00 0.  1.
          1   -1    0    0  501    0  0.00000000000E+00 -0.00000000000E+00 -0.10233853267E+04  0.10233853267E+04  0.00000000000E+00 0. -1.
        -24    2    1    2    0    0  0.28435645007E+03 -0.13512767157E+03 -0.55970725346E+03  0.64716991081E+03  0.80240922006E+02 0.  0.
    5000000    2    1    2    0    0 -0.28435645007E+03  0.13512767157E+03 -0.14663878375E+03  0.69325470541E+03  0.59998422926E+03 0.  0.
        -24    2    4    4    0    0 -0.19897521424E+03 -0.11777685375E+03  0.14827326032E+03  0.28623769468E+03  0.80526610322E+02 0.  0.
         24    2    4    4    0    0 -0.85381235823E+02  0.25290452533E+03 -0.29491204407E+03  0.40701701073E+03  0.86250095216E+02 0.  0.
         13    1    3    3    0    0  0.18729398824E+03 -0.12110367742E+03 -0.34075983186E+03  0.40726207990E+03  0.00000000000E+00 0. -1.
        -14    1    3    3    0    0  0.97062461827E+02 -0.14023994159E+02 -0.21894742159E+03  0.23990783091E+03  0.00000000000E+00 0.  1.
         15    1    5    5    0    0 -0.14665775252E+03 -0.86732287541E+02  0.63384890916E+02  0.18180150770E+03  0.17770000000E+01 0. -1.
        -16    1    5    5    0    0 -0.52317461725E+02 -0.31044566212E+02  0.84888369402E+02  0.10443618699E+03  0.00000000000E+00 0.  1.
          4    1    6    6  502    0 -0.70076684241E+02  0.24571671745E+03 -0.24374096032E+03  0.35312476923E+03  0.00000000000E+00 0. -1.
         -3    1    6    6    0  502 -0.15304551582E+02  0.71878078743E+01 -0.51171083750E+02  0.53892241494E+02  0.00000000000E+00 0.  1.
<mgrwt>
<rscale>  0 0.41237899E+03</rscale>
<asrwt>0</asrwt>
<pdfrwt beam="1">  1        1 0.15744389E+00 0.41237899E+03</pdfrwt>
<pdfrwt beam="2">  1       -2 0.48775276E-01 0.41237899E+03</pdfrwt>
<totfact> 0.53788976E+01</totfact>
</mgrwt>
</event>
<event>
12    3  0.1182097E-007  0.1016849E+04  0.7818608E-02  0.9290256E-01
          1   -1    0    0  501    0  0.00000000000E+00  0.00000000000E+00  0.61950382166E+03  0.61950382166E+03  0.00000000000E+00 0. -1.
         -2   -1    0    0    0  501 -0.00000000000E+00 -0.00000000000E+00 -0.21636578566E+04  0.21636578566E+04  0.00000000000E+00 0.  1.
        -24    2    1    2    0    0  0.12809749709E+03 -0.92594972384E+03 -0.74769482545E+02  0.94118066244E+03  0.80241535268E+02 0.  0.
    5000000    2    1    2    0    0 -0.12809749709E+03  0.92594972384E+03 -0.14693845523E+04  0.18419810158E+04  0.60000936658E+03 0.  0.
        -24    2    4    4    0    0 -0.29536322314E+03  0.84922782689E+03 -0.12708708879E+04  0.15588064300E+04  0.79607393775E+02 0.  0.
         24    2    4    4    0    0  0.16726572605E+03  0.76721896954E+02 -0.19851366447E+03  0.28317458574E+03  0.83163083414E+02 0.  0.
         13    1    3    3    0    0  0.37841554379E+02 -0.39394073318E+03  0.44936103105E+01  0.39577958137E+03  0.00000000000E+00 0. -1.
        -14    1    3    3    0    0  0.90255942710E+02 -0.53200899066E+03 -0.79263092856E+02  0.54540108107E+03  0.00000000000E+00 0.  1.
         15    1    5    5    0    0 -0.13603570534E+03  0.47834719853E+03 -0.65411573169E+03  0.82170086019E+03  0.17770000000E+01 0. -1.
        -16    1    5    5    0    0 -0.15932751780E+03  0.37088062836E+03 -0.61675515619E+03  0.73710556985E+03  0.00000000000E+00 0.  1.
          2    1    6    6  502    0  0.78453222245E+02 -0.22923886299E+01 -0.50476190882E+02  0.93316713252E+02  0.00000000000E+00 0. -1.
         -1    1    6    6    0  502  0.88812503808E+02  0.79014285584E+02 -0.14803747359E+03  0.18985787249E+03  0.00000000000E+00 0.  1.
<mgrwt>
<rscale>  0 0.10168491E+04</rscale>
<asrwt>0</asrwt>
<pdfrwt beam="1">  1        1 0.95308279E-01 0.10168491E+04</pdfrwt>
<pdfrwt beam="2">  1       -2 0.33287044E+00 0.10168491E+04</pdfrwt>
<totfact> 0.57733050E-01</totfact>
</mgrwt>
</event>
<event>
12    3  0.1182097E-007  0.3691408E+03  0.7818608E-02  0.1055022E+00
         -2   -1    0    0    0  501 -0.00000000000E+00  0.00000000000E+00  0.30517628758E+03  0.30517628758E+03  0.00000000000E+00 0.  1.
          1   -1    0    0  501    0  0.00000000000E+00 -0.00000000000E+00 -0.90311197489E+03  0.90311197489E+03  0.00000000000E+00 0. -1.
        -24    2    1    2    0    0 -0.31192482446E+03 -0.13179388141E+02 -0.28131389019E+02  0.32355203533E+03  0.80148313359E+02 0.  0.
    5000000    2    1    2    0    0  0.31192482446E+03  0.13179388141E+02 -0.56980429829E+03  0.88473622714E+03  0.60050850192E+03 0.  0.
        -24    2    4    4    0    0  0.20628810585E+03  0.12922275755E+03 -0.64580093694E+03  0.69474691384E+03  0.79756632648E+02 0.  0.
         24    2    4    4    0    0  0.10563671861E+03 -0.11604336941E+03  0.75996638648E+02  0.18998931331E+03  0.75467013868E+02 0.  0.
         11    1    3    3    0    0 -0.14447192108E+02  0.17421033887E+02 -0.72986297504E+01  0.23779902812E+02  0.00000000000E+00 0. -1.
        -12    1    3    3    0    0 -0.29747763235E+03 -0.30600422028E+02 -0.20832759269E+02  0.29977213252E+03  0.00000000000E+00 0.  1.
         15    1    5    5    0    0  0.19908279722E+03  0.10037817266E+03 -0.60054142105E+03  0.64059573353E+03  0.17770000000E+01 0. -1.
        -16    1    5    5    0    0  0.72053086286E+01  0.28844584887E+02 -0.45259515891E+02  0.54151180305E+02  0.00000000000E+00 0.  1.
          2    1    6    6  502    0  0.59425663101E+02 -0.97358518249E+02  0.21383424921E+02  0.11604887493E+03  0.00000000000E+00 0. -1.
         -1    1    6    6    0  502  0.46211055507E+02 -0.18684851162E+02  0.54613213727E+02  0.73940438378E+02  0.00000000000E+00 0.  1.
<mgrwt>
<rscale>  0 0.36914085E+03</rscale>
<asrwt>0</asrwt>
<pdfrwt beam="1">  1        1 0.13894031E+00 0.36914085E+03</pdfrwt>
<pdfrwt beam="2">  1       -2 0.46950198E-01 0.36914085E+03</pdfrwt>
<totfact> 0.72398157E+01</totfact>
</mgrwt>
</event>
<event>
12    3  0.1182097E-007  0.6749991E+03  0.7818608E-02  0.9760969E-01
         -2   -1    0    0    0  501 -0.00000000000E+00  0.00000000000E+00  0.73680893744E+03  0.73680893744E+03  0.00000000000E+00 0.  1.
          1   -1    0    0  501    0  0.00000000000E+00 -0.00000000000E+00 -0.67960945660E+03  0.67960945660E+03  0.00000000000E+00 0. -1.
        -24    2    1    2    0    0 -0.53968052384E+03 -0.90488757399E+02  0.20760799633E+03  0.59050514094E+03  0.78434420394E+02 0.  0.
    5000000    2    1    2    0    0  0.53968052384E+03  0.90488757399E+02 -0.15040851548E+03  0.82591325310E+03  0.60005557834E+03 0.  0.
        -24    2    4    4    0    0 -0.11043643597E+03  0.57836795301E+02  0.16389914449E+02  0.14893276333E+03  0.79818778597E+02 0.  0.
         24    2    4    4    0    0  0.65011695981E+03  0.32651962098E+02 -0.16679842993E+03  0.67698048977E+03  0.82235364914E+02 0.  0.
         13    1    3    3    0    0 -0.35681868648E+03 -0.38729319826E+02  0.10218626077E+03  0.37317766161E+03  0.00000000000E+00 0. -1.
        -14    1    3    3    0    0 -0.18286183736E+03 -0.51759437573E+02  0.10542173556E+03  0.21732747933E+03  0.00000000000E+00 0.  1.
         15    1    5    5    0    0 -0.10306207848E+01  0.34002577512E+02  0.14291926857E+02  0.36941228444E+02  0.17770000000E+01 0. -1.
        -16    1    5    5    0    0 -0.10940581519E+03  0.23834217789E+02  0.20979875920E+01  0.11199153489E+03  0.00000000000E+00 0.  1.
          2    1    6    6  502    0  0.12158255732E+03  0.34791797086E+02 -0.16830999467E+02  0.12757770155E+03  0.00000000000E+00 0. -1.
         -1    1    6    6    0  502  0.52853440249E+03 -0.21398349878E+01 -0.14996743046E+03  0.54940278823E+03  0.00000000000E+00 0.  1.
<mgrwt>
<rscale>  0 0.67499910E+03</rscale>
<asrwt>0</asrwt>
<pdfrwt beam="1">  1        1 0.10455530E+00 0.67499910E+03</pdfrwt>
<pdfrwt beam="2">  1       -2 0.11335522E+00 0.67499910E+03</pdfrwt>
<totfact> 0.15665867E+01</totfact>
</mgrwt>
</event>
<event>
12    3  0.1182097E-007  0.5126946E+03  0.7818608E-02  0.1010518E+00
          3   -1    0    0  501    0  0.00000000000E+00  0.00000000000E+00  0.88869729642E+03  0.88869729642E+03  0.00000000000E+00 0. -1.
         -4   -1    0    0    0  501 -0.00000000000E+00 -0.00000000000E+00 -0.48062292738E+03  0.48062292738E+03  0.00000000000E+00 0.  1.
        -24    2    1    2    0    0 -0.48440358639E+03  0.11778522117E+03  0.28353260901E+03  0.57936336078E+03  0.82164290318E+02 0.  0.
    5000000    2    1    2    0    0  0.48440358639E+03 -0.11778522117E+03  0.12454176003E+03  0.78995686302E+03  0.60000083551E+03 0.  0.
        -24    2    4    4    0    0  0.11755863283E+03  0.57921464599E+01 -0.22251239959E+03  0.26404455837E+03  0.79713108837E+02 0.  0.
         24    2    4    4    0    0  0.36684495356E+03 -0.12357736763E+03  0.34705415962E+03  0.52591230465E+03  0.79313156079E+02 0.  0.
         13    1    3    3    0    0 -0.23500040515E+03  0.58151203973E+02  0.90718228159E+02  0.25852765784E+03  0.00000000000E+00 0. -1.
        -14    1    3    3    0    0 -0.24940318124E+03  0.59634017199E+02  0.19281438085E+03  0.32083570294E+03  0.00000000000E+00 0.  1.
         15    1    5    5    0    0  0.36797572766E+02  0.37630051561E+02 -0.60255986404E+02  0.80025144601E+02  0.17770000000E+01 0. -1.
        -16    1    5    5    0    0  0.80761060063E+02 -0.31837905102E+02 -0.16225641319E+03  0.18401941377E+03  0.00000000000E+00 0.  1.
          4    1    6    6  502    0  0.25161966567E+03 -0.77313088778E+02  0.18490261047E+03  0.32168112348E+03  0.00000000000E+00 0. -1.
         -3    1    6    6    0  502  0.11522528789E+03 -0.46264278854E+02  0.16215154915E+03  0.20423118117E+03  0.00000000000E+00 0.  1.
<mgrwt>
<rscale>  0 0.51269464E+03</rscale>
<asrwt>0</asrwt>
<pdfrwt beam="1">  1        3 0.13672266E+00 0.51269464E+03</pdfrwt>
<pdfrwt beam="2">  1       -4 0.73941989E-01 0.51269464E+03</pdfrwt>
<totfact> 0.15393793E+00</totfact>
</mgrwt>
</event>
<event>
12    3  0.1182097E-007  0.1388234E+04  0.7818608E-02  0.8962380E-01
          1   -1    0    0  501    0  0.00000000000E+00  0.00000000000E+00  0.41124390455E+04  0.41124390455E+04  0.00000000000E+00 0. -1.
         -2   -1    0    0    0  501 -0.00000000000E+00 -0.00000000000E+00 -0.10570359116E+04  0.10570359116E+04  0.00000000000E+00 0.  1.
        -24    2    1    2    0    0 -0.98061209952E+03 -0.97527227384E+03  0.33574071763E+04  0.36319600236E+04  0.78705576947E+02 0.  0.
    5000000    2    1    2    0    0  0.98061209952E+03  0.97527227384E+03 -0.30200404242E+03  0.15375149334E+04  0.59999135911E+03 0.  0.
        -24    2    4    4    0    0  0.36829495920E+03  0.35447388624E+03 -0.40268532068E+03  0.65605094737E+03  0.83393435276E+02 0.  0.
         24    2    4    4    0    0  0.61231714032E+03  0.62079838760E+03  0.10068127826E+03  0.88146398606E+03  0.80741070996E+02 0.  0.
         11    1    3    3    0    0 -0.18286057541E+03 -0.21714765706E+03  0.63833303323E+03  0.69861302330E+03  0.00000000000E+00 0. -1.
        -12    1    3    3    0    0 -0.79775152411E+03 -0.75812461678E+03  0.27190741431E+04  0.29333470003E+04  0.00000000000E+00 0.  1.
         15    1    5    5    0    0  0.20109554160E+03  0.13582586909E+03 -0.18810764557E+03  0.30704352723E+03  0.17770000000E+01 0. -1.
        -16    1    5    5    0    0  0.16719941760E+03  0.21864801715E+03 -0.21457767512E+03  0.34900742013E+03  0.00000000000E+00 0.  1.
          4    1    6    6  502    0  0.21593587852E+03  0.17809550507E+03  0.77168352853E+01  0.28001046785E+03  0.00000000000E+00 0. -1.
         -3    1    6    6    0  502  0.39638126180E+03  0.44270288253E+03  0.92964442975E+02  0.60145351821E+03  0.00000000000E+00 0.  1.
<mgrwt>
<rscale>  0 0.13882340E+04</rscale>
<asrwt>0</asrwt>
<pdfrwt beam="1">  1        1 0.63268292E+00 0.13882340E+04</pdfrwt>
<pdfrwt beam="2">  1       -2 0.16262091E+00 0.13882340E+04</pdfrwt>
<totfact> 0.15702733E-02</totfact>
</mgrwt>
</event>
<event>
12    3  0.1182097E-007  0.3246539E+03  0.7818608E-02  0.1073527E+00
          1   -1    0    0  501    0  0.00000000000E+00  0.00000000000E+00  0.10639488522E+04  0.10639488522E+04  0.00000000000E+00 0. -1.
         -2   -1    0    0    0  501 -0.00000000000E+00 -0.00000000000E+00 -0.24755497323E+03  0.24755497323E+03  0.00000000000E+00 0.  1.
        -24    2    1    2    0    0  0.30213140938E+03 -0.20123905243E+02  0.98026157908E+02  0.32780791941E+03  0.78489134870E+02 0.  0.
    5000000    2    1    2    0    0 -0.30213140938E+03  0.20123905243E+02  0.71836772106E+03  0.98369590602E+03  0.59993090665E+03 0.  0.
        -24    2    4    4    0    0 -0.20134767070E+03  0.26093505233E+02  0.80149555355E+03  0.83058011933E+03  0.79034528901E+02 0.  0.
         24    2    4    4    0    0 -0.10078373868E+03 -0.59695999899E+01 -0.83127832491E+02  0.15311578668E+03  0.79631711587E+02 0.  0.
         13    1    3    3    0    0  0.17154091124E+03  0.27619456424E+02  0.55973757484E+02  0.18254363897E+03  0.00000000000E+00 0. -1.
        -14    1    3    3    0    0  0.13059049814E+03 -0.47743361667E+02  0.42052400424E+02  0.14526428043E+03  0.00000000000E+00 0.  1.
         15    1    5    5    0    0 -0.30488381556E+02  0.23906743075E+02  0.77116022352E+02  0.86319826267E+02  0.17770000000E+01 0. -1.
        -16    1    5    5    0    0 -0.17085928915E+03  0.21867621575E+01  0.72437953120E+03  0.74426029307E+03  0.00000000000E+00 0.  1.
          4    1    6    6  502    0 -0.13388492215E+02  0.29609429067E+02 -0.32807549272E+02  0.46176891436E+02  0.00000000000E+00 0. -1.
         -3    1    6    6    0  502 -0.87395246464E+02 -0.35579029057E+02 -0.50320283220E+02  0.10693889525E+03  0.00000000000E+00 0.  1.
<mgrwt>
<rscale>  0 0.32465388E+03</rscale>
<asrwt>0</asrwt>
<pdfrwt beam="1">  1        1 0.16368444E+00 0.32465388E+03</pdfrwt>
<pdfrwt beam="2">  1       -2 0.38085381E-01 0.32465388E+03</pdfrwt>
<totfact> 0.82616290E+01</totfact>
</mgrwt>
</event>
<event>
12    3  0.1182097E-007  0.9782146E+03  0.7818608E-02  0.9332767E-01
          1   -1    0    0  501    0  0.00000000000E+00  0.00000000000E+00  0.77308071535E+03  0.77308071535E+03  0.00000000000E+00 0. -1.
         -2   -1    0    0    0  501 -0.00000000000E+00 -0.00000000000E+00 -0.12731012301E+04  0.12731012301E+04  0.00000000000E+00 0.  1.
        -24    2    1    2    0    0  0.83887372109E+03  0.29390074294E+03 -0.87466035010E+02  0.89702759515E+03  0.83195147403E+02 0.  0.
    5000000    2    1    2    0    0 -0.83887372109E+03 -0.29390074294E+03 -0.41255447974E+03  0.11491543503E+04  0.60022308805E+03 0.  0.
        -24    2    4    4    0    0 -0.76675015440E+03 -0.12754864134E+02 -0.26354125750E+03  0.81463897511E+03  0.78193219196E+02 0.  0.
         24    2    4    4    0    0 -0.72123566687E+02 -0.28114587881E+03 -0.14901322224E+03  0.33451537520E+03  0.73829410105E+02 0.  0.
         13    1    3    3    0    0  0.59962152028E+03  0.20477134184E+03 -0.99707756779E+02  0.64141944684E+03  0.00000000000E+00 0. -1.
        -14    1    3    3    0    0  0.23925220081E+03  0.89129401109E+02  0.12241721769E+02  0.25560814831E+03  0.00000000000E+00 0.  1.
         15    1    5    5    0    0 -0.25804750389E+03 -0.24916497618E+02 -0.56845245041E+02  0.26541267063E+03  0.17770000000E+01 0. -1.
        -16    1    5    5    0    0 -0.50870265051E+03  0.12161633484E+02 -0.20669601246E+03  0.54922630448E+03  0.00000000000E+00 0.  1.
          4    1    6    6  502    0 -0.71919287508E+02 -0.13263083569E+03 -0.79455220702E+02  0.17051819430E+03  0.00000000000E+00 0. -1.
         -3    1    6    6    0  502 -0.20427917888E+00 -0.14851504312E+03 -0.69558001538E+02  0.16399718089E+03  0.00000000000E+00 0.  1.
<mgrwt>
<rscale>  0 0.97821465E+03</rscale>
<asrwt>0</asrwt>
<pdfrwt beam="1">  1        1 0.11893550E+00 0.97821465E+03</pdfrwt>
<pdfrwt beam="2">  1       -2 0.19586173E+00 0.97821465E+03</pdfrwt>
<totfact> 0.28958116E+00</totfact>
</mgrwt>
</event>
<event>
12    3  0.1182097E-007  0.1444175E+04  0.7818608E-02  0.8922449E-01
          1   -1    0    0  501    0  0.00000000000E+00  0.00000000000E+00  0.14217564235E+04  0.14217564235E+04  0.00000000000E+00 0. -1.
         -2   -1    0    0    0  501 -0.00000000000E+00 -0.00000000000E+00 -0.18402101649E+04  0.18402101649E+04  0.00000000000E+00 0.  1.
        -24    2    1    2    0    0 -0.46742894960E+03  0.13113878678E+04  0.50957819305E+03  0.14846615661E+04  0.79511434712E+02 0.  0.
    5000000    2    1    2    0    0  0.46742894960E+03 -0.13113878678E+04 -0.92803193448E+03  0.17773050223E+04  0.59945133922E+03 0.  0.
        -24    2    4    4    0    0  0.50034607139E+03 -0.60668401823E+03 -0.61654293808E+03  0.10021934665E+04  0.76517060770E+02 0.  0.
         24    2    4    4    0    0 -0.32917121788E+02 -0.70470384959E+03 -0.31148899640E+03  0.77511155584E+03  0.77983822621E+02 0.  0.
         11    1    3    3    0    0 -0.31095403213E+03  0.85238372582E+03  0.29214458215E+03  0.95320453368E+03  0.00000000000E+00 0. -1.
        -12    1    3    3    0    0 -0.15647491747E+03  0.45900414199E+03  0.21743361090E+03  0.53145703242E+03  0.00000000000E+00 0.  1.
         15    1    5    5    0    0  0.28754257301E+03 -0.28862001162E+03 -0.31959541330E+03  0.51780945176E+03  0.17770000000E+01 0. -1.
        -16    1    5    5    0    0  0.21280349837E+03 -0.31806400661E+03 -0.29694752478E+03  0.48438401470E+03  0.00000000000E+00 0.  1.
          4    1    6    6  502    0 -0.33490782463E+02 -0.44083572551E+03 -0.23338462844E+03  0.49992614873E+03  0.00000000000E+00 0. -1.
         -3    1    6    6    0  502  0.57366067493E+00 -0.26386812408E+03 -0.78104367962E+02  0.27518540711E+03  0.00000000000E+00 0.  1.
<mgrwt>
<rscale>  0 0.14441749E+04</rscale>
<asrwt>0</asrwt>
<pdfrwt beam="1">  1        1 0.21873176E+00 0.14441749E+04</pdfrwt>
<pdfrwt beam="2">  1       -2 0.28310925E+00 0.14441749E+04</pdfrwt>
<totfact> 0.24882224E-01</totfact>
</mgrwt>
</event>
<event>
12    3  0.1182097E-007  0.5317598E+03  0.7818608E-02  0.1005806E+00
         -2   -1    0    0    0  501 -0.00000000000E+00  0.00000000000E+00  0.35959762100E+03  0.35959762100E+03  0.00000000000E+00 0.  1.
          1   -1    0    0  501    0  0.00000000000E+00 -0.00000000000E+00 -0.86952238813E+03  0.86952238813E+03  0.00000000000E+00 0. -1.
        -24    2    1    2    0    0 -0.33226435513E+03  0.16819284400E+03 -0.32054028535E+03  0.49778979544E+03  0.79750683086E+02 0.  0.
    5000000    2    1    2    0    0  0.33226435513E+03 -0.16819284400E+03 -0.18938448177E+03  0.73133021368E+03  0.60024075590E+03 0.  0.
        -24    2    4    4    0    0  0.43688746231E+03 -0.28747343431E+03 -0.16024413456E+03  0.55229932343E+03  0.76450832820E+02 0.  0.
         24    2    4    4    0    0 -0.10462310718E+03  0.11928059032E+03 -0.29140347215E+02  0.17903089025E+03  0.77646931989E+02 0.  0.
         13    1    3    3    0    0 -0.18593287648E+03  0.49431986503E+02 -0.16253403099E+03  0.25185683846E+03  0.00000000000E+00 0. -1.
        -14    1    3    3    0    0 -0.14633147865E+03  0.11876085749E+03 -0.15800625436E+03  0.24593295699E+03  0.00000000000E+00 0.  1.
         15    1    5    5    0    0  0.24069448115E+03 -0.17174003617E+03 -0.52481026413E+02  0.30030965543E+03  0.17770000000E+01 0. -1.
        -16    1    5    5    0    0  0.19619298116E+03 -0.11573339814E+03 -0.10776310815E+03  0.25198966800E+03  0.00000000000E+00 0.  1.
          4    1    6    6  502    0 -0.33466618569E+02  0.29309887922E+02  0.26244928346E+02  0.51651528073E+02  0.00000000000E+00 0. -1.
         -3    1    6    6    0  502 -0.71156488614E+02  0.89970702393E+02 -0.55385275560E+02  0.12737936218E+03  0.00000000000E+00 0.  1.
<mgrwt>
<rscale>  0 0.53175981E+03</rscale>
<asrwt>0</asrwt>
<pdfrwt beam="1">  1        1 0.13377267E+00 0.53175981E+03</pdfrwt>
<pdfrwt beam="2">  1       -2 0.55322711E-01 0.53175981E+03</pdfrwt>
<totfact> 0.54075002E+01</totfact>
</mgrwt>
</event>
<event>
12    3  0.1182097E-007  0.8377426E+03  0.7818608E-02  0.9506938E-01
          1   -1    0    0  501    0  0.00000000000E+00  0.00000000000E+00  0.12444754258E+04  0.12444754258E+04  0.00000000000E+00 0. -1.
         -2   -1    0    0    0  501 -0.00000000000E+00 -0.00000000000E+00 -0.67162789622E+03  0.67162789622E+03  0.00000000000E+00 0.  1.
        -24    2    1    2    0    0  0.64534728280E+03  0.48897958852E+03  0.33408874201E+03  0.88045585418E+03  0.89515753954E+02 0.  0.
    5000000    2    1    2    0    0 -0.64534728280E+03 -0.48897958852E+03  0.23875878755E+03  0.10356474678E+04  0.59998813786E+03 0.  0.
        -24    2    4    4    0    0 -0.61335723314E+01 -0.11393811105E+03  0.25454348403E+03  0.28981983631E+03  0.78636113793E+02 0.  0.
         24    2    4    4    0    0 -0.63921371047E+03 -0.37504147746E+03 -0.15784696485E+02  0.74582763152E+03  0.82215702983E+02 0.  0.
         11    1    3    3    0    0  0.18034382405E+03  0.17057437110E+03  0.68937639410E+02  0.25762746181E+03  0.00000000000E+00 0. -1.
        -12    1    3    3    0    0  0.46500345875E+03  0.31840521741E+03  0.26515110260E+03  0.62282839237E+03  0.00000000000E+00 0.  1.
         15    1    5    5    0    0  0.19161347502E+02 -0.59266256463E+02  0.19658917320E+03  0.20622828890E+03  0.17770000000E+01 0. -1.
        -16    1    5    5    0    0 -0.25294919833E+02 -0.54671854591E+02  0.57954310829E+02  0.83591547404E+02  0.00000000000E+00 0.  1.
          4    1    6    6  502    0 -0.49992493168E+03 -0.29089949582E+03  0.21806366331E+02  0.57881168924E+03  0.00000000000E+00 0. -1.
         -3    1    6    6    0  502 -0.13928877879E+03 -0.84141981638E+02 -0.37591062816E+02  0.16701594228E+03  0.00000000000E+00 0.  1.
<mgrwt>
<rscale>  0 0.83774261E+03</rscale>
<asrwt>0</asrwt>
<pdfrwt beam="1">  1        1 0.19145776E+00 0.83774261E+03</pdfrwt>
<pdfrwt beam="2">  1       -2 0.10332737E+00 0.83774261E+03</pdfrwt>
<totfact> 0.67575764E+00</totfact>
</mgrwt>
</event>
<event>
12    3  0.1182097E-007  0.4724496E+03  0.7818608E-02  0.1021231E+00
          1   -1    0    0  501    0  0.00000000000E+00  0.00000000000E+00  0.52942258542E+03  0.52942258542E+03  0.00000000000E+00 0. -1.
         -2   -1    0    0    0  501 -0.00000000000E+00 -0.00000000000E+00 -0.63287841328E+03  0.63287841328E+03  0.00000000000E+00 0.  1.
        -24    2    1    2    0    0 -0.10546433095E+03 -0.37685531574E+03 -0.18747725236E+03  0.44117138551E+03  0.79635526860E+02 0.  0.
    5000000    2    1    2    0    0  0.10546433095E+03  0.37685531574E+03  0.84021424494E+02  0.72112961319E+03  0.59985470336E+03 0.  0.
        -24    2    4    4    0    0 -0.10627610197E+03  0.29933124947E+03 -0.17267004578E+03  0.37027535247E+03  0.79969276449E+02 0.  0.
         24    2    4    4    0    0  0.21174043292E+03  0.77524066267E+02  0.25669147027E+03  0.35085426073E+03  0.79775996241E+02 0.  0.
         11    1    3    3    0    0 -0.30336506049E+02 -0.13128624633E+03 -0.10697027478E+03  0.17204366237E+03  0.00000000000E+00 0. -1.
        -12    1    3    3    0    0 -0.75127824901E+02 -0.24556906941E+03 -0.80506977576E+02  0.26912772314E+03  0.00000000000E+00 0.  1.
         15    1    5    5    0    0 -0.68609082672E+02  0.18952346402E+03 -0.64590706768E+02  0.21166356978E+03  0.17770000000E+01 0. -1.
        -16    1    5    5    0    0 -0.37667019298E+02  0.10980778545E+03 -0.10807933901E+03  0.15861178269E+03  0.00000000000E+00 0.  1.
          2    1    6    6  502    0  0.10712824120E+03  0.75502663981E+02  0.17199333104E+03  0.21623787423E+03  0.00000000000E+00 0. -1.
         -1    1    6    6    0  502  0.10461219172E+03  0.20214022860E+01  0.84698139237E+02  0.13461638650E+03  0.00000000000E+00 0.  1.
<mgrwt>
<rscale>  0 0.47244957E+03</rscale>
<asrwt>0</asrwt>
<pdfrwt beam="1">  1        1 0.81449629E-01 0.47244957E+03</pdfrwt>
<pdfrwt beam="2">  1       -2 0.97365909E-01 0.47244957E+03</pdfrwt>
<totfact> 0.32942001E+01</totfact>
</mgrwt>
</event>
<event>
12    3  0.1182097E-007  0.3072913E+03  0.7818608E-02  0.1081652E+00
         -4   -1    0    0    0  501 -0.00000000000E+00  0.00000000000E+00  0.16209363478E+03  0.16209363478E+03  0.00000000000E+00 0.  1.
          1   -1    0    0  501    0  0.00000000000E+00 -0.00000000000E+00 -0.13398251258E+04  0.13398251258E+04  0.00000000000E+00 0. -1.
        -24    2    1    2    0    0 -0.16890826027E+03 -0.19277914872E+03 -0.24435352230E+03  0.36311309902E+03  0.80303662776E+02 0.  0.
    5000000    2    1    2    0    0  0.16890826027E+03  0.19277914872E+03 -0.93337796872E+03  0.11388056616E+04  0.59999175141E+03 0.  0.
        -24    2    4    4    0    0  0.20950175012E+03  0.11355690048E+03 -0.97930159044E+03  0.10110146035E+04  0.79578705956E+02 0.  0.
         24    2    4    4    0    0 -0.40593489850E+02  0.79222248238E+02  0.45923621716E+02  0.12779105810E+03  0.79357289928E+02 0.  0.
         11    1    3    3    0    0 -0.66271066479E+02 -0.73848729494E+02 -0.44073240807E+02  0.10857227848E+03  0.00000000000E+00 0. -1.
        -12    1    3    3    0    0 -0.10263719379E+03 -0.11893041922E+03 -0.20028028150E+03  0.25454082054E+03  0.00000000000E+00 0.  1.
         15    1    5    5    0    0  0.40264912176E+02  0.59368718569E+02 -0.33905493224E+03  0.34656501944E+03  0.17770000000E+01 0. -1.
        -16    1    5    5    0    0  0.16923683794E+03  0.54188181909E+02 -0.64024665820E+03  0.66444958402E+03  0.00000000000E+00 0.  1.
          4    1    6    6  502    0  0.16439346473E+02  0.26217533109E+02  0.38765680411E+02  0.49602309749E+02  0.00000000000E+00 0. -1.
         -3    1    6    6    0  502 -0.57032836322E+02  0.53004715129E+02  0.71579413057E+01  0.78188748350E+02  0.00000000000E+00 0.  1.
<mgrwt>
<rscale>  0 0.30729131E+03</rscale>
<asrwt>0</asrwt>
<pdfrwt beam="1">  1        1 0.20612693E+00 0.30729131E+03</pdfrwt>
<pdfrwt beam="2">  1       -4 0.24937484E-01 0.30729131E+03</pdfrwt>
<totfact> 0.65611741E+01</totfact>
</mgrwt>
</event>
<event>
12    3  0.1182097E-007  0.1016985E+04  0.7818608E-02  0.9290110E-01
          1   -1    0    0  501    0  0.00000000000E+00  0.00000000000E+00  0.15728696147E+04  0.15728696147E+04  0.00000000000E+00 0. -1.
         -2   -1    0    0    0  501 -0.00000000000E+00 -0.00000000000E+00 -0.70407690300E+03  0.70407690300E+03  0.00000000000E+00 0.  1.
        -24    2    1    2    0    0  0.70706195270E+03  0.63720417475E+03  0.22794359694E+03  0.98210661534E+03  0.81297941145E+02 0.  0.
    5000000    2    1    2    0    0 -0.70706195270E+03 -0.63720417475E+03  0.64084911475E+03  0.12948399023E+04  0.59996418188E+03 0.  0.
        -24    2    4    4    0    0 -0.28913408777E+02  0.75575090750E+02 -0.59231865958E+01  0.11506260397E+03  0.81588842024E+02 0.  0.
         24    2    4    4    0    0 -0.67814854392E+03 -0.71277926550E+03  0.64677230135E+03  0.11797772984E+04  0.74968893691E+02 0.  0.
         13    1    3    3    0    0  0.51273974524E+03  0.49998774825E+03  0.19260471420E+03  0.74161065977E+03  0.00000000000E+00 0. -1.
        -14    1    3    3    0    0  0.19432220746E+03  0.13721642650E+03  0.35338882737E+02  0.24049595557E+03  0.00000000000E+00 0.  1.
         15    1    5    5    0    0 -0.87627757098E+00  0.62492718955E+02 -0.35803982659E+02  0.72049918029E+02  0.17770000000E+01 0. -1.
        -16    1    5    5    0    0 -0.28037131206E+02  0.13082371795E+02  0.29880796064E+02  0.43012685936E+02  0.00000000000E+00 0.  1.
          2    1    6    6  502    0 -0.45215712686E+03 -0.42491892928E+03  0.39437662268E+03  0.73521091148E+03  0.00000000000E+00 0. -1.
         -1    1    6    6    0  502 -0.22599141706E+03 -0.28786033622E+03  0.25239567867E+03  0.44456638690E+03  0.00000000000E+00 0.  1.
<mgrwt>
<rscale>  0 0.10169848E+04</rscale>
<asrwt>0</asrwt>
<pdfrwt beam="1">  1        1 0.24197994E+00 0.10169848E+04</pdfrwt>
<pdfrwt beam="2">  1       -2 0.10831952E+00 0.10169848E+04</pdfrwt>
<totfact> 0.34816746E+00</totfact>
</mgrwt>
</event>
<event>
12    3  0.1182097E-007  0.9010331E+03  0.7818608E-02  0.9424291E-01
          1   -1    0    0  501    0  0.00000000000E+00  0.00000000000E+00  0.23714571327E+04  0.23714571327E+04  0.00000000000E+00 0. -1.
         -2   -1    0    0    0  501 -0.00000000000E+00 -0.00000000000E+00 -0.53372826003E+03  0.53372826003E+03  0.00000000000E+00 0.  1.
        -24    2    1    2    0    0  0.50272203698E+03 -0.73112639220E+03  0.15635377490E+04  0.17995582409E+04  0.80525288512E+02 0.  0.
    5000000    2    1    2    0    0 -0.50272203698E+03  0.73112639220E+03  0.27419112362E+03  0.11056271518E+04  0.59996281434E+03 0.  0.
        -24    2    4    4    0    0 -0.23058235580E+03  0.50379679689E+03  0.43869911689E+03  0.71121426294E+03  0.79933580493E+02 0.  0.
         24    2    4    4    0    0 -0.27213968118E+03  0.22732959531E+03 -0.16450799326E+03  0.39441288881E+03  0.52534712685E+02 0.  0.
         11    1    3    3    0    0  0.22471214980E+03 -0.25787936672E+03  0.60595916121E+03  0.69583318626E+03  0.00000000000E+00 0. -1.
        -12    1    3    3    0    0  0.27800988719E+03 -0.47324702549E+03  0.95757858780E+03  0.11037250547E+04  0.00000000000E+00 0.  1.
         15    1    5    5    0    0 -0.31690342976E+02  0.12166881007E+03  0.68368821867E+02  0.14312592607E+03  0.17770000000E+01 0. -1.
        -16    1    5    5    0    0 -0.19889201282E+03  0.38212798682E+03  0.37033029502E+03  0.56808833687E+03  0.00000000000E+00 0.  1.
          4    1    6    6  502    0 -0.63970031028E+02  0.55815129947E+02 -0.64979216927E+02  0.10691020640E+03  0.00000000000E+00 0. -1.
         -3    1    6    6    0  502 -0.20816965016E+03  0.17151446536E+03 -0.99528776337E+02  0.28750268241E+03  0.00000000000E+00 0.  1.
<mgrwt>
<rscale>  0 0.90103307E+03</rscale>
<asrwt>0</asrwt>
<pdfrwt beam="1">  1        1 0.36483955E+00 0.90103307E+03</pdfrwt>
<pdfrwt beam="2">  1       -2 0.82112041E-01 0.90103307E+03</pdfrwt>
<totfact> 0.19536410E+00</totfact>
</mgrwt>
</event>
<event>
12    3  0.1182097E-007  0.5616437E+03  0.7818608E-02  0.9988342E-01
         -2   -1    0    0    0  501 -0.00000000000E+00  0.00000000000E+00  0.45112633963E+03  0.45112633963E+03  0.00000000000E+00 0.  1.
          1   -1    0    0  501    0  0.00000000000E+00 -0.00000000000E+00 -0.72563771770E+03  0.72563771770E+03  0.00000000000E+00 0. -1.
        -24    2    1    2    0    0  0.29487512118E+03  0.28385013709E+03 -0.12607643553E+03  0.43553020971E+03  0.79177386666E+02 0.  0.
    5000000    2    1    2    0    0 -0.29487512118E+03 -0.28385013709E+03 -0.14843494254E+03  0.74123384762E+03  0.59989369664E+03 0.  0.
        -24    2    4    4    0    0 -0.55071186636E+02 -0.42152098007E+03 -0.40827054368E+02  0.43432604335E+03  0.79116947184E+02 0.  0.
         24    2    4    4    0    0 -0.23980393454E+03  0.13767084298E+03 -0.10760788818E+03  0.30690780426E+03  0.78445871093E+02 0.  0.
         13    1    3    3    0    0  0.24207314086E+03  0.20213145534E+03 -0.69332406550E+02  0.32289861158E+03  0.00000000000E+00 0. -1.
        -14    1    3    3    0    0  0.52801980324E+02  0.81718681754E+02 -0.56744028980E+02  0.11263159814E+03  0.00000000000E+00 0.  1.
         15    1    5    5    0    0 -0.25396009320E+02 -0.31797815093E+03  0.39564948014E+00  0.31899588717E+03  0.17770000000E+01 0. -1.
        -16    1    5    5    0    0 -0.29675177317E+02 -0.10354282913E+03 -0.41222703849E+02  0.11533015619E+03  0.00000000000E+00 0.  1.
          2    1    6    6  502    0 -0.13403711014E+03  0.11299983053E+03 -0.89377736283E+02  0.19678233746E+03  0.00000000000E+00 0. -1.
         -1    1    6    6    0  502 -0.10576682441E+03  0.24671012447E+02 -0.18230151893E+02  0.11012546680E+03  0.00000000000E+00 0.  1.
<mgrwt>
<rscale>  0 0.56164372E+03</rscale>
<asrwt>0</asrwt>
<pdfrwt beam="1">  1        1 0.11163657E+00 0.56164372E+03</pdfrwt>
<pdfrwt beam="2">  1       -2 0.69404052E-01 0.56164372E+03</pdfrwt>
<totfact> 0.44358149E+01</totfact>
</mgrwt>
</event>
<event>
12    3  0.1182097E-007  0.6994740E+03  0.7818608E-02  0.9718132E-01
         -2   -1    0    0    0  501 -0.00000000000E+00  0.00000000000E+00  0.25051555317E+03  0.25051555317E+03  0.00000000000E+00 0.  1.
          1   -1    0    0  501    0  0.00000000000E+00 -0.00000000000E+00 -0.25703287039E+04  0.25703287039E+04  0.00000000000E+00 0. -1.
        -24    2    1    2    0    0 -0.38792167809E+03 -0.48664298247E+03 -0.15147579426E+04  0.16395545847E+04  0.79642896057E+02 0.  0.
    5000000    2    1    2    0    0  0.38792167809E+03  0.48664298247E+03 -0.80505520811E+03  0.11812896723E+04  0.60002231716E+03 0.  0.
        -24    2    4    4    0    0  0.76274539210E+02 -0.86670716626E+02 -0.36375865962E+03  0.38953148240E+03  0.78005095226E+02 0.  0.
         24    2    4    4    0    0  0.31164713889E+03  0.57331369910E+03 -0.44129654849E+03  0.79175818991E+03  0.79535217593E+02 0.  0.
         11    1    3    3    0    0 -0.62832667498E+02 -0.13226440037E+03 -0.34253951828E+03  0.37252535121E+03  0.00000000000E+00 0. -1.
        -12    1    3    3    0    0 -0.32508901060E+03 -0.35437858210E+03 -0.11722184243E+04  0.12670292335E+04  0.00000000000E+00 0.  1.
         15    1    5    5    0    0  0.65822234239E+01 -0.29187964250E+01  0.21691777842E+01  0.77271015932E+01  0.17770000000E+01 0. -1.
        -16    1    5    5    0    0  0.69692315786E+02 -0.83751920201E+02 -0.36592783741E+03  0.38180438081E+03  0.00000000000E+00 0.  1.
          4    1    6    6  502    0  0.24458678726E+01  0.30058383176E+02 -0.80633362942E+01  0.31217079636E+02  0.00000000000E+00 0. -1.
         -3    1    6    6    0  502  0.30920127101E+03  0.54325531593E+03 -0.43323321219E+03  0.76054111028E+03  0.00000000000E+00 0.  1.
<mgrwt>
<rscale>  0 0.69947403E+03</rscale>
<asrwt>0</asrwt>
<pdfrwt beam="1">  1        1 0.39543521E+00 0.69947403E+03</pdfrwt>
<pdfrwt beam="2">  1       -2 0.38540852E-01 0.69947403E+03</pdfrwt>
<totfact> 0.71856520E+00</totfact>
</mgrwt>
</event>
<event>
12    3  0.1182097E-007  0.1103322E+04  0.7818608E-02  0.9201960E-01
          1   -1    0    0  501    0  0.00000000000E+00  0.00000000000E+00  0.28121435877E+04  0.28121435877E+04  0.00000000000E+00 0. -1.
         -2   -1    0    0    0  501 -0.00000000000E+00 -0.00000000000E+00 -0.58421694203E+03  0.58421694203E+03  0.00000000000E+00 0.  1.
        -24    2    1    2    0    0 -0.85755016224E+03  0.56391932252E+03  0.20461394937E+03  0.10495859524E+04  0.79790475811E+02 0.  0.
    5000000    2    1    2    0    0  0.85755016224E+03 -0.56391932252E+03  0.20233126963E+04  0.23467745774E+04  0.60013279116E+03 0.  0.
        -24    2    4    4    0    0  0.92671538509E+02 -0.37404920799E+03  0.59433859511E+03  0.71292715906E+03  0.80783317794E+02 0.  0.
         24    2    4    4    0    0  0.76487862373E+03 -0.18987011453E+03  0.14289741012E+04  0.16338474184E+04  0.80002719364E+02 0.  0.
         13    1    3    3    0    0 -0.62209261221E+03  0.37207541011E+03  0.12457020500E+03  0.73549783476E+03  0.00000000000E+00 0. -1.
        -14    1    3    3    0    0 -0.23545755003E+03  0.19184391242E+03  0.80043744370E+02  0.31408811759E+03  0.00000000000E+00 0.  1.
         15    1    5    5    0    0  0.38902933106E+02 -0.21531559653E+03  0.40299546231E+03  0.45856596546E+03  0.17770000000E+01 0. -1.
        -16    1    5    5    0    0  0.53768605403E+02 -0.15873361146E+03  0.19134313281E+03  0.25436119360E+03  0.00000000000E+00 0.  1.
          2    1    6    6  502    0  0.54056668216E+03 -0.16901961072E+03  0.10478727042E+04  0.11911411213E+04  0.00000000000E+00 0. -1.
         -1    1    6    6    0  502  0.22431194157E+03 -0.20850503814E+02  0.38110139701E+03  0.44270629704E+03  0.00000000000E+00 0.  1.
<mgrwt>
<rscale>  0 0.11033224E+04</rscale>
<asrwt>0</asrwt>
<pdfrwt beam="1">  1        1 0.43263747E+00 0.11033224E+04</pdfrwt>
<pdfrwt beam="2">  1       -2 0.89879531E-01 0.11033224E+04</pdfrwt>
<totfact> 0.76343883E-01</totfact>
</mgrwt>
</event>
<event>
12    3  0.1182097E-007  0.1565327E+04  0.7818608E-02  0.8842137E-01
         -2   -1    0    0    0  501 -0.00000000000E+00  0.00000000000E+00  0.14513114379E+04  0.14513114379E+04  0.00000000000E+00 0.  1.
          1   -1    0    0  501    0  0.00000000000E+00 -0.00000000000E+00 -0.17764567325E+04  0.17764567325E+04  0.00000000000E+00 0. -1.
        -24    2    1    2    0    0 -0.88163028590E+03 -0.12453772925E+04 -0.42228315507E+03  0.15852658499E+04  0.80673353447E+02 0.  0.
    5000000    2    1    2    0    0  0.88163028590E+03  0.12453772925E+04  0.97137860485E+02  0.16425023204E+04  0.60011794416E+03 0.  0.
        -24    2    4    4    0    0  0.46145325448E+03  0.10193131407E+04  0.21979065599E+03  0.11432489805E+04  0.82291639624E+02 0.  0.
         24    2    4    4    0    0  0.42017703142E+03  0.22606415182E+03 -0.12265279551E+03  0.49925333998E+03  0.80971913396E+02 0.  0.
         13    1    3    3    0    0 -0.25634181606E+03 -0.42047766460E+03 -0.11869891734E+03  0.50655900551E+03  0.00000000000E+00 0. -1.
        -14    1    3    3    0    0 -0.62528846984E+03 -0.82489962794E+03 -0.30358423774E+03  0.10787068444E+04  0.00000000000E+00 0.  1.
         15    1    5    5    0    0  0.12429730342E+03  0.34179372419E+03  0.98664242087E+02  0.37684288494E+03  0.17770000000E+01 0. -1.
        -16    1    5    5    0    0  0.33715595106E+03  0.67751941652E+03  0.12112641391E+03  0.76640609552E+03  0.00000000000E+00 0.  1.
          4    1    6    6  502    0  0.21219453765E+03  0.15520553722E+03 -0.48341291889E+02  0.26730537049E+03  0.00000000000E+00 0. -1.
         -3    1    6    6    0  502  0.20798249377E+03  0.70858614605E+02 -0.74311503620E+02  0.23194796948E+03  0.00000000000E+00 0.  1.
<mgrwt>
<rscale>  0 0.15653265E+04</rscale>
<asrwt>0</asrwt>
<pdfrwt beam="1">  1        1 0.27330103E+00 0.15653265E+04</pdfrwt>
<pdfrwt beam="2">  1       -2 0.22327868E+00 0.15653265E+04</pdfrwt>
<totfact> 0.32658679E-01</totfact>
</mgrwt>
</event>
<event>
12    3  0.1182097E-007  0.6318637E+03  0.7818608E-02  0.9841419E-01
          1   -1    0    0  501    0  0.00000000000E+00  0.00000000000E+00  0.13240254864E+04  0.13240254864E+04  0.00000000000E+00 0. -1.
         -2   -1    0    0    0  501 -0.00000000000E+00 -0.00000000000E+00 -0.40316251141E+03  0.40316251141E+03  0.00000000000E+00 0.  1.
        -24    2    1    2    0    0  0.31078269252E+03 -0.50821505194E+03  0.26313713320E+03  0.65602481398E+03  0.79113745301E+02 0.  0.
    5000000    2    1    2    0    0 -0.31078269252E+03  0.50821505194E+03  0.65772584182E+03  0.10711631839E+04  0.59993238157E+03 0.  0.
        -24    2    4    4    0    0 -0.23075027598E+02  0.31059176777E+03 -0.60707237239E+00  0.32165454507E+03  0.80383920784E+02 0.  0.
         24    2    4    4    0    0 -0.28770766493E+03  0.19762328417E+03  0.65833291419E+03  0.74950863879E+03  0.80810338473E+02 0.  0.
         11    1    3    3    0    0  0.11926059391E+03 -0.24735756608E+03  0.89840387935E+02  0.28892931672E+03  0.00000000000E+00 0. -1.
        -12    1    3    3    0    0  0.19152209862E+03 -0.26085748587E+03  0.17329674527E+03  0.36709549727E+03  0.00000000000E+00 0.  1.
         15    1    5    5    0    0  0.60504946942E+01  0.23651283141E+03  0.25300037734E+02  0.23794574496E+03  0.17770000000E+01 0. -1.
        -16    1    5    5    0    0 -0.29125522292E+02  0.74078936370E+02 -0.25907110107E+02  0.83708800114E+02  0.00000000000E+00 0.  1.
          4    1    6    6  502    0 -0.23737318076E+03  0.15661544263E+03  0.45989509529E+03  0.54071981884E+03  0.00000000000E+00 0. -1.
         -3    1    6    6    0  502 -0.50334484162E+02  0.41007841539E+02  0.19843781890E+03  0.20878881994E+03  0.00000000000E+00 0.  1.
<mgrwt>
<rscale>  0 0.63186372E+03</rscale>
<asrwt>0</asrwt>
<pdfrwt beam="1">  1        1 0.20369623E+00 0.63186372E+03</pdfrwt>
<pdfrwt beam="2">  1       -2 0.62025002E-01 0.63186372E+03</pdfrwt>
<totfact> 0.19216696E+01</totfact>
</mgrwt>
</event>
<event>
12    3  0.1182097E-007  0.1170991E+04  0.7818608E-02  0.9138634E-01
         -4   -1    0    0    0  501 -0.00000000000E+00  0.00000000000E+00  0.15122479952E+04  0.15122479952E+04  0.00000000000E+00 0.  1.
          1   -1    0    0  501    0  0.00000000000E+00 -0.00000000000E+00 -0.10184217961E+04  0.10184217961E+04  0.00000000000E+00 0. -1.
        -24    2    1    2    0    0  0.48893345841E+03  0.10587727414E+04  0.28149800944E+03  0.12020648240E+04  0.75253353451E+02 0.  0.
    5000000    2    1    2    0    0 -0.48893345841E+03 -0.10587727414E+04  0.21232818968E+03  0.13286049673E+04  0.60004354367E+03 0.  0.
        -24    2    4    4    0    0 -0.22358806780E+03 -0.41500383879E+03 -0.19729414312E+03  0.51684651662E+03  0.77366223642E+02 0.  0.
         24    2    4    4    0    0 -0.26534539061E+03 -0.64376890258E+03  0.40962233280E+03  0.81175845065E+03  0.79465403926E+02 0.  0.
         13    1    3    3    0    0  0.40880658946E+03  0.94314942139E+03  0.25038436528E+03  0.10579914882E+04  0.00000000000E+00 0. -1.
        -14    1    3    3    0    0  0.80126868954E+02  0.11562331998E+03  0.31113644162E+02  0.14407333585E+03  0.00000000000E+00 0.  1.
         15    1    5    5    0    0 -0.65273981356E+02 -0.19647411356E+03 -0.70710751236E+02  0.21878285584E+03  0.17770000000E+01 0. -1.
        -16    1    5    5    0    0 -0.15831408645E+03 -0.21852972523E+03 -0.12658339189E+03  0.29806366078E+03  0.00000000000E+00 0.  1.
          4    1    6    6  502    0 -0.16886723137E+03 -0.38988117053E+03  0.20528108650E+03  0.47187264536E+03  0.00000000000E+00 0. -1.
         -3    1    6    6    0  502 -0.96478159235E+02 -0.25388773205E+03  0.20434124630E+03  0.33988580529E+03  0.00000000000E+00 0.  1.
<mgrwt>
<rscale>  0 0.11709908E+04</rscale>
<asrwt>0</asrwt>
<pdfrwt beam="1">  1        1 0.15668028E+00 0.11709908E+04</pdfrwt>
<pdfrwt beam="2">  1       -4 0.23265354E+00 0.11709908E+04</pdfrwt>
<totfact> 0.55254034E-01</totfact>
</mgrwt>
</event>
<event>
12    3  0.2806454E-007  0.1052724E+04  0.7818608E-02  0.9252536E-01
          1   -1    0    0  501    0  0.00000000000E+00  0.00000000000E+00  0.12972147402E+04  0.12972147402E+04  0.00000000000E+00 0. -1.
         -2   -1    0    0    0  501 -0.00000000000E+00 -0.00000000000E+00 -0.88601029426E+03  0.88601029426E+03  0.00000000000E+00 0.  1.
        -24    2    1    2    0    0  0.38652470756E+03  0.90043658428E+03  0.70699782242E+02  0.98489586659E+03  0.69527095064E+02 0.  0.
    5000000    2    1    2    0    0 -0.38652470756E+03 -0.90043658428E+03  0.34050466373E+03  0.11983291679E+04  0.59988496959E+03 0.  0.
        -24    2    4    4    0    0 -0.24134874642E+03 -0.94214746458E+03  0.26340454726E+03  0.10106663637E+04  0.78571500892E+02 0.  0.
         24    2    4    4    0    0 -0.14517596114E+03  0.41710880301E+02  0.77100116478E+02  0.18766280421E+03  0.80355727195E+02 0.  0.
         11    1    3    3    0    0  0.10661938092E+03  0.32190834129E+03  0.40327576134E+02  0.34149522102E+03  0.00000000000E+00 0. -1.
        -12    1    3    3    0    0  0.27990532664E+03  0.57852824299E+03  0.30372206107E+02  0.64340064557E+03  0.00000000000E+00 0.  1.
         15    1    5    5    0    0 -0.69988656028E+02 -0.26746054706E+03  0.38570596175E+02  0.27914943099E+03  0.17770000000E+01 0. -1.
        -16    1    5    5    0    0 -0.17136009039E+03 -0.67468691753E+03  0.22483395108E+03  0.73151693269E+03  0.00000000000E+00 0.  1.
          2    1    6    6  502    0 -0.26835804298E+02  0.89261659153E+01 -0.16963402559E+02  0.32978687916E+02  0.00000000000E+00 0. -1.
         -1    1    6    6    0  502 -0.11834015685E+03  0.32784714386E+02  0.94063519037E+02  0.15468411629E+03  0.00000000000E+00 0.  1.
<mgrwt>
<rscale>  0 0.10527241E+04</rscale>
<asrwt>0</asrwt>
<pdfrwt beam="1">  1        1 0.19957150E+00 0.10527241E+04</pdfrwt>
<pdfrwt beam="2">  1       -2 0.13630928E+00 0.10527241E+04</pdfrwt>
<totfact> 0.30415758E+00</totfact>
</mgrwt>
</event>
<event>
12    3  0.1336316E-007  0.1164760E+04  0.7818608E-02  0.9144274E-01
          1   -1    0    0  501    0  0.00000000000E+00  0.00000000000E+00  0.22979753387E+04  0.22979753387E+04  0.00000000000E+00 0. -1.
         -2   -1    0    0    0  501 -0.00000000000E+00 -0.00000000000E+00 -0.71865359089E+03  0.71865359089E+03  0.00000000000E+00 0.  1.
        -24    2    1    2    0    0  0.81427101072E+03 -0.82751833746E+03  0.33118574566E+03  0.12095283909E+04  0.73831244168E+02 0.  0.
    5000000    2    1    2    0    0 -0.81427101072E+03  0.82751833746E+03  0.12481360022E+04  0.18071005387E+04  0.59995416430E+03 0.  0.
        -24    2    4    4    0    0 -0.17063702054E+03  0.13857733846E+03 -0.89845671640E+01  0.23359717970E+03  0.78525463419E+02 0.  0.
         24    2    4    4    0    0 -0.64363399018E+03  0.68894099900E+03  0.12571205694E+04  0.15735033590E+04  0.81586037069E+02 0.  0.
         11    1    3    3    0    0  0.15492409137E+03 -0.19874404351E+03  0.81353925400E+02  0.26480017012E+03  0.00000000000E+00 0. -1.
        -12    1    3    3    0    0  0.65934691935E+03 -0.62877429395E+03  0.24983182027E+03  0.94472822082E+03  0.00000000000E+00 0.  1.
         15    1    5    5    0    0 -0.15154845541E+03  0.11287966177E+03  0.20489169842E+02  0.19008344533E+03  0.17770000000E+01 0. -1.
        -16    1    5    5    0    0 -0.19088565124E+02  0.25697676692E+02 -0.29473737006E+02  0.43513734371E+02  0.00000000000E+00 0.  1.
          4    1    6    6  502    0 -0.32121461582E+03  0.29242268923E+03  0.54353758949E+03  0.69578945794E+03  0.00000000000E+00 0. -1.
         -3    1    6    6    0  502 -0.32241937436E+03  0.39651830976E+03  0.71358297986E+03  0.87771390104E+03  0.00000000000E+00 0.  1.
<mgrwt>
<rscale>  0 0.11647600E+04</rscale>
<asrwt>0</asrwt>
<pdfrwt beam="1">  1        1 0.35353466E+00 0.11647600E+04</pdfrwt>
<pdfrwt beam="2">  1       -2 0.11056209E+00 0.11647600E+04</pdfrwt>
<totfact> 0.10501970E+00</totfact>
</mgrwt>
</event>
<event>
12    3  0.1182097E-007  0.4907520E+03  0.7818608E-02  0.1016221E+00
         -2   -1    0    0    0  501 -0.00000000000E+00  0.00000000000E+00  0.11843322654E+03  0.11843322654E+03  0.00000000000E+00 0.  1.
          1   -1    0    0  501    0  0.00000000000E+00 -0.00000000000E+00 -0.30615355511E+04  0.30615355511E+04  0.00000000000E+00 0. -1.
        -24    2    1    2    0    0  0.32459250457E+03 -0.17617932785E+03 -0.17831479409E+04  0.18227432783E+04  0.79856306762E+02 0.  0.
    5000000    2    1    2    0    0 -0.32459250457E+03  0.17617932785E+03 -0.11599543836E+04  0.13572254994E+04  0.60013951245E+03 0.  0.
        -24    2    4    4    0    0  0.78584051344E+02  0.17291691153E+03 -0.11797745038E+03  0.23710100292E+03  0.78882795136E+02 0.  0.
         24    2    4    4    0    0 -0.40317655592E+03  0.32624163197E+01 -0.10419769333E+04  0.11201244964E+04  0.80006121562E+02 0.  0.
         13    1    3    3    0    0  0.22129161000E+03 -0.16043092781E+03 -0.13010932938E+04  0.13294930682E+04  0.00000000000E+00 0. -1.
        -14    1    3    3    0    0  0.10330089457E+03 -0.15748400035E+02 -0.48205464714E+03  0.49325021009E+03  0.00000000000E+00 0.  1.
         15    1    5    5    0    0  0.52630872709E+02  0.69957832725E+02 -0.14344506882E+02  0.88730094829E+02  0.17770000000E+01 0. -1.
        -16    1    5    5    0    0  0.25953178635E+02  0.10295907880E+03 -0.10363294350E+03  0.14837090809E+03  0.00000000000E+00 0.  1.
          4    1    6    6  502    0 -0.23259396734E+03 -0.34742070865E+02 -0.63806585455E+03  0.68002573471E+03  0.00000000000E+00 0. -1.
         -3    1    6    6    0  502 -0.17058258858E+03  0.38004487184E+02 -0.40391107872E+03  0.44009876174E+03  0.00000000000E+00 0.  1.
<mgrwt>
<rscale>  0 0.49075203E+03</rscale>
<asrwt>0</asrwt>
<pdfrwt beam="1">  1        1 0.47100550E+00 0.49075203E+03</pdfrwt>
<pdfrwt beam="2">  1       -2 0.18220495E-01 0.49075203E+03</pdfrwt>
<totfact> 0.13280524E+01</totfact>
</mgrwt>
</event>
<event>
12    3  0.1182097E-007  0.1007508E+04  0.7818608E-02  0.9300349E-01
          3   -1    0    0  501    0  0.00000000000E+00  0.00000000000E+00  0.98196775681E+03  0.98196775681E+03  0.00000000000E+00 0. -1.
         -4   -1    0    0    0  501 -0.00000000000E+00 -0.00000000000E+00 -0.15812012858E+04  0.15812012858E+04  0.00000000000E+00 0.  1.
        -24    2    1    2    0    0  0.41799029561E+03 -0.84277400028E+03  0.43706378377E+03  0.10403846671E+04  0.79947492567E+02 0.  0.
    5000000    2    1    2    0    0 -0.41799029561E+03  0.84277400028E+03 -0.10362973128E+04  0.15227843756E+04  0.59998019239E+03 0.  0.
        -24    2    4    4    0    0 -0.51012369898E+02 -0.50258187581E+02 -0.26226193590E+03  0.28272260450E+03  0.77605417144E+02 0.  0.
         24    2    4    4    0    0 -0.36697792572E+03  0.89303218787E+03 -0.77403537689E+03  0.12400617711E+04  0.80269202791E+02 0.  0.
         13    1    3    3    0    0  0.17312441402E+03 -0.43445510646E+03  0.20272074857E+03  0.50972443944E+03  0.00000000000E+00 0. -1.
        -14    1    3    3    0    0  0.24486588160E+03 -0.40831889382E+03  0.23434303521E+03  0.53066022761E+03  0.00000000000E+00 0.  1.
         15    1    5    5    0    0 -0.70038012429E+02 -0.36609642871E+02 -0.16911662947E+03  0.18667935405E+03  0.17770000000E+01 0. -1.
        -16    1    5    5    0    0  0.19025642532E+02 -0.13648544710E+02 -0.93145306435E+02  0.96043250451E+02  0.00000000000E+00 0.  1.
          2    1    6    6  502    0 -0.27270631095E+03  0.56368799951E+03 -0.50719245180E+03  0.80582695164E+03  0.00000000000E+00 0. -1.
         -1    1    6    6    0  502 -0.94271614765E+02  0.32934418836E+03 -0.26684292509E+03  0.43423481945E+03  0.00000000000E+00 0.  1.
<mgrwt>
<rscale>  0 0.10075078E+04</rscale>
<asrwt>0</asrwt>
<pdfrwt beam="1">  1        3 0.15107197E+00 0.10075078E+04</pdfrwt>
<pdfrwt beam="2">  1       -4 0.24326173E+00 0.10075078E+04</pdfrwt>
<totfact> 0.48808698E-02</totfact>
</mgrwt>
</event>
<event>
12    3  0.1182097E-007  0.5556507E+03  0.7818608E-02  0.1000194E+00
         -2   -1    0    0    0  501 -0.00000000000E+00  0.00000000000E+00  0.18771827410E+04  0.18771827410E+04  0.00000000000E+00 0.  1.
          1   -1    0    0  501    0  0.00000000000E+00 -0.00000000000E+00 -0.18785013496E+03  0.18785013496E+03  0.00000000000E+00 0. -1.
        -24    2    1    2    0    0  0.25435393297E+03  0.35588020680E+03  0.65013830114E+03  0.78781370489E+03  0.81387825767E+02 0.  0.
    5000000    2    1    2    0    0 -0.25435393297E+03 -0.35588020680E+03  0.10391943049E+04  0.12772191711E+04  0.60001446884E+03 0.  0.
        -24    2    4    4    0    0  0.70240092129E+02 -0.33639907677E+03  0.28937000443E+03  0.45609671501E+03  0.78684207990E+02 0.  0.
         24    2    4    4    0    0 -0.32459402510E+03 -0.19481130024E+02  0.74982430046E+03  0.82112245605E+03  0.79150557275E+02 0.  0.
         11    1    3    3    0    0  0.14007619634E+03  0.23300938479E+03  0.45895702774E+03  0.53343815714E+03  0.00000000000E+00 0. -1.
        -12    1    3    3    0    0  0.11427773663E+03  0.12287082201E+03  0.19118127341E+03  0.25437554775E+03  0.00000000000E+00 0.  1.
         15    1    5    5    0    0  0.42552531574E+02 -0.20085838557E+03  0.22142578586E+03  0.30197242486E+03  0.17770000000E+01 0. -1.
        -16    1    5    5    0    0  0.27687560554E+02 -0.13554069120E+03  0.67944218565E+02  0.15412429016E+03  0.00000000000E+00 0.  1.
          4    1    6    6  502    0 -0.28302231635E+03 -0.31296661284E+02  0.58344970960E+03  0.64922621342E+03  0.00000000000E+00 0. -1.
         -3    1    6    6    0  502 -0.41571708746E+02  0.11815531260E+02  0.16637459085E+03  0.17189624263E+03  0.00000000000E+00 0.  1.
<mgrwt>
<rscale>  0 0.55565073E+03</rscale>
<asrwt>0</asrwt>
<pdfrwt beam="1">  1        1 0.28900022E-01 0.55565073E+03</pdfrwt>
<pdfrwt beam="2">  1       -2 0.28879733E+00 0.55565073E+03</pdfrwt>
<totfact> 0.55952499E+00</totfact>
</mgrwt>
</event>
<event>
12    3  0.1182097E-007  0.7156348E+03  0.7818608E-02  0.9690862E-01
          1   -1    0    0  501    0  0.00000000000E+00  0.00000000000E+00  0.27118536877E+04  0.27118536877E+04  0.00000000000E+00 0. -1.
         -2   -1    0    0    0  501 -0.00000000000E+00 -0.00000000000E+00 -0.21534316366E+03  0.21534316366E+03  0.00000000000E+00 0.  1.
        -24    2    1    2    0    0  0.57478894963E+03  0.20778829539E+03  0.14457696506E+04  0.15717108297E+04  0.80416026187E+02 0.  0.
    5000000    2    1    2    0    0 -0.57478894963E+03 -0.20778829539E+03  0.10507408734E+04  0.13554860216E+04  0.59977300663E+03 0.  0.
        -24    2    4    4    0    0 -0.66320273668E+03 -0.13026496578E+03  0.98897113399E+03  0.12004594934E+04  0.78944665434E+02 0.  0.
         24    2    4    4    0    0  0.88413787056E+02 -0.77523329604E+02  0.61769739403E+02  0.15502652821E+03  0.79942850643E+02 0.  0.
         13    1    3    3    0    0  0.22636048024E+03  0.67764666414E+02  0.46686726829E+03  0.52325535184E+03  0.00000000000E+00 0. -1.
        -14    1    3    3    0    0  0.34842846939E+03  0.14002362897E+03  0.97890238231E+03  0.10484554779E+04  0.00000000000E+00 0.  1.
         15    1    5    5    0    0 -0.20382256040E+03 -0.60619177906E+02  0.36613350739E+03  0.42340905024E+03  0.17770000000E+01 0. -1.
        -16    1    5    5    0    0 -0.45938017629E+03 -0.69645787878E+02  0.62283762660E+03  0.77705044318E+03  0.00000000000E+00 0.  1.
          4    1    6    6  502    0  0.36821475573E+02 -0.82512645505E+02  0.39409068930E+02  0.98576023685E+02  0.00000000000E+00 0. -1.
         -3    1    6    6    0  502  0.51592311482E+02  0.49893159011E+01  0.22360670472E+02  0.56450504526E+02  0.00000000000E+00 0.  1.
<mgrwt>
<rscale>  0 0.71563477E+03</rscale>
<asrwt>0</asrwt>
<pdfrwt beam="1">  1        1 0.41720823E+00 0.71563477E+03</pdfrwt>
<pdfrwt beam="2">  1       -2 0.33129719E-01 0.71563477E+03</pdfrwt>
<totfact> 0.76400304E+00</totfact>
</mgrwt>
</event>
<event>
12    3  0.1182097E-007  0.9148619E+03  0.7818608E-02  0.9407192E-01
         -2   -1    0    0    0  501 -0.00000000000E+00  0.00000000000E+00  0.18925599244E+04  0.18925599244E+04  0.00000000000E+00 0.  1.
          1   -1    0    0  501    0  0.00000000000E+00 -0.00000000000E+00 -0.77189312292E+03  0.77189312292E+03  0.00000000000E+00 0. -1.
        -24    2    1    2    0    0 -0.70764154324E+03  0.55953574954E+03 -0.22874589200E+03  0.93394028299E+03  0.77993335366E+02 0.  0.
    5000000    2    1    2    0    0  0.70764154324E+03 -0.55953574954E+03  0.13494126935E+04  0.17305127644E+04  0.59993583116E+03 0.  0.
        -24    2    4    4    0    0  0.20920519712E+03 -0.67065494225E+02  0.32889467877E+02  0.23698067578E+03  0.82544100825E+02 0.  0.
         24    2    4    4    0    0  0.49843634612E+03 -0.49247025531E+03  0.13165232256E+04  0.14935320886E+04  0.80243083794E+02 0.  0.
         11    1    3    3    0    0 -0.51954017104E+03  0.42923526817E+03 -0.20210746633E+03  0.70357112840E+03  0.00000000000E+00 0. -1.
        -12    1    3    3    0    0 -0.18810137219E+03  0.13030048137E+03 -0.26638425668E+02  0.23036915459E+03  0.00000000000E+00 0.  1.
         15    1    5    5    0    0  0.17537951623E+03 -0.68725908520E+02  0.55358005257E+02  0.19633871674E+03  0.17770000000E+01 0. -1.
        -16    1    5    5    0    0  0.33825680881E+02  0.16604142944E+01 -0.22468537380E+02  0.40641959041E+02  0.00000000000E+00 0.  1.
          2    1    6    6  502    0  0.31252681522E+03 -0.25631626545E+03  0.72639544163E+03  0.83127695492E+03  0.00000000000E+00 0. -1.
         -1    1    6    6    0  502  0.18590953090E+03 -0.23615398986E+03  0.59012778401E+03  0.66225513367E+03  0.00000000000E+00 0.  1.
<mgrwt>
<rscale>  0 0.91486195E+03</rscale>
<asrwt>0</asrwt>
<pdfrwt beam="1">  1        1 0.11875279E+00 0.91486195E+03</pdfrwt>
<pdfrwt beam="2">  1       -2 0.29116306E+00 0.91486195E+03</pdfrwt>
<totfact> 0.75303081E-01</totfact>
</mgrwt>
</event>
<event>
12    3  0.1182097E-007  0.3373741E+03  0.7818608E-02  0.1067920E+00
         -2   -1    0    0    0  501 -0.00000000000E+00  0.00000000000E+00  0.78744982115E+03  0.78744982115E+03  0.00000000000E+00 0.  1.
          1   -1    0    0  501    0  0.00000000000E+00 -0.00000000000E+00 -0.53524007193E+03  0.53524007193E+03  0.00000000000E+00 0. -1.
        -24    2    1    2    0    0 -0.28400747237E+03  0.12614727763E+03  0.50743787663E+03  0.60042000124E+03  0.80234651108E+02 0.  0.
    5000000    2    1    2    0    0  0.28400747237E+03 -0.12614727763E+03 -0.25522812741E+03  0.72226989183E+03  0.59996584870E+03 0.  0.
        -24    2    4    4    0    0  0.85160799450E+02 -0.17162072777E+02 -0.41591363569E+03  0.43223610022E+03  0.79353610339E+02 0.  0.
         24    2    4    4    0    0  0.19884667292E+03 -0.10898520485E+03  0.16068550828E+03  0.29003379161E+03  0.82957781436E+02 0.  0.
         11    1    3    3    0    0 -0.77862020278E+02  0.81031845866E+01  0.83454252989E+02  0.11442363455E+03  0.00000000000E+00 0. -1.
        -12    1    3    3    0    0 -0.20614545209E+03  0.11804409304E+03  0.42398362364E+03  0.48599636669E+03  0.00000000000E+00 0.  1.
         15    1    5    5    0    0  0.77898675414E+02  0.19455090451E+02 -0.28032419083E+03  0.29160163557E+03  0.17770000000E+01 0. -1.
        -16    1    5    5    0    0  0.72621240360E+01 -0.36617163228E+02 -0.13558944486E+03  0.14063446465E+03  0.00000000000E+00 0.  1.
          2    1    6    6  502    0  0.11056193840E+03 -0.13752171467E+02  0.79789867045E+02  0.13703826956E+03  0.00000000000E+00 0. -1.
         -1    1    6    6    0  502  0.88284734523E+02 -0.95233033385E+02  0.80895641232E+02  0.15299552205E+03  0.00000000000E+00 0.  1.
<mgrwt>
<rscale>  0 0.33737412E+03</rscale>
<asrwt>0</asrwt>
<pdfrwt beam="1">  1        1 0.82344626E-01 0.33737412E+03</pdfrwt>
<pdfrwt beam="2">  1       -2 0.12114613E+00 0.33737412E+03</pdfrwt>
<totfact> 0.19645961E+01</totfact>
</mgrwt>
</event>
<event>
12    3  0.1182097E-007  0.5944009E+03  0.7818608E-02  0.9917091E-01
         -2   -1    0    0    0  501 -0.00000000000E+00  0.00000000000E+00  0.11693917823E+04  0.11693917823E+04  0.00000000000E+00 0.  1.
          1   -1    0    0  501    0  0.00000000000E+00 -0.00000000000E+00 -0.38615774195E+03  0.38615774195E+03  0.00000000000E+00 0. -1.
        -24    2    1    2    0    0 -0.39488287659E+03 -0.26499743860E+03  0.59741739819E+03  0.76774314278E+03  0.79786320454E+02 0.  0.
    5000000    2    1    2    0    0  0.39488287659E+03  0.26499743860E+03  0.18581664215E+03  0.78780638147E+03  0.59996245007E+03 0.  0.
        -24    2    4    4    0    0  0.30410553447E+03 -0.10643403958E+03  0.21479500576E+03  0.39571193669E+03  0.81502524297E+02 0.  0.
         24    2    4    4    0    0  0.90777342122E+02  0.37143147818E+03 -0.28978363611E+02  0.39209444478E+03  0.81831774059E+02 0.  0.
         13    1    3    3    0    0 -0.32485147893E+02 -0.21327207768E+02  0.19771961076E+02  0.43601204910E+02  0.00000000000E+00 0. -1.
        -14    1    3    3    0    0 -0.36239772870E+03 -0.24367023083E+03  0.57764543712E+03  0.72414193787E+03  0.00000000000E+00 0.  1.
         15    1    5    5    0    0  0.17179787013E+03 -0.20556160421E+02  0.93102331445E+02  0.19648986173E+03  0.17770000000E+01 0. -1.
        -16    1    5    5    0    0  0.13230766433E+03 -0.85877879158E+02  0.12169267431E+03  0.19922207496E+03  0.00000000000E+00 0.  1.
          4    1    6    6  502    0  0.27471048147E+02  0.13081113550E+03  0.28646350133E+02  0.13669976238E+03  0.00000000000E+00 0. -1.
         -3    1    6    6    0  502  0.63306293976E+02  0.24062034267E+03 -0.57624713744E+02  0.25539468240E+03  0.00000000000E+00 0.  1.
<mgrwt>
<rscale>  0 0.59440086E+03</rscale>
<asrwt>0</asrwt>
<pdfrwt beam="1">  1        1 0.59408884E-01 0.59440086E+03</pdfrwt>
<pdfrwt beam="2">  1       -2 0.17990643E+00 0.59440086E+03</pdfrwt>
<totfact> 0.10369496E+01</totfact>
</mgrwt>
</event>
<event>
12    3  0.1601818E-007  0.1067875E+04  0.7818608E-02  0.9237082E-01
          1   -1    0    0  501    0  0.00000000000E+00  0.00000000000E+00  0.12302338977E+04  0.12302338977E+04  0.00000000000E+00 0. -1.
         -2   -1    0    0    0  501 -0.00000000000E+00 -0.00000000000E+00 -0.11309469489E+04  0.11309469489E+04  0.00000000000E+00 0.  1.
        -24    2    1    2    0    0  0.35319693685E+03 -0.93927938209E+03  0.50156797826E+03  0.11247111624E+04  0.80068272738E+02 0.  0.
    5000000    2    1    2    0    0 -0.35319693685E+03  0.93927938209E+03 -0.40228102941E+03  0.12364696841E+04  0.60002784876E+03 0.  0.
        -24    2    4    4    0    0  0.80067385645E+02  0.50773969246E+03 -0.40109859043E+02  0.52150148425E+03  0.78387599362E+02 0.  0.
         24    2    4    4    0    0 -0.43326432249E+03  0.43153968962E+03 -0.36217117037E+03  0.71496819986E+03  0.77891548353E+02 0.  0.
         11    1    3    3    0    0  0.14898061143E+03 -0.41156118665E+03  0.26290712506E+03  0.51058592749E+03  0.00000000000E+00 0. -1.
        -12    1    3    3    0    0  0.20421632542E+03 -0.52771819544E+03  0.23866085319E+03  0.61412523496E+03  0.00000000000E+00 0.  1.
         15    1    5    5    0    0  0.31925061972E+02  0.73138482562E+02  0.13541331738E+02  0.80962785326E+02  0.17770000000E+01 0. -1.
        -16    1    5    5    0    0  0.48142323673E+02  0.43460120990E+03 -0.53651190781E+02  0.44053869892E+03  0.00000000000E+00 0.  1.
          2    1    6    6  502    0 -0.23535104276E+03  0.18748172095E+03 -0.20067473216E+03  0.36167645368E+03  0.00000000000E+00 0. -1.
         -1    1    6    6    0  502 -0.19791327973E+03  0.24405796867E+03 -0.16149643820E+03  0.35329174618E+03  0.00000000000E+00 0.  1.
<mgrwt>
<rscale>  0 0.10678747E+04</rscale>
<asrwt>0</asrwt>
<pdfrwt beam="1">  1        1 0.18926675E+00 0.10678747E+04</pdfrwt>
<pdfrwt beam="2">  1       -2 0.17399184E+00 0.10678747E+04</pdfrwt>
<totfact> 0.17585244E+00</totfact>
</mgrwt>
</event>
<event>
12    3  0.1182097E-007  0.1222264E+04  0.7818608E-02  0.9093589E-01
         -4   -1    0    0    0  501 -0.00000000000E+00  0.00000000000E+00  0.52716434345E+03  0.52716434345E+03  0.00000000000E+00 0.  1.
          1   -1    0    0  501    0  0.00000000000E+00 -0.00000000000E+00 -0.39335113683E+04  0.39335113683E+04  0.00000000000E+00 0. -1.
        -24    2    1    2    0    0  0.71738471727E+03  0.95197664573E+03 -0.56514448406E+03  0.13216568919E+04  0.80549894956E+02 0.  0.
    5000000    2    1    2    0    0 -0.71738471727E+03 -0.95197664573E+03 -0.28412025408E+04  0.31390188198E+04  0.60008908231E+03 0.  0.
        -24    2    4    4    0    0 -0.29116938005E+03 -0.11805781764E+03 -0.35364761244E+03  0.47983582856E+03  0.80364994883E+02 0.  0.
         24    2    4    4    0    0 -0.42621533722E+03 -0.83391882809E+03 -0.24875549284E+04  0.26591829913E+04  0.79022362800E+02 0.  0.
         11    1    3    3    0    0  0.90745949768E+02  0.14889014412E+03 -0.58021402886E+02  0.18376502825E+03  0.00000000000E+00 0. -1.
        -12    1    3    3    0    0  0.62663876750E+03  0.80308650161E+03 -0.50712308117E+03  0.11378918637E+04  0.00000000000E+00 0.  1.
         15    1    5    5    0    0 -0.24864055538E+03 -0.10501829886E+03 -0.33829303093E+03  0.43277742707E+03  0.17770000000E+01 0. -1.
        -16    1    5    5    0    0 -0.42528824665E+02 -0.13039518777E+02 -0.15354581507E+02  0.47058401488E+02  0.00000000000E+00 0.  1.
          4    1    6    6  502    0 -0.42431999836E+03 -0.83333369919E+03 -0.24630551182E+04  0.26346030120E+04  0.00000000000E+00 0. -1.
         -3    1    6    6    0  502 -0.18953388567E+01 -0.58512890235E+00 -0.24499810156E+02  0.24579979310E+02  0.00000000000E+00 0.  1.
<mgrwt>
<rscale>  0 0.12222639E+04</rscale>
<asrwt>0</asrwt>
<pdfrwt beam="1">  1        1 0.60515560E+00 0.12222639E+04</pdfrwt>
<pdfrwt beam="2">  1       -4 0.81102206E-01 0.12222639E+04</pdfrwt>
<totfact> 0.72133834E-02</totfact>
</mgrwt>
</event>
<event>
12    3  0.1182097E-007  0.2042612E+04  0.7818608E-02  0.8586953E-01
          1   -1    0    0  501    0  0.00000000000E+00  0.00000000000E+00  0.11200525803E+04  0.11200525803E+04  0.00000000000E+00 0. -1.
         -2   -1    0    0    0  501 -0.00000000000E+00 -0.00000000000E+00 -0.38280231695E+04  0.38280231695E+04  0.00000000000E+00 0.  1.
        -24    2    1    2    0    0 -0.11517327221E+04  0.16368733338E+04 -0.94851599407E+03  0.22164593618E+04  0.84657768220E+02 0.  0.
    5000000    2    1    2    0    0  0.11517327221E+04 -0.16368733338E+04 -0.17594545951E+04  0.27316163879E+04  0.60017084615E+03 0.  0.
        -24    2    4    4    0    0 -0.34791163883E+01 -0.33824154806E+03 -0.34069330734E+03  0.48659387978E+03  0.79260488771E+02 0.  0.
         24    2    4    4    0    0  0.11552118385E+04 -0.12986317857E+04 -0.14187612877E+04  0.22450225081E+04  0.79268933338E+02 0.  0.
         11    1    3    3    0    0 -0.74626528915E+03  0.10186491829E+04 -0.63457104963E+03  0.14132368721E+04  0.00000000000E+00 0. -1.
        -12    1    3    3    0    0 -0.40546743297E+03  0.61822415082E+03 -0.31394494444E+03  0.80322248972E+03  0.00000000000E+00 0.  1.
         15    1    5    5    0    0 -0.18071607500E+02 -0.32859657833E+02 -0.16591935237E+02  0.41046195371E+02  0.17770000000E+01 0. -1.
        -16    1    5    5    0    0  0.14592491112E+02 -0.30538189023E+03 -0.32410137211E+03  0.44554768440E+03  0.00000000000E+00 0.  1.
          4    1    6    6  502    0  0.53747537089E+03 -0.54552211596E+03 -0.63121052640E+03  0.99242172586E+03  0.00000000000E+00 0. -1.
         -3    1    6    6    0  502  0.61773646761E+03 -0.75310966974E+03 -0.78755076135E+03  0.12526007823E+04  0.00000000000E+00 0.  1.
<mgrwt>
<rscale>  0 0.20426123E+04</rscale>
<asrwt>0</asrwt>
<pdfrwt beam="1">  1        1 0.17231578E+00 0.20426123E+04</pdfrwt>
<pdfrwt beam="2">  1       -2 0.58892664E+00 0.20426123E+04</pdfrwt>
<totfact> 0.52610109E-03</totfact>
</mgrwt>
</event>
<event>
12    3  0.1182097E-007  0.1594844E+04  0.7818608E-02  0.8823722E-01
          1   -1    0    0  501    0  0.00000000000E+00  0.00000000000E+00  0.28179828401E+04  0.28179828401E+04  0.00000000000E+00 0. -1.
         -2   -1    0    0    0  501 -0.00000000000E+00 -0.00000000000E+00 -0.13434256762E+04  0.13434256762E+04  0.00000000000E+00 0.  1.
        -24    2    1    2    0    0 -0.55637937467E+03  0.14863188221E+04  0.18344090931E+04  0.24269729706E+04  0.80246059650E+02 0.  0.
    5000000    2    1    2    0    0  0.55637937467E+03 -0.14863188221E+04 -0.35985192913E+03  0.17344355456E+04  0.60005966513E+03 0.  0.
        -24    2    4    4    0    0  0.58147521577E+02 -0.22128711894E+03  0.14350840289E+03  0.28243722032E+03  0.82625652486E+02 0.  0.
         24    2    4    4    0    0  0.49823185309E+03 -0.12650317031E+04 -0.50336033202E+03  0.14519983253E+04  0.79920732896E+02 0.  0.
         13    1    3    3    0    0 -0.18803118799E+03  0.46114640163E+03  0.62869379198E+03  0.80203965953E+03  0.00000000000E+00 0. -1.
        -14    1    3    3    0    0 -0.36834818668E+03  0.10251724204E+04  0.12057153011E+04  0.16249333111E+04  0.00000000000E+00 0.  1.
         15    1    5    5    0    0  0.61369117155E+02 -0.82678895620E+02  0.77471825162E+02  0.12886818748E+03  0.17770000000E+01 0. -1.
        -16    1    5    5    0    0 -0.32215955782E+01 -0.13860822332E+03  0.66036577725E+02  0.15356903284E+03  0.00000000000E+00 0.  1.
          4    1    6    6  502    0  0.14341798714E+03 -0.43481636034E+03 -0.14022129438E+03  0.47884861663E+03  0.00000000000E+00 0. -1.
         -3    1    6    6    0  502  0.35481386595E+03 -0.83021534278E+03 -0.36313903764E+03  0.97314970869E+03  0.00000000000E+00 0.  1.
<mgrwt>
<rscale>  0 0.15948441E+04</rscale>
<asrwt>0</asrwt>
<pdfrwt beam="1">  1        1 0.43353582E+00 0.15948441E+04</pdfrwt>
<pdfrwt beam="2">  1       -2 0.20668087E+00 0.15948441E+04</pdfrwt>
<totfact> 0.79535774E-02</totfact>
</mgrwt>
</event>
<event>
12    3  0.1182097E-007  0.1088002E+04  0.7818608E-02  0.9216966E-01
          1   -1    0    0  501    0  0.00000000000E+00  0.00000000000E+00  0.70608199164E+03  0.70608199164E+03  0.00000000000E+00 0. -1.
         -2   -1    0    0    0  501 -0.00000000000E+00 -0.00000000000E+00 -0.18288180784E+04  0.18288180784E+04  0.00000000000E+00 0.  1.
        -24    2    1    2    0    0 -0.28056008376E+03  0.97155725886E+03 -0.18565280479E+03  0.10313690586E+04  0.81349266983E+02 0.  0.
    5000000    2    1    2    0    0  0.28056008376E+03 -0.97155725886E+03 -0.93708328194E+03  0.15035310114E+04  0.59986911671E+03 0.  0.
        -24    2    4    4    0    0 -0.12380620439E+03 -0.59844912683E+03 -0.46797935663E+03  0.77617517597E+03  0.99869374202E+02 0.  0.
         24    2    4    4    0    0  0.40436628815E+03 -0.37310813203E+03 -0.46910392530E+03  0.72735583545E+03  0.79159620101E+02 0.  0.
         11    1    3    3    0    0 -0.21480431722E+03  0.71147844216E+03 -0.10077268341E+03  0.74999840138E+03  0.00000000000E+00 0. -1.
        -12    1    3    3    0    0 -0.65755766537E+02  0.26007881670E+03 -0.84880121380E+02  0.28137065721E+03  0.00000000000E+00 0.  1.
         15    1    5    5    0    0 -0.14566813591E+02 -0.10818602076E+03 -0.13464517190E+03  0.17334614847E+03  0.17770000000E+01 0. -1.
        -16    1    5    5    0    0 -0.10923939080E+03 -0.49026310607E+03 -0.33333418473E+03  0.60282902750E+03  0.00000000000E+00 0.  1.
          4    1    6    6  502    0  0.18239985123E+03 -0.13065383070E+03 -0.22646391648E+03  0.31878838541E+03  0.00000000000E+00 0. -1.
         -3    1    6    6    0  502  0.22196643692E+03 -0.24245430133E+03 -0.24264000882E+03  0.40856745004E+03  0.00000000000E+00 0.  1.
<mgrwt>
<rscale>  0 0.10880016E+04</rscale>
<asrwt>0</asrwt>
<pdfrwt beam="1">  1        1 0.10862800E+00 0.10880016E+04</pdfrwt>
<pdfrwt beam="2">  1       -2 0.28135662E+00 0.10880016E+04</pdfrwt>
<totfact> 0.96866157E-01</totfact>
</mgrwt>
</event>
<event>
12    3  0.1182097E-007  0.1037453E+04  0.7818608E-02  0.9268395E-01
         -2   -1    0    0    0  501 -0.00000000000E+00  0.00000000000E+00  0.53750502891E+03  0.53750502891E+03  0.00000000000E+00 0.  1.
          1   -1    0    0  501    0  0.00000000000E+00 -0.00000000000E+00 -0.21660122613E+04  0.21660122613E+04  0.00000000000E+00 0. -1.
        -24    2    1    2    0    0  0.39428425307E+03  0.91200877045E+03 -0.72409695265E+03  0.12320658920E+04  0.80311243726E+02 0.  0.
    5000000    2    1    2    0    0 -0.39428425307E+03 -0.91200877045E+03 -0.90441027977E+03  0.14714513982E+04  0.59999266123E+03 0.  0.
        -24    2    4    4    0    0 -0.81565291188E+02 -0.67351202814E+03 -0.29953074744E+03  0.74553998929E+03  0.76418964883E+02 0.  0.
         24    2    4    4    0    0 -0.31271896188E+03 -0.23849674231E+03 -0.60487953233E+03  0.72591140891E+03  0.79964240410E+02 0.  0.
         13    1    3    3    0    0  0.32896518090E+03  0.67362786354E+03 -0.54494757815E+03  0.92680119320E+03  0.00000000000E+00 0. -1.
        -14    1    3    3    0    0  0.65319072164E+02  0.23838090691E+03 -0.17914937450E+03  0.30526469883E+03  0.00000000000E+00 0.  1.
         15    1    5    5    0    0 -0.48000882473E+02 -0.48445958603E+03 -0.24986443270E+03  0.54721162970E+03  0.17770000000E+01 0. -1.
        -16    1    5    5    0    0 -0.33564408715E+02 -0.18905244211E+03 -0.49666314735E+02  0.19832835960E+03  0.00000000000E+00 0.  1.
          4    1    6    6  502    0 -0.31989138573E+02 -0.55702727764E+02 -0.12684491641E+03  0.14218203714E+03  0.00000000000E+00 0. -1.
         -3    1    6    6    0  502 -0.28072982331E+03 -0.18279401454E+03 -0.47803461592E+03  0.58372937177E+03  0.00000000000E+00 0.  1.
<mgrwt>
<rscale>  0 0.10374526E+04</rscale>
<asrwt>0</asrwt>
<pdfrwt beam="1">  1        1 0.33323266E+00 0.10374526E+04</pdfrwt>
<pdfrwt beam="2">  1       -2 0.82693081E-01 0.10374526E+04</pdfrwt>
<totfact> 0.25995163E+00</totfact>
</mgrwt>
</event>
<event>
12    3  0.1182097E-007  0.4809322E+03  0.7818608E-02  0.1018879E+00
          1   -1    0    0  501    0  0.00000000000E+00  0.00000000000E+00  0.24613579864E+04  0.24613579864E+04  0.00000000000E+00 0. -1.
         -4   -1    0    0    0  501 -0.00000000000E+00 -0.00000000000E+00 -0.12603343286E+03  0.12603343286E+03  0.00000000000E+00 0.  1.
        -24    2    1    2    0    0 -0.35162029056E+03 -0.11864076009E+03  0.55255950087E+03  0.67012250145E+03  0.77651183256E+02 0.  0.
    5000000    2    1    2    0    0  0.35162029056E+03  0.11864076009E+03  0.17827650527E+04  0.19172689179E+04  0.59996367512E+03 0.  0.
        -24    2    4    4    0    0  0.45028794668E+03  0.94313221780E+02  0.16986026291E+04  0.17616105563E+04  0.79791237406E+02 0.  0.
         24    2    4    4    0    0 -0.98667656117E+02  0.24327538312E+02  0.84162423579E+02  0.15565836156E+03  0.82577699763E+02 0.  0.
         13    1    3    3    0    0 -0.16865249784E+03 -0.18399340109E+02  0.22560493055E+03  0.28227608016E+03  0.00000000000E+00 0. -1.
        -14    1    3    3    0    0 -0.18296779272E+03 -0.10024141998E+03  0.32695457031E+03  0.38784642128E+03  0.00000000000E+00 0.  1.
         15    1    5    5    0    0  0.14732719540E+03  0.44350702980E+02  0.44123103245E+03  0.46729034773E+03  0.17770000000E+01 0. -1.
        -16    1    5    5    0    0  0.30296075127E+03  0.49962518800E+02  0.12573715967E+04  0.12943202086E+04  0.00000000000E+00 0.  1.
          2    1    6    6  502    0  0.59478597013E+01 -0.10780839228E+02 -0.54892363644E+01  0.13480921532E+02  0.00000000000E+00 0. -1.
         -1    1    6    6    0  502 -0.10461551582E+03  0.35108377540E+02  0.89651659944E+02  0.14217744003E+03  0.00000000000E+00 0.  1.
<mgrwt>
<rscale>  0 0.48093216E+03</rscale>
<asrwt>0</asrwt>
<pdfrwt beam="1">  1        1 0.37867042E+00 0.48093216E+03</pdfrwt>
<pdfrwt beam="2">  1       -4 0.19389761E-01 0.48093216E+03</pdfrwt>
<totfact> 0.18587534E+01</totfact>
</mgrwt>
</event>
<event>
12    3  0.2283374E-007  0.1328077E+04  0.7818608E-02  0.9007591E-01
          1   -1    0    0  501    0  0.00000000000E+00  0.00000000000E+00  0.14957289484E+04  0.14957289484E+04  0.00000000000E+00 0. -1.
         -2   -1    0    0    0  501 -0.00000000000E+00 -0.00000000000E+00 -0.15377790494E+04  0.15377790494E+04  0.00000000000E+00 0.  1.
        -24    2    1    2    0    0 -0.80102500363E+03 -0.99801847728E+03 -0.71506321682E+03  0.14680598647E+04  0.78755474232E+02 0.  0.
    5000000    2    1    2    0    0  0.80102500363E+03  0.99801847728E+03  0.67301311585E+03  0.15654481331E+04  0.59999938833E+03 0.  0.
        -24    2    4    4    0    0  0.59582601974E+03  0.34771400062E+03  0.17284508032E+03  0.71565886026E+03  0.79865577354E+02 0.  0.
         24    2    4    4    0    0  0.20519898388E+03  0.65030447666E+03  0.50016803553E+03  0.84978927288E+03  0.83493767287E+02 0.  0.
         13    1    3    3    0    0 -0.35215663898E+03 -0.49798861932E+03 -0.35528208084E+03  0.70585573619E+03  0.00000000000E+00 0. -1.
        -14    1    3    3    0    0 -0.44886836464E+03 -0.50002985796E+03 -0.35978113599E+03  0.76220412846E+03  0.00000000000E+00 0.  1.
         15    1    5    5    0    0  0.13888526971E+03  0.78455240153E+02  0.58989541273E+01  0.15963175824E+03  0.17770000000E+01 0. -1.
        -16    1    5    5    0    0  0.45694075003E+03  0.26925876046E+03  0.16694612619E+03  0.55602710202E+03  0.00000000000E+00 0.  1.
          2    1    6    6  502    0  0.13053410243E+02  0.11318191364E+03  0.56855739896E+02  0.12733071999E+03  0.00000000000E+00 0. -1.
         -1    1    6    6    0  502  0.19214557364E+03  0.53712256302E+03  0.44331229563E+03  0.72245855288E+03  0.00000000000E+00 0.  1.
<mgrwt>
<rscale>  0 0.13280773E+04</rscale>
<asrwt>0</asrwt>
<pdfrwt beam="1">  1        1 0.23011215E+00 0.13280773E+04</pdfrwt>
<pdfrwt beam="2">  1       -2 0.23658139E+00 0.13280773E+04</pdfrwt>
<totfact> 0.43131611E-01</totfact>
</mgrwt>
</event>
<event>
12    3  0.1182097E-007  0.1453963E+04  0.7818608E-02  0.8915658E-01
         -2   -1    0    0    0  501 -0.00000000000E+00  0.00000000000E+00  0.19314444197E+04  0.19314444197E+04  0.00000000000E+00 0.  1.
          1   -1    0    0  501    0  0.00000000000E+00 -0.00000000000E+00 -0.15996977251E+04  0.15996977251E+04  0.00000000000E+00 0. -1.
        -24    2    1    2    0    0 -0.80643199334E+03 -0.11355374146E+04 -0.82781379326E+03  0.16221401220E+04  0.79278744280E+02 0.  0.
    5000000    2    1    2    0    0  0.80643199334E+03  0.11355374146E+04  0.11595604878E+04  0.19090020227E+04  0.59994201225E+03 0.  0.
        -24    2    4    4    0    0  0.88771743594E+03  0.98365771973E+03  0.10405370137E+04  0.16864122741E+04  0.75128728150E+02 0.  0.
         24    2    4    4    0    0 -0.81285442600E+02  0.15187969491E+03  0.11902347405E+03  0.22258974859E+03  0.75530417040E+02 0.  0.
         11    1    3    3    0    0 -0.63916696161E+03 -0.84370272767E+03 -0.61734909850E+03  0.12253524419E+04  0.00000000000E+00 0. -1.
        -12    1    3    3    0    0 -0.16726503173E+03 -0.29183468697E+03 -0.21046469476E+03  0.39678768013E+03  0.00000000000E+00 0.  1.
         15    1    5    5    0    0  0.27498138252E+03  0.29002308840E+03  0.27246075199E+03  0.48370049787E+03  0.17770000000E+01 0. -1.
        -16    1    5    5    0    0  0.61273605342E+03  0.69363463133E+03  0.76807626175E+03  0.12027117763E+04  0.00000000000E+00 0.  1.
          2    1    6    6  502    0 -0.31607909858E+02  0.12970585697E+03  0.89068045218E+02  0.16048609278E+03  0.00000000000E+00 0. -1.
         -1    1    6    6    0  502 -0.49677532742E+02  0.22173837944E+02  0.29955428833E+02  0.62103655811E+02  0.00000000000E+00 0.  1.
<mgrwt>
<rscale>  0 0.14539627E+04</rscale>
<asrwt>0</asrwt>
<pdfrwt beam="1">  1        1 0.24610734E+00 0.14539627E+04</pdfrwt>
<pdfrwt beam="2">  1       -2 0.29714530E+00 0.14539627E+04</pdfrwt>
<totfact> 0.15342620E-01</totfact>
</mgrwt>
</event>
<event>
12    3  0.1182097E-007  0.6073738E+03  0.7818608E-02  0.9890225E-01
         -2   -1    0    0    0  501 -0.00000000000E+00  0.00000000000E+00  0.23893921669E+03  0.23893921669E+03  0.00000000000E+00 0.  1.
          1   -1    0    0  501    0  0.00000000000E+00 -0.00000000000E+00 -0.25555351630E+04  0.25555351630E+04  0.00000000000E+00 0. -1.
        -24    2    1    2    0    0 -0.46923926104E+03 -0.29023055814E+02 -0.15297072802E+03  0.50047582019E+03  0.77770052649E+02 0.  0.
    5000000    2    1    2    0    0  0.46923926104E+03  0.29023055814E+02 -0.21636252183E+04  0.22939985596E+04  0.60010622720E+03 0.  0.
        -24    2    4    4    0    0  0.49374934743E+03  0.22375381823E+03 -0.16539911611E+04  0.17423403785E+04  0.78797487801E+02 0.  0.
         24    2    4    4    0    0 -0.24510086392E+02 -0.19473076242E+03 -0.50963405721E+03  0.55165818109E+03  0.77968341806E+02 0.  0.
         13    1    3    3    0    0 -0.15767384092E+03  0.17042002436E+01 -0.15160176991E+02  0.15841014922E+03  0.00000000000E+00 0. -1.
        -14    1    3    3    0    0 -0.31156542012E+03 -0.30727256058E+02 -0.13781055103E+03  0.34206567097E+03  0.00000000000E+00 0.  1.
         15    1    5    5    0    0  0.87061123738E+02  0.71949367396E+02 -0.30649323575E+03  0.32664600414E+03  0.17770000000E+01 0. -1.
        -16    1    5    5    0    0  0.40668822370E+03  0.15180445083E+03 -0.13474979254E+04  0.14156943743E+04  0.00000000000E+00 0.  1.
          2    1    6    6  502    0 -0.15038572472E+02 -0.16603286930E+03 -0.48440716150E+03  0.51229227055E+03  0.00000000000E+00 0. -1.
         -1    1    6    6    0  502 -0.94715139207E+01 -0.28697893119E+02 -0.25226895712E+02  0.39365910541E+02  0.00000000000E+00 0.  1.
<mgrwt>
<rscale>  0 0.60737384E+03</rscale>
<asrwt>0</asrwt>
<pdfrwt beam="1">  1        1 0.39315925E+00 0.60737384E+03</pdfrwt>
<pdfrwt beam="2">  1       -2 0.36759880E-01 0.60737384E+03</pdfrwt>
<totfact> 0.81977038E+00</totfact>
</mgrwt>
</event>
<event>
12    3  0.1182097E-007  0.1119348E+04  0.7818608E-02  0.9186536E-01
         -2   -1    0    0    0  501 -0.00000000000E+00  0.00000000000E+00  0.68617429929E+03  0.68617429929E+03  0.00000000000E+00 0.  1.
          1   -1    0    0  501    0  0.00000000000E+00 -0.00000000000E+00 -0.29814265997E+04  0.29814265997E+04  0.00000000000E+00 0. -1.
        -24    2    1    2    0    0  0.58317376703E+03 -0.92801329600E+03 -0.52839166353E+02  0.11005654523E+04  0.84569599956E+02 0.  0.
    5000000    2    1    2    0    0 -0.58317376703E+03  0.92801329600E+03 -0.22424131340E+04  0.25670354467E+04  0.59996166587E+03 0.  0.
        -24    2    4    4    0    0 -0.49731024619E+02  0.31584143196E+03 -0.24904498830E+03  0.41314186011E+03  0.80211005619E+02 0.  0.
         24    2    4    4    0    0 -0.53344274241E+03  0.61217186404E+03 -0.19933681457E+04  0.21538935865E+04  0.80159011532E+02 0.  0.
         13    1    3    3    0    0  0.32483628329E+03 -0.57905691405E+03 -0.70792354477E+01  0.66398466566E+03  0.00000000000E+00 0. -1.
        -14    1    3    3    0    0  0.25833748374E+03 -0.34895638195E+03 -0.45759930906E+02  0.43658078666E+03  0.00000000000E+00 0.  1.
         15    1    5    5    0    0  0.33221274418E+01  0.18009541839E+03 -0.16830867388E+03  0.24652862651E+03  0.17770000000E+01 0. -1.
        -16    1    5    5    0    0 -0.53053152061E+02  0.13574601357E+03 -0.80736314420E+02  0.16661323360E+03  0.00000000000E+00 0.  1.
          4    1    6    6  502    0 -0.38368695647E+03  0.48357716303E+03 -0.15596365021E+04  0.16773576160E+04  0.00000000000E+00 0. -1.
         -3    1    6    6    0  502 -0.14975578594E+03  0.12859470101E+03 -0.43373164360E+03  0.47653597053E+03  0.00000000000E+00 0.  1.
<mgrwt>
<rscale>  0 0.11193485E+04</rscale>
<asrwt>0</asrwt>
<pdfrwt beam="1">  1        1 0.45868101E+00 0.11193485E+04</pdfrwt>
<pdfrwt beam="2">  1       -2 0.10556528E+00 0.11193485E+04</pdfrwt>
<totfact> 0.39392980E-01</totfact>
</mgrwt>
</event>
<event>
12    3  0.1182097E-007  0.1749039E+04  0.7818608E-02  0.8733879E-01
         -2   -1    0    0    0  501 -0.00000000000E+00  0.00000000000E+00  0.24759616282E+04  0.24759616282E+04  0.00000000000E+00 0.  1.
          1   -1    0    0  501    0  0.00000000000E+00 -0.00000000000E+00 -0.13830624952E+04  0.13830624952E+04  0.00000000000E+00 0. -1.
        -24    2    1    2    0    0 -0.16423019901E+04  0.49325564179E+03 -0.41401258657E+02  0.17172355626E+04  0.82018036797E+02 0.  0.
    5000000    2    1    2    0    0  0.16423019901E+04 -0.49325564179E+03  0.11343003916E+04  0.21417885608E+04  0.60013657300E+03 0.  0.
        -24    2    4    4    0    0  0.41219864772E+03  0.85011768071E+02  0.12312424512E+03  0.44588413656E+03  0.80736346283E+02 0.  0.
         24    2    4    4    0    0  0.12301033424E+04 -0.57826740986E+03  0.10111761465E+04  0.16959044243E+04  0.77892149332E+02 0.  0.
         13    1    3    3    0    0 -0.13055257399E+04  0.36908449704E+03 -0.76781548742E+01  0.13567165428E+04  0.00000000000E+00 0. -1.
        -14    1    3    3    0    0 -0.33677625018E+03  0.12417114475E+03 -0.33723103783E+02  0.36051901975E+03  0.00000000000E+00 0.  1.
         15    1    5    5    0    0  0.31747120177E+03  0.84269936168E+02  0.65293755077E+02  0.33489672778E+03  0.17770000000E+01 0. -1.
        -16    1    5    5    0    0  0.94727445947E+02  0.74183190331E+00  0.57830490041E+02  0.11098740878E+03  0.00000000000E+00 0.  1.
          2    1    6    6  502    0  0.53469817724E+03 -0.25166253553E+03  0.39174890500E+03  0.70901578058E+03  0.00000000000E+00 0. -1.
         -1    1    6    6    0  502  0.69540516511E+03 -0.32660487433E+03  0.61942724147E+03  0.98688864371E+03  0.00000000000E+00 0.  1.
<mgrwt>
<rscale>  0 0.17490394E+04</rscale>
<asrwt>0</asrwt>
<pdfrwt beam="1">  1        1 0.21277885E+00 0.17490394E+04</pdfrwt>
<pdfrwt beam="2">  1       -2 0.38091717E+00 0.17490394E+04</pdfrwt>
<totfact> 0.62846760E-02</totfact>
</mgrwt>
</event>
<event>
12    3  0.1182097E-007  0.5725170E+03  0.7818608E-02  0.9964124E-01
         -2   -1    0    0    0  501 -0.00000000000E+00  0.00000000000E+00  0.62444754593E+03  0.62444754593E+03  0.00000000000E+00 0.  1.
          1   -1    0    0  501    0  0.00000000000E+00 -0.00000000000E+00 -0.55413206401E+03  0.55413206401E+03  0.00000000000E+00 0. -1.
        -24    2    1    2    0    0 -0.32697744716E+03  0.25848647765E+03  0.13421505072E+03  0.44517727802E+03  0.80247236371E+02 0.  0.
    5000000    2    1    2    0    0  0.32697744716E+03 -0.25848647765E+03 -0.63899568801E+02  0.73340233192E+03  0.60005526037E+03 0.  0.
        -24    2    4    4    0    0  0.18715724994E+02  0.17421214339E+03 -0.39853603529E+02  0.19554162256E+03  0.77123713436E+02 0.  0.
         24    2    4    4    0    0  0.30826172217E+03 -0.43269862104E+03 -0.24045965272E+02  0.53786070936E+03  0.80389975898E+02 0.  0.
         11    1    3    3    0    0 -0.24064905834E+03  0.18243196644E+03  0.13336977346E+03  0.33012253503E+03  0.00000000000E+00 0. -1.
        -12    1    3    3    0    0 -0.86328388816E+02  0.76054511213E+02  0.84527726259E+00  0.11505474299E+03  0.00000000000E+00 0.  1.
         15    1    5    5    0    0 -0.27274030948E+02  0.32872432694E+02 -0.69955036636E+01  0.43319330511E+02  0.17770000000E+01 0. -1.
        -16    1    5    5    0    0  0.45989755942E+02  0.14133971070E+03 -0.32858099866E+02  0.15222229205E+03  0.00000000000E+00 0.  1.
          4    1    6    6  502    0  0.23564501962E+03 -0.37906529959E+03 -0.96475165045E+01  0.44644389479E+03  0.00000000000E+00 0. -1.
         -3    1    6    6    0  502  0.72616702545E+02 -0.53633321450E+02 -0.14398448768E+02  0.91416814564E+02  0.00000000000E+00 0.  1.
<mgrwt>
<rscale>  0 0.57251697E+03</rscale>
<asrwt>0</asrwt>
<pdfrwt beam="1">  1        1 0.85251087E-01 0.57251697E+03</pdfrwt>
<pdfrwt beam="2">  1       -2 0.96068853E-01 0.57251697E+03</pdfrwt>
<totfact> 0.31551962E+01</totfact>
</mgrwt>
</event>
<event>
12    3  0.1182097E-007  0.4277958E+03  0.7818608E-02  0.1034559E+00
         -4   -1    0    0    0  501 -0.00000000000E+00  0.00000000000E+00  0.37227537198E+03  0.37227537198E+03  0.00000000000E+00 0.  1.
          3   -1    0    0  501    0  0.00000000000E+00 -0.00000000000E+00 -0.60655349401E+03  0.60655349401E+03  0.00000000000E+00 0. -1.
        -24    2    1    2    0    0  0.77261401587E+02  0.22333772576E+03  0.78831360638E+02  0.26201849798E+03  0.81180329770E+02 0.  0.
    5000000    2    1    2    0    0 -0.77261401587E+02 -0.22333772576E+03 -0.31310948266E+03  0.71681036801E+03  0.59994207356E+03 0.  0.
        -24    2    4    4    0    0 -0.19060620813E+03 -0.36885328524E+03 -0.29545011327E+03  0.51578637130E+03  0.79758001362E+02 0.  0.
         24    2    4    4    0    0  0.11334480654E+03  0.14551555948E+03 -0.17659369390E+02  0.20102399671E+03  0.77954927401E+02 0.  0.
         13    1    3    3    0    0  0.47425449686E+02  0.18821722896E+03  0.32741162376E+02  0.19684227765E+03  0.00000000000E+00 0. -1.
        -14    1    3    3    0    0  0.29835951901E+02  0.35120496800E+02  0.46090198263E+02  0.65176220336E+02  0.00000000000E+00 0.  1.
         15    1    5    5    0    0 -0.26634798250E+02 -0.10484087788E+03 -0.10788441224E+03  0.15278490202E+03  0.17770000000E+01 0. -1.
        -16    1    5    5    0    0 -0.16397140988E+03 -0.26401240736E+03 -0.18756570103E+03  0.36300146928E+03  0.00000000000E+00 0.  1.
          4    1    6    6  502    0  0.84028943242E+02  0.52908845569E+02  0.10594642037E+02  0.99862183442E+02  0.00000000000E+00 0. -1.
         -3    1    6    6    0  502  0.29315863298E+02  0.92606713908E+02 -0.28254011428E+02  0.10116181327E+03  0.00000000000E+00 0.  1.
<mgrwt>
<rscale>  0 0.42779583E+03</rscale>
<asrwt>0</asrwt>
<pdfrwt beam="1">  1        3 0.93315921E-01 0.42779583E+03</pdfrwt>
<pdfrwt beam="2">  1       -4 0.57273135E-01 0.42779583E+03</pdfrwt>
<totfact> 0.66801721E+00</totfact>
</mgrwt>
</event>
<event>
12    3  0.1182097E-007  0.3156235E+03  0.7818608E-02  0.1077681E+00
         -2   -1    0    0    0  501 -0.00000000000E+00  0.00000000000E+00  0.27400519289E+03  0.27400519289E+03  0.00000000000E+00 0.  1.
          1   -1    0    0  501    0  0.00000000000E+00 -0.00000000000E+00 -0.72594022522E+03  0.72594022522E+03  0.00000000000E+00 0. -1.
        -24    2    1    2    0    0  0.64649266619E+02  0.17631736151E+03 -0.28314580819E+03  0.34877984877E+03  0.78794000861E+02 0.  0.
    5000000    2    1    2    0    0 -0.64649266619E+02 -0.17631736151E+03 -0.16878922415E+03  0.65116556934E+03  0.60021617510E+03 0.  0.
        -24    2    4    4    0    0 -0.29969218011E+02  0.12083059993E+03 -0.28580623297E+03  0.31996478833E+03  0.72069931709E+02 0.  0.
         24    2    4    4    0    0 -0.34680048608E+02 -0.29714796144E+03  0.11701700882E+03  0.33120078101E+03  0.80631012814E+02 0.  0.
         11    1    3    3    0    0  0.22050436228E+02  0.15374952054E+03 -0.21077349713E+03  0.26182170249E+03  0.00000000000E+00 0. -1.
        -12    1    3    3    0    0  0.42598830391E+02  0.22567840973E+02 -0.72372311060E+02  0.86958146283E+02  0.00000000000E+00 0.  1.
         15    1    5    5    0    0 -0.28734296596E+02  0.74455992314E+02 -0.97412221452E+02  0.12594305542E+03  0.17770000000E+01 0. -1.
        -16    1    5    5    0    0 -0.12349214149E+01  0.46374607615E+02 -0.18839401152E+03  0.19402173290E+03  0.00000000000E+00 0.  1.
          4    1    6    6  502    0 -0.35286064476E+02 -0.14098724534E+03  0.94665050731E+02  0.17344734511E+03  0.00000000000E+00 0. -1.
         -3    1    6    6    0  502  0.60601586816E+00 -0.15616071610E+03  0.22351958090E+02  0.15775343590E+03  0.00000000000E+00 0.  1.
<mgrwt>
<rscale>  0 0.31562352E+03</rscale>
<asrwt>0</asrwt>
<pdfrwt beam="1">  1        1 0.11168311E+00 0.31562352E+03</pdfrwt>
<pdfrwt beam="2">  1       -2 0.42154646E-01 0.31562352E+03</pdfrwt>
<totfact> 0.12697259E+02</totfact>
</mgrwt>
</event>
<event>
12    3  0.1182097E-007  0.9450911E+03  0.7818608E-02  0.9370907E-01
          1   -1    0    0  501    0  0.00000000000E+00  0.00000000000E+00  0.93966441201E+03  0.93966441201E+03  0.00000000000E+00 0. -1.
         -2   -1    0    0    0  501 -0.00000000000E+00 -0.00000000000E+00 -0.97090774163E+03  0.97090774163E+03  0.00000000000E+00 0.  1.
        -24    2    1    2    0    0 -0.84103892274E+03  0.14588245028E+03  0.81505281899E+02  0.86112133782E+03  0.79111874009E+02 0.  0.
    5000000    2    1    2    0    0  0.84103892274E+03 -0.14588245028E+03 -0.11274861152E+03  0.10494508158E+04  0.60000550544E+03 0.  0.
        -24    2    4    4    0    0  0.34094475895E+03  0.22136878964E+03 -0.86996710338E+02  0.42328789502E+03  0.79729196540E+02 0.  0.
         24    2    4    4    0    0  0.50009416379E+03 -0.36725123992E+03 -0.25751901185E+02  0.62616292080E+03  0.80306893104E+02 0.  0.
         13    1    3    3    0    0 -0.72546777808E+03  0.10237323081E+03  0.54260723425E+02  0.73466182800E+03  0.00000000000E+00 0. -1.
        -14    1    3    3    0    0 -0.11557114466E+03  0.43509219468E+02  0.27244558473E+02  0.12645950982E+03  0.00000000000E+00 0.  1.
         15    1    5    5    0    0  0.12002006478E+03  0.12233176754E+03 -0.23474245062E+02  0.17298576592E+03  0.17770000000E+01 0. -1.
        -16    1    5    5    0    0  0.22092469417E+03  0.99037022100E+02 -0.63522465275E+02  0.25030212910E+03  0.00000000000E+00 0.  1.
          4    1    6    6  502    0  0.29998868594E+03 -0.21399262256E+03  0.23902943919E+02  0.36926603544E+03  0.00000000000E+00 0. -1.
         -3    1    6    6    0  502  0.20010547785E+03 -0.15325861736E+03 -0.49654845104E+02  0.25689688535E+03  0.00000000000E+00 0.  1.
<mgrwt>
<rscale>  0 0.94509114E+03</rscale>
<asrwt>0</asrwt>
<pdfrwt beam="1">  1        1 0.14456376E+00 0.94509114E+03</pdfrwt>
<pdfrwt beam="2">  1       -2 0.14937042E+00 0.94509114E+03</pdfrwt>
<totfact> 0.44939556E+00</totfact>
</mgrwt>
</event>
<event>
12    3  0.1182097E-007  0.8408994E+03  0.7818608E-02  0.9502634E-01
          1   -1    0    0  501    0  0.00000000000E+00  0.00000000000E+00  0.74929552233E+03  0.74929552233E+03  0.00000000000E+00 0. -1.
         -2   -1    0    0    0  501 -0.00000000000E+00 -0.00000000000E+00 -0.11854994818E+04  0.11854994818E+04  0.00000000000E+00 0.  1.
        -24    2    1    2    0    0  0.78687963071E+03 -0.28153906755E+03 -0.69137637808E+02  0.84255766145E+03  0.81728820707E+02 0.  0.
    5000000    2    1    2    0    0 -0.78687963071E+03  0.28153906755E+03 -0.36706632171E+03  0.10922373427E+04  0.59983408415E+03 0.  0.
        -24    2    4    4    0    0 -0.25290519793E+03  0.15523532014E+03 -0.43637564342E+03  0.53342804818E+03  0.77863577192E+02 0.  0.
         24    2    4    4    0    0 -0.53397443278E+03  0.12630374741E+03  0.69309321720E+02  0.55880929453E+03  0.79891890116E+02 0.  0.
         13    1    3    3    0    0  0.44818523798E+03 -0.16871224273E+03 -0.79356878958E+02  0.48541872917E+03  0.00000000000E+00 0. -1.
        -14    1    3    3    0    0  0.33869439273E+03 -0.11282682482E+03  0.10219241150E+02  0.35713893229E+03  0.00000000000E+00 0.  1.
         15    1    5    5    0    0 -0.51894895084E+02  0.32569748069E+02 -0.15399357555E+03  0.16574392196E+03  0.17770000000E+01 0. -1.
        -16    1    5    5    0    0 -0.20101030285E+03  0.12266557207E+03 -0.28238206787E+03  0.36768412622E+03  0.00000000000E+00 0.  1.
          4    1    6    6  502    0 -0.23978487518E+03  0.67861167714E+02 -0.70547871682E+01  0.24930241570E+03  0.00000000000E+00 0. -1.
         -3    1    6    6    0  502 -0.29418955759E+03  0.58442579693E+02  0.76364108888E+02  0.30950687883E+03  0.00000000000E+00 0.  1.
<mgrwt>
<rscale>  0 0.84089940E+03</rscale>
<asrwt>0</asrwt>
<pdfrwt beam="1">  1        1 0.11527623E+00 0.84089940E+03</pdfrwt>
<pdfrwt beam="2">  1       -2 0.18238454E+00 0.84089940E+03</pdfrwt>
<totfact> 0.38041908E+00</totfact>
</mgrwt>
</event>
<event>
12    3  0.1182097E-007  0.5855592E+03  0.7818608E-02  0.9935827E-01
          1   -1    0    0  501    0  0.00000000000E+00  0.00000000000E+00  0.72684268979E+03  0.72684268979E+03  0.00000000000E+00 0. -1.
         -2   -1    0    0    0  501 -0.00000000000E+00 -0.00000000000E+00 -0.91896684962E+03  0.91896684962E+03  0.00000000000E+00 0.  1.
        -24    2    1    2    0    0  0.77573625464E+02 -0.43087360376E+03  0.47234471561E+03  0.64922246796E+03  0.81917963512E+02 0.  0.
    5000000    2    1    2    0    0 -0.77573625464E+02  0.43087360376E+03 -0.66446887544E+03  0.99658707145E+03  0.59999764563E+03 0.  0.
        -24    2    4    4    0    0 -0.29748188982E+03  0.96729683455E+02 -0.20402589844E+03  0.38141926017E+03  0.77472436127E+02 0.  0.
         24    2    4    4    0    0  0.21990826436E+03  0.33414392030E+03 -0.46044297700E+03  0.61516781128E+03  0.80074320236E+02 0.  0.
         11    1    3    3    0    0  0.73402449044E+02 -0.22880924518E+03  0.29373906438E+03  0.37950524126E+03  0.00000000000E+00 0. -1.
        -12    1    3    3    0    0  0.41711764205E+01 -0.20206435858E+03  0.17860565124E+03  0.26971722669E+03  0.00000000000E+00 0.  1.
         15    1    5    5    0    0 -0.17924296551E+03  0.19144940503E+02 -0.10301485846E+03  0.20762896769E+03  0.17770000000E+01 0. -1.
        -16    1    5    5    0    0 -0.11823892431E+03  0.77584742952E+02 -0.10101103999E+03  0.17379029248E+03  0.00000000000E+00 0.  1.
          2    1    6    6  502    0  0.21456613549E+03  0.28070289988E+03 -0.41297902741E+03  0.54349279809E+03  0.00000000000E+00 0. -1.
         -1    1    6    6    0  502  0.53421288675E+01  0.53441020426E+02 -0.47463949588E+02  0.71675013188E+02  0.00000000000E+00 0.  1.
<mgrwt>
<rscale>  0 0.58555919E+03</rscale>
<asrwt>0</asrwt>
<pdfrwt beam="1">  1        1 0.11182195E+00 0.58555919E+03</pdfrwt>
<pdfrwt beam="2">  1       -2 0.14137951E+00 0.58555919E+03</pdfrwt>
<totfact> 0.82307605E+00</totfact>
</mgrwt>
</event>
<event>
12    3  0.1182097E-007  0.7971062E+03  0.7818608E-02  0.9564215E-01
         -2   -1    0    0    0  501 -0.00000000000E+00  0.00000000000E+00  0.68681363749E+03  0.68681363749E+03  0.00000000000E+00 0.  1.
          1   -1    0    0  501    0  0.00000000000E+00 -0.00000000000E+00 -0.17569911517E+04  0.17569911517E+04  0.00000000000E+00 0. -1.
        -24    2    1    2    0    0  0.26161321057E+03 -0.65207757360E+03  0.32016892408E+03  0.77461238193E+03  0.62205854753E+02 0.  0.
    5000000    2    1    2    0    0 -0.26161321057E+03  0.65207757360E+03 -0.13903464382E+04  0.16691924072E+04  0.59957771810E+03 0.  0.
        -24    2    4    4    0    0  0.14122352356E+02 -0.80770843309E+02 -0.74540514829E+02  0.13597088153E+03  0.78793542305E+02 0.  0.
         24    2    4    4    0    0 -0.27573556293E+03  0.73284841691E+03 -0.13158059234E+04  0.15332215257E+04  0.79536883941E+02 0.  0.
         11    1    3    3    0    0  0.89377304191E+02 -0.20801653522E+03  0.13494914310E+03  0.26357248083E+03  0.00000000000E+00 0. -1.
        -12    1    3    3    0    0  0.17223590638E+03 -0.44406103838E+03  0.18521978098E+03  0.51103990110E+03  0.00000000000E+00 0.  1.
         15    1    5    5    0    0  0.36386754746E+02 -0.20752996108E+02 -0.62870951904E+01  0.42395377854E+02  0.17770000000E+01 0. -1.
        -16    1    5    5    0    0 -0.22264402391E+02 -0.60017847201E+02 -0.68253419639E+02  0.93575503679E+02  0.00000000000E+00 0.  1.
          2    1    6    6  502    0 -0.64981437794E+02  0.25796787229E+03 -0.40216790682E+03  0.48219190751E+03  0.00000000000E+00 0. -1.
         -1    1    6    6    0  502 -0.21075412513E+03  0.47488054461E+03 -0.91363801659E+03  0.10510296182E+04  0.00000000000E+00 0.  1.
<mgrwt>
<rscale>  0 0.79710622E+03</rscale>
<asrwt>0</asrwt>
<pdfrwt beam="1">  1        1 0.27030633E+00 0.79710622E+03</pdfrwt>
<pdfrwt beam="2">  1       -2 0.10566364E+00 0.79710622E+03</pdfrwt>
<totfact> 0.28552620E+00</totfact>
</mgrwt>
</event>
<event>
12    3  0.1182097E-007  0.6867499E+03  0.7818608E-02  0.9740164E-01
          1   -1    0    0  501    0  0.00000000000E+00  0.00000000000E+00  0.42457534572E+03  0.42457534572E+03  0.00000000000E+00 0. -1.
         -2   -1    0    0    0  501 -0.00000000000E+00 -0.00000000000E+00 -0.16557230582E+04  0.16557230582E+04  0.00000000000E+00 0.  1.
        -24    2    1    2    0    0 -0.27909538107E+03  0.53514907559E+03 -0.31867321735E+02  0.60967176823E+03  0.80033580080E+02 0.  0.
    5000000    2    1    2    0    0  0.27909538107E+03 -0.53514907559E+03 -0.11992803907E+04  0.14706266357E+04  0.60015871328E+03 0.  0.
        -24    2    4    4    0    0 -0.13017118926E+03 -0.15879939606E+03 -0.64430302207E+03  0.68088887878E+03  0.79507825350E+02 0.  0.
         24    2    4    4    0    0  0.40926657033E+03 -0.37634967953E+03 -0.55497736865E+03  0.78973775689E+03  0.80917476901E+02 0.  0.
         11    1    3    3    0    0 -0.14192483424E+03  0.34631937695E+03 -0.12151174000E+01  0.37427429238E+03  0.00000000000E+00 0. -1.
        -12    1    3    3    0    0 -0.13717054683E+03  0.18882969864E+03 -0.30652204335E+02  0.23539747585E+03  0.00000000000E+00 0.  1.
         15    1    5    5    0    0 -0.83048928100E+02 -0.70207280260E+02 -0.22728306127E+03  0.25196613726E+03  0.17770000000E+01 0. -1.
        -16    1    5    5    0    0 -0.47122261161E+02 -0.88592115802E+02 -0.41701996081E+03  0.42892274152E+03  0.00000000000E+00 0.  1.
          4    1    6    6  502    0  0.24776342729E+03 -0.20880857762E+03 -0.26962920770E+03  0.42153012660E+03  0.00000000000E+00 0. -1.
         -3    1    6    6    0  502  0.16150314304E+03 -0.16754110191E+03 -0.28534816095E+03  0.36820763029E+03  0.00000000000E+00 0.  1.
<mgrwt>
<rscale>  0 0.68674991E+03</rscale>
<asrwt>0</asrwt>
<pdfrwt beam="1">  1        1 0.65319285E-01 0.68674991E+03</pdfrwt>
<pdfrwt beam="2">  1       -2 0.25472662E+00 0.68674991E+03</pdfrwt>
<totfact> 0.30415889E+00</totfact>
</mgrwt>
</event>
<event>
12    3  0.1182097E-007  0.9436760E+03  0.7818608E-02  0.9372573E-01
          1   -1    0    0  501    0  0.00000000000E+00  0.00000000000E+00  0.20455761143E+04  0.20455761143E+04  0.00000000000E+00 0. -1.
         -2   -1    0    0    0  501 -0.00000000000E+00 -0.00000000000E+00 -0.54626184662E+03  0.54626184662E+03  0.00000000000E+00 0.  1.
        -24    2    1    2    0    0 -0.47362713874E+03  0.76837784980E+03  0.11263452068E+04  0.14456113093E+04  0.80070881179E+02 0.  0.
    5000000    2    1    2    0    0  0.47362713874E+03 -0.76837784980E+03  0.37296906087E+03  0.11462266516E+04  0.60000202493E+03 0.  0.
        -24    2    4    4    0    0  0.38405453264E+03 -0.26882668857E+03  0.41430368107E+03  0.63074178793E+03  0.80137321905E+02 0.  0.
         24    2    4    4    0    0  0.89572606099E+02 -0.49955116123E+03 -0.41334620199E+02  0.51548486370E+03  0.80258827727E+02 0.  0.
         11    1    3    3    0    0 -0.41733849482E+03  0.62849906116E+03  0.96256964643E+03  0.12229974707E+04  0.00000000000E+00 0. -1.
        -12    1    3    3    0    0 -0.56288643921E+02  0.13987878864E+03  0.16377556034E+03  0.22261383854E+03  0.00000000000E+00 0.  1.
         15    1    5    5    0    0  0.17252876965E+03 -0.15387755648E+03  0.24208068203E+03  0.33473973933E+03  0.17770000000E+01 0. -1.
        -16    1    5    5    0    0  0.21152576299E+03 -0.11494913209E+03  0.17222299904E+03  0.29600204860E+03  0.00000000000E+00 0.  1.
          2    1    6    6  502    0 -0.70497358752E+01 -0.37248704565E+02  0.13002304592E+02  0.40077733124E+02  0.00000000000E+00 0. -1.
         -1    1    6    6    0  502  0.96622341974E+02 -0.46230245667E+03 -0.54336924791E+02  0.47540713058E+03  0.00000000000E+00 0.  1.
<mgrwt>
<rscale>  0 0.94367600E+03</rscale>
<asrwt>0</asrwt>
<pdfrwt beam="1">  1        1 0.31470401E+00 0.94367600E+03</pdfrwt>
<pdfrwt beam="2">  1       -2 0.84040285E-01 0.94367600E+03</pdfrwt>
<totfact> 0.30576473E+00</totfact>
</mgrwt>
</event>
<event>
12    3  0.1182097E-007  0.5937757E+03  0.7818608E-02  0.9918404E-01
          1   -1    0    0  501    0  0.00000000000E+00  0.00000000000E+00  0.27450762859E+03  0.27450762859E+03  0.00000000000E+00 0. -1.
         -2   -1    0    0    0  501 -0.00000000000E+00 -0.00000000000E+00 -0.21244926471E+04  0.21244926471E+04  0.00000000000E+00 0.  1.
        -24    2    1    2    0    0 -0.39338704223E+03  0.21736459505E+03 -0.62450082345E+02  0.46061380393E+03  0.79147529418E+02 0.  0.
    5000000    2    1    2    0    0  0.39338704223E+03 -0.21736459505E+03 -0.17875349362E+04  0.19383864717E+04  0.60005019266E+03 0.  0.
        -24    2    4    4    0    0  0.11935273147E+03 -0.39027906806E+03 -0.10150445563E+04  0.10969599866E+04  0.80267897387E+02 0.  0.
         24    2    4    4    0    0  0.27403431076E+03  0.17291447302E+03 -0.77249037983E+03  0.84142648517E+03  0.79138641402E+02 0.  0.
         13    1    3    3    0    0 -0.11170451411E+03  0.39900484896E+02  0.12756478039E+02  0.11930077493E+03  0.00000000000E+00 0. -1.
        -14    1    3    3    0    0 -0.28168252812E+03  0.17746411015E+03 -0.75206560385E+02  0.34131302900E+03  0.00000000000E+00 0.  1.
         15    1    5    5    0    0  0.44063656844E+02 -0.72267776873E+02 -0.14999022069E+03  0.17223374078E+03  0.17770000000E+01 0. -1.
        -16    1    5    5    0    0  0.75289074624E+02 -0.31801129119E+03 -0.86505433563E+03  0.92472624580E+03  0.00000000000E+00 0.  1.
          4    1    6    6  502    0  0.11867509223E+03  0.64186187263E+02 -0.22882617215E+03  0.26564085005E+03  0.00000000000E+00 0. -1.
         -3    1    6    6    0  502  0.15535921853E+03  0.10872828575E+03 -0.54366420768E+03  0.57578563512E+03  0.00000000000E+00 0.  1.
<mgrwt>
<rscale>  0 0.59377567E+03</rscale>
<asrwt>0</asrwt>
<pdfrwt beam="1">  1        1 0.42231941E-01 0.59377567E+03</pdfrwt>
<pdfrwt beam="2">  1       -2 0.32684503E+00 0.59377567E+03</pdfrwt>
<totfact> 0.20149520E+00</totfact>
</mgrwt>
</event>
<event>
12    3  0.1182097E-007  0.7344299E+03  0.7818608E-02  0.9660099E-01
         -2   -1    0    0    0  501 -0.00000000000E+00  0.00000000000E+00  0.13487727666E+04  0.13487727666E+04  0.00000000000E+00 0.  1.
          1   -1    0    0  501    0  0.00000000000E+00 -0.00000000000E+00 -0.41123362002E+03  0.41123362002E+03  0.00000000000E+00 0. -1.
        -24    2    1    2    0    0 -0.41736162116E+03 -0.45949989235E+03  0.41193829155E+03  0.74929530291E+03  0.80121289512E+02 0.  0.
    5000000    2    1    2    0    0  0.41736162116E+03  0.45949989235E+03  0.52560085503E+03  0.10107110837E+04  0.59995813356E+03 0.  0.
        -24    2    4    4    0    0  0.13364685590E+03 -0.12437464611E+03  0.59829080945E+02  0.20789231766E+03  0.79430234331E+02 0.  0.
         24    2    4    4    0    0  0.28371476526E+03  0.58387453847E+03  0.46577177409E+03  0.80281876605E+03  0.78556227586E+02 0.  0.
         11    1    3    3    0    0 -0.20855627083E+03 -0.25883758270E+03  0.26163298430E+03  0.42301823932E+03  0.00000000000E+00 0. -1.
        -12    1    3    3    0    0 -0.20880535033E+03 -0.20066230965E+03  0.15030530725E+03  0.32627706360E+03  0.00000000000E+00 0.  1.
         15    1    5    5    0    0  0.11475359351E+02 -0.53518284338E+02  0.66246549747E+00  0.54767574533E+02  0.17770000000E+01 0. -1.
        -16    1    5    5    0    0  0.12217149655E+03 -0.70856361777E+02  0.59166615448E+02  0.15312474312E+03  0.00000000000E+00 0.  1.
          2    1    6    6  502    0  0.85445604664E+02  0.22802520679E+03  0.13745455033E+03  0.27962510563E+03  0.00000000000E+00 0. -1.
         -1    1    6    6    0  502  0.19826916060E+03  0.35584933167E+03  0.32831722375E+03  0.52319366042E+03  0.00000000000E+00 0.  1.
<mgrwt>
<rscale>  0 0.73442988E+03</rscale>
<asrwt>0</asrwt>
<pdfrwt beam="1">  1        1 0.63266711E-01 0.73442988E+03</pdfrwt>
<pdfrwt beam="2">  1       -2 0.20750350E+00 0.73442988E+03</pdfrwt>
<totfact> 0.61710215E+00</totfact>
</mgrwt>
</event>
<event>
12    3  0.1182097E-007  0.8502519E+03  0.7818608E-02  0.9489999E-01
          1   -1    0    0  501    0  0.00000000000E+00  0.00000000000E+00  0.22128794816E+04  0.22128794816E+04  0.00000000000E+00 0. -1.
         -4   -1    0    0    0  501 -0.00000000000E+00 -0.00000000000E+00 -0.41106964211E+03  0.41106964211E+03  0.00000000000E+00 0.  1.
        -24    2    1    2    0    0 -0.61923740549E+03  0.55995274322E+03  0.54517564687E+03  0.10002807424E+04  0.79643196710E+02 0.  0.
    5000000    2    1    2    0    0  0.61923740549E+03 -0.55995274322E+03  0.12566341927E+04  0.16236683813E+04  0.60013954980E+03 0.  0.
        -24    2    4    4    0    0  0.46941361132E+03 -0.31490963859E+03  0.35022772985E+03  0.66949725873E+03  0.77781088437E+02 0.  0.
         24    2    4    4    0    0  0.14982379417E+03 -0.24504310463E+03  0.90640646281E+03  0.95417112256E+03  0.79853383675E+02 0.  0.
         11    1    3    3    0    0 -0.11503080212E+03  0.10048150824E+03  0.64580862487E+02  0.16582914923E+03  0.00000000000E+00 0. -1.
        -12    1    3    3    0    0 -0.50420660337E+03  0.45947123498E+03  0.48059478438E+03  0.83445159322E+03  0.00000000000E+00 0.  1.
         15    1    5    5    0    0  0.36984338894E+03 -0.21572435064E+03  0.23964920031E+03  0.49066895637E+03  0.17770000000E+01 0. -1.
        -16    1    5    5    0    0  0.99570222375E+02 -0.99185287949E+02  0.11057852954E+03  0.17882830236E+03  0.00000000000E+00 0.  1.
          2    1    6    6  502    0  0.10547809319E+03 -0.10042346325E+03  0.48755022571E+03  0.50883761919E+03  0.00000000000E+00 0. -1.
         -1    1    6    6    0  502  0.44345700983E+02 -0.14461964138E+03  0.41885623709E+03  0.44533350337E+03  0.00000000000E+00 0.  1.
<mgrwt>
<rscale>  0 0.85025186E+03</rscale>
<asrwt>0</asrwt>
<pdfrwt beam="1">  1        1 0.34044299E+00 0.85025186E+03</pdfrwt>
<pdfrwt beam="2">  1       -4 0.63241485E-01 0.85025186E+03</pdfrwt>
<totfact> 0.24798887E+00</totfact>
</mgrwt>
</event>
<event>
12    3  0.1182097E-007  0.1579011E+04  0.7818608E-02  0.8833547E-01
         -2   -1    0    0    0  501 -0.00000000000E+00  0.00000000000E+00  0.21907685950E+04  0.21907685950E+04  0.00000000000E+00 0.  1.
          1   -1    0    0  501    0  0.00000000000E+00 -0.00000000000E+00 -0.14275778026E+04  0.14275778026E+04  0.00000000000E+00 0. -1.
        -24    2    1    2    0    0 -0.10527175905E+04 -0.11496214721E+04  0.11063498239E+04  0.19132480605E+04  0.81635493677E+02 0.  0.
    5000000    2    1    2    0    0  0.10527175905E+04  0.11496214721E+04 -0.34315903148E+03  0.17050983371E+04  0.59979860258E+03 0.  0.
        -24    2    4    4    0    0  0.19624483453E+03  0.75717566542E+02 -0.23636784061E+03  0.32646519632E+03  0.80402632887E+02 0.  0.
         24    2    4    4    0    0  0.85647275596E+03  0.10739039056E+04 -0.10679119088E+03  0.13786331407E+04  0.49089694986E+02 0.  0.
         13    1    3    3    0    0 -0.57942734293E+03 -0.62063013062E+03  0.65126875922E+03  0.10700788763E+04  0.00000000000E+00 0. -1.
        -14    1    3    3    0    0 -0.47329024755E+03 -0.52899134151E+03  0.45508106464E+03  0.84316918422E+03  0.00000000000E+00 0.  1.
         15    1    5    5    0    0  0.53091341283E+02 -0.15367991687E+02 -0.52082731918E+02  0.75964691672E+02  0.17770000000E+01 0. -1.
        -16    1    5    5    0    0  0.14315349324E+03  0.91085558229E+02 -0.18428510869E+03  0.25050050465E+03  0.00000000000E+00 0.  1.
          4    1    6    6  502    0  0.43289342596E+03  0.51159988420E+03 -0.37075558530E+02  0.67119725625E+03  0.00000000000E+00 0. -1.
         -3    1    6    6    0  502  0.42357933000E+03  0.56230402139E+03 -0.69715632346E+02  0.70743588449E+03  0.00000000000E+00 0.  1.
<mgrwt>
<rscale>  0 0.15790107E+04</rscale>
<asrwt>0</asrwt>
<pdfrwt beam="1">  1        1 0.21962736E+00 0.15790107E+04</pdfrwt>
<pdfrwt beam="2">  1       -2 0.33704132E+00 0.15790107E+04</pdfrwt>
<totfact> 0.11313571E-01</totfact>
</mgrwt>
</event>
<event>
12    3  0.1182097E-007  0.4113051E+03  0.7818608E-02  0.1039934E+00
          1   -1    0    0  501    0  0.00000000000E+00  0.00000000000E+00  0.67383414306E+03  0.67383414306E+03  0.00000000000E+00 0. -1.
         -2   -1    0    0    0  501 -0.00000000000E+00 -0.00000000000E+00 -0.34828007221E+03  0.34828007221E+03  0.00000000000E+00 0.  1.
        -24    2    1    2    0    0  0.19143144957E+03  0.16646766615E+03  0.25199813776E+03  0.36658261207E+03  0.80760549058E+02 0.  0.
    5000000    2    1    2    0    0 -0.19143144957E+03 -0.16646766615E+03  0.73555933082E+02  0.65553160320E+03  0.59996143521E+03 0.  0.
        -24    2    4    4    0    0 -0.98218071481E+02 -0.33927304360E+03 -0.10548976895E+03  0.37757957867E+03  0.81763434345E+02 0.  0.
         24    2    4    4    0    0 -0.93213378090E+02  0.17280537745E+03  0.17904570203E+03  0.27795202453E+03  0.81544663784E+02 0.  0.
         13    1    3    3    0    0  0.30640978055E+02 -0.27227786205E+01  0.16065069877E+02  0.34704027573E+02  0.00000000000E+00 0. -1.
        -14    1    3    3    0    0  0.16079047152E+03  0.16919044477E+03  0.23593306788E+03  0.33187858450E+03  0.00000000000E+00 0.  1.
         15    1    5    5    0    0 -0.79631294037E+02 -0.13767789647E+03 -0.32291957280E+02  0.16230303263E+03  0.17770000000E+01 0. -1.
        -16    1    5    5    0    0 -0.18586777445E+02 -0.20159514713E+03 -0.73197811667E+02  0.21527654604E+03  0.00000000000E+00 0.  1.
          4    1    6    6  502    0 -0.77243092818E+02  0.12963401647E+03  0.84875384157E+02  0.17313377617E+03  0.00000000000E+00 0. -1.
         -3    1    6    6    0  502 -0.15970285271E+02  0.43171360981E+02  0.94170317872E+02  0.10481824836E+03  0.00000000000E+00 0.  1.
<mgrwt>
<rscale>  0 0.41130510E+03</rscale>
<asrwt>0</asrwt>
<pdfrwt beam="1">  1        1 0.10366679E+00 0.41130510E+03</pdfrwt>
<pdfrwt beam="2">  1       -2 0.53581549E-01 0.41130510E+03</pdfrwt>
<totfact> 0.86868618E+01</totfact>
</mgrwt>
</event>
<event>
12    3  0.1182097E-007  0.9115430E+03  0.7818608E-02  0.9411266E-01
          1   -1    0    0  501    0  0.00000000000E+00  0.00000000000E+00  0.18696222634E+04  0.18696222634E+04  0.00000000000E+00 0. -1.
         -2   -1    0    0    0  501 -0.00000000000E+00 -0.00000000000E+00 -0.61748639685E+03  0.61748639685E+03  0.00000000000E+00 0.  1.
        -24    2    1    2    0    0 -0.77648839024E+03  0.28049544128E+03 -0.52334295955E+02  0.83075741009E+03  0.76204219827E+02 0.  0.
    5000000    2    1    2    0    0  0.77648839024E+03 -0.28049544128E+03  0.13044701625E+04  0.16563512501E+04  0.60020425378E+03 0.  0.
        -24    2    4    4    0    0  0.40439780850E+03  0.13951932538E+03  0.41255750800E+03  0.59955458832E+03  0.79112434497E+02 0.  0.
         24    2    4    4    0    0  0.37209058175E+03 -0.42001476666E+03  0.89191265448E+03  0.10567966618E+04  0.80294433012E+02 0.  0.
         11    1    3    3    0    0 -0.33118611239E+03  0.11104051910E+03 -0.59016646872E+02  0.35425584332E+03  0.00000000000E+00 0. -1.
        -12    1    3    3    0    0 -0.44530227785E+03  0.16945492218E+03  0.66823509169E+01  0.47650156676E+03  0.00000000000E+00 0.  1.
         15    1    5    5    0    0  0.20628156137E+03  0.11186714005E+03  0.21092912343E+03  0.31553223674E+03  0.17770000000E+01 0. -1.
        -16    1    5    5    0    0  0.19811624712E+03  0.27652185333E+02  0.20162838457E+03  0.28402235158E+03  0.00000000000E+00 0.  1.
          4    1    6    6  502    0  0.12622812531E+03 -0.17246169010E+03  0.27787893121E+03  0.35056137063E+03  0.00000000000E+00 0. -1.
         -3    1    6    6    0  502  0.24586245644E+03 -0.24755307656E+03  0.61403372328E+03  0.70623529119E+03  0.00000000000E+00 0.  1.
<mgrwt>
<rscale>  0 0.91154300E+03</rscale>
<asrwt>0</asrwt>
<pdfrwt beam="1">  1        1 0.28763419E+00 0.91154300E+03</pdfrwt>
<pdfrwt beam="2">  1       -2 0.94997908E-01 0.91154300E+03</pdfrwt>
<totfact> 0.30375066E+00</totfact>
</mgrwt>
</event>
<event>
12    3  0.1182097E-007  0.2589432E+04  0.7818608E-02  0.8371800E-01
          1   -1    0    0  501    0  0.00000000000E+00  0.00000000000E+00  0.30046105811E+04  0.30046105811E+04  0.00000000000E+00 0. -1.
         -2   -1    0    0    0  501 -0.00000000000E+00 -0.00000000000E+00 -0.22408484508E+04  0.22408484508E+04  0.00000000000E+00 0.  1.
        -24    2    1    2    0    0  0.12983104208E+04  0.22046320701E+04  0.31483670884E+03  0.25794855782E+04  0.92796453817E+02 0.  0.
    5000000    2    1    2    0    0 -0.12983104208E+04 -0.22046320701E+04  0.44892542148E+03  0.26659734536E+04  0.59988991322E+03 0.  0.
        -24    2    4    4    0    0 -0.25157024067E+03 -0.95879161081E+03  0.24464769294E+03  0.10240660693E+04  0.79308774635E+02 0.  0.
         24    2    4    4    0    0 -0.10467401801E+04 -0.12458404593E+04  0.20427772853E+03  0.16419073843E+04  0.79668145849E+02 0.  0.
         13    1    3    3    0    0  0.18233701464E+03  0.25123597747E+03  0.31952127086E+02  0.31206928992E+03  0.00000000000E+00 0. -1.
        -14    1    3    3    0    0  0.11159734061E+04  0.19533960926E+04  0.28288458176E+03  0.22674162883E+04  0.00000000000E+00 0.  1.
         15    1    5    5    0    0 -0.11892165848E+03 -0.47576571845E+03  0.80649078401E+02  0.49699377388E+03  0.17770000000E+01 0. -1.
        -16    1    5    5    0    0 -0.13264858220E+03 -0.48302589236E+03  0.16399861454E+03  0.52707229544E+03  0.00000000000E+00 0.  1.
          2    1    6    6  502    0 -0.32897277545E+03 -0.37248743841E+03  0.27603669435E+02  0.49772677377E+03  0.00000000000E+00 0. -1.
         -1    1    6    6    0  502 -0.71776740467E+03 -0.87335302089E+03  0.17667405910E+03  0.11441806105E+04  0.00000000000E+00 0.  1.
<mgrwt>
<rscale>  0 0.25894320E+04</rscale>
<asrwt>0</asrwt>
<pdfrwt beam="1">  1        1 0.46224778E+00 0.25894320E+04</pdfrwt>
<pdfrwt beam="2">  1       -2 0.34474591E+00 0.25894320E+04</pdfrwt>
<totfact> 0.72617053E-03</totfact>
</mgrwt>
</event>
<event>
12    3  0.1182097E-007  0.2396069E+03  0.7818608E-02  0.1120055E+00
          1   -1    0    0  501    0  0.00000000000E+00  0.00000000000E+00  0.15217074505E+03  0.15217074505E+03  0.00000000000E+00 0. -1.
         -2   -1    0    0    0  501 -0.00000000000E+00 -0.00000000000E+00 -0.13034064227E+04  0.13034064227E+04  0.00000000000E+00 0.  1.
        -24    2    1    2    0    0  0.21394390786E+02  0.22711932128E+03 -0.39894313261E+03  0.46666793700E+03  0.81132202661E+02 0.  0.
    5000000    2    1    2    0    0 -0.21394390786E+02 -0.22711932128E+03 -0.75229254506E+03  0.98890923077E+03  0.59996373830E+03 0.  0.
        -24    2    4    4    0    0 -0.12778560201E+02 -0.17288514324E+03  0.36337184347E+02  0.19452727426E+03  0.80423287135E+02 0.  0.
         24    2    4    4    0    0 -0.86158305860E+01 -0.54234178048E+02 -0.78862972941E+03  0.79438195650E+03  0.78040144168E+02 0.  0.
         13    1    3    3    0    0  0.19459718103E+02  0.14059576195E+03 -0.16736736533E+03  0.21944859053E+03  0.00000000000E+00 0. -1.
        -14    1    3    3    0    0  0.19346726838E+01  0.86523559333E+02 -0.23157576728E+03  0.24721934647E+03  0.00000000000E+00 0.  1.
         15    1    5    5    0    0 -0.38982610961E+02 -0.71296083983E+02  0.37721778334E+02  0.89603938743E+02  0.17770000000E+01 0. -1.
        -16    1    5    5    0    0  0.26204050760E+02 -0.10158905925E+03 -0.13845939878E+01  0.10492333552E+03  0.00000000000E+00 0.  1.
          2    1    6    6  502    0 -0.21658136362E+02 -0.37749300818E+02 -0.74151141019E+03  0.74278749049E+03  0.00000000000E+00 0. -1.
         -1    1    6    6    0  502  0.13042305776E+02 -0.16484877229E+02 -0.47118319221E+02  0.51594466016E+02  0.00000000000E+00 0.  1.
<mgrwt>
<rscale>  0 0.23960687E+03</rscale>
<asrwt>0</asrwt>
<pdfrwt beam="1">  1        1 0.23410884E-01 0.23960687E+03</pdfrwt>
<pdfrwt beam="2">  1       -2 0.20052406E+00 0.23960687E+03</pdfrwt>
<totfact> 0.26468452E+01</totfact>
</mgrwt>
</event>
<event>
12    3  0.1182097E-007  0.1164532E+04  0.7818608E-02  0.9144481E-01
         -2   -1    0    0    0  501 -0.00000000000E+00  0.00000000000E+00  0.76548103929E+03  0.76548103929E+03  0.00000000000E+00 0.  1.
          1   -1    0    0  501    0  0.00000000000E+00 -0.00000000000E+00 -0.20306710627E+04  0.20306710627E+04  0.00000000000E+00 0. -1.
        -24    2    1    2    0    0  0.70490218418E+03  0.90729197005E+03 -0.86272649483E+03  0.14389829950E+04  0.79430767674E+02 0.  0.
    5000000    2    1    2    0    0 -0.70490218418E+03 -0.90729197005E+03 -0.40246352855E+03  0.13571691070E+04  0.59988772692E+03 0.  0.
        -24    2    4    4    0    0 -0.47408988198E+03 -0.43324986268E+03  0.63529697225E+02  0.65046072003E+03  0.81218631852E+02 0.  0.
         24    2    4    4    0    0 -0.23081230220E+03 -0.47404210736E+03 -0.46599322577E+03  0.70670838693E+03  0.65550128086E+02 0.  0.
         13    1    3    3    0    0  0.58065079884E+03  0.69627112819E+03 -0.66860347010E+03  0.11264898732E+04  0.00000000000E+00 0. -1.
        -14    1    3    3    0    0  0.12425138534E+03  0.21102084186E+03 -0.19412302474E+03  0.31249312183E+03  0.00000000000E+00 0.  1.
         15    1    5    5    0    0 -0.14829531072E+03 -0.87959195451E+02  0.23967623161E+02  0.17408596709E+03  0.17770000000E+01 0. -1.
        -16    1    5    5    0    0 -0.32579457126E+03 -0.34529066723E+03  0.39562074064E+02  0.47637475294E+03  0.00000000000E+00 0.  1.
          4    1    6    6  502    0 -0.53225802963E+02 -0.61909720879E+02 -0.87114233113E+02  0.11939300336E+03  0.00000000000E+00 0. -1.
         -1    1    6    6    0  502 -0.17758649923E+03 -0.41213238648E+03 -0.37887899266E+03  0.58731538357E+03  0.00000000000E+00 0.  1.
<mgrwt>
<rscale>  0 0.11645324E+04</rscale>
<asrwt>0</asrwt>
<pdfrwt beam="1">  1        1 0.31241094E+00 0.11645324E+04</pdfrwt>
<pdfrwt beam="2">  1       -2 0.11776631E+00 0.11645324E+04</pdfrwt>
<totfact> 0.13652851E+00</totfact>
</mgrwt>
</event>
<event>
12    3  0.1182097E-007  0.6393117E+03  0.7818608E-02  0.9827044E-01
         -2   -1    0    0    0  501 -0.00000000000E+00  0.00000000000E+00  0.57680561957E+03  0.57680561957E+03  0.00000000000E+00 0.  1.
          1   -1    0    0  501    0  0.00000000000E+00 -0.00000000000E+00 -0.73673852312E+03  0.73673852312E+03  0.00000000000E+00 0. -1.
        -24    2    1    2    0    0 -0.50431821647E+03  0.48417253149E+02 -0.16937297694E+01  0.51250639307E+03  0.77322961380E+02 0.  0.
    5000000    2    1    2    0    0  0.50431821647E+03 -0.48417253149E+02 -0.15823917377E+03  0.80103774962E+03  0.59995061991E+03 0.  0.
        -24    2    4    4    0    0  0.10567393433E+03 -0.27788233727E+03  0.41055090142E+01  0.30658962517E+03  0.74798190457E+02 0.  0.
         24    2    4    4    0    0  0.39864428214E+03  0.22946508412E+03 -0.16234468279E+03  0.49444812444E+03  0.80942345081E+02 0.  0.
         11    1    3    3    0    0 -0.31952590716E+03  0.61996750737E+02  0.19146384037E+02  0.32604752179E+03  0.00000000000E+00 0. -1.
        -12    1    3    3    0    0 -0.18479230931E+03 -0.13579497588E+02 -0.20840113807E+02  0.18645887128E+03  0.00000000000E+00 0.  1.
         15    1    5    5    0    0 -0.53069756572E+01 -0.73203774208E+02  0.69128128934E+01  0.73742126767E+02  0.17770000000E+01 0. -1.
        -16    1    5    5    0    0  0.11098090999E+03 -0.20467856306E+03 -0.28073038792E+01  0.23284749841E+03  0.00000000000E+00 0.  1.
          4    1    6    6  502    0  0.17703665576E+03  0.12422638870E+03 -0.11372082618E+03  0.24434933894E+03  0.00000000000E+00 0. -1.
         -3    1    6    6    0  502  0.22160762637E+03  0.10523869542E+03 -0.48623856612E+02  0.25009878551E+03  0.00000000000E+00 0.  1.
<mgrwt>
<rscale>  0 0.63931168E+03</rscale>
<asrwt>0</asrwt>
<pdfrwt beam="1">  1        1 0.11334439E+00 0.63931168E+03</pdfrwt>
<pdfrwt beam="2">  1       -2 0.88739326E-01 0.63931168E+03</pdfrwt>
<totfact> 0.24838502E+01</totfact>
</mgrwt>
</event>
<event>
12    3  0.1182097E-007  0.8644617E+03  0.7818608E-02  0.9471130E-01
         -2   -1    0    0    0  501 -0.00000000000E+00  0.00000000000E+00  0.34650141163E+03  0.34650141163E+03  0.00000000000E+00 0.  1.
          1   -1    0    0  501    0  0.00000000000E+00 -0.00000000000E+00 -0.22578849251E+04  0.22578849251E+04  0.00000000000E+00 0. -1.
        -24    2    1    2    0    0  0.34609174503E+03 -0.69139152811E+03 -0.69115981654E+03  0.10401973196E+04  0.80664927648E+02 0.  0.
    5000000    2    1    2    0    0 -0.34609174503E+03  0.69139152811E+03 -0.12202236969E+04  0.15641890171E+04  0.59994972260E+03 0.  0.
        -24    2    4    4    0    0 -0.29851708092E+03  0.77862735763E+03 -0.11412736110E+04  0.14157865194E+04  0.81074062335E+02 0.  0.
         24    2    4    4    0    0 -0.47574664104E+02 -0.87235829519E+02 -0.78950085890E+02  0.14840249774E+03  0.76920391689E+02 0.  0.
         13    1    3    3    0    0  0.15575275459E+03 -0.28690995456E+03 -0.34354954526E+03  0.47392249644E+03  0.00000000000E+00 0. -1.
        -14    1    3    3    0    0  0.19033899044E+03 -0.40448157355E+03 -0.34761027128E+03  0.56627482314E+03  0.00000000000E+00 0.  1.
         15    1    5    5    0    0 -0.70581109528E+02  0.27793544378E+03 -0.35987678939E+03  0.46015678329E+03  0.17770000000E+01 0. -1.
        -16    1    5    5    0    0 -0.22793597139E+03  0.50069191385E+03 -0.78139682163E+03  0.95562973609E+03  0.00000000000E+00 0.  1.
          4    1    6    6  502    0 -0.13054811605E+02 -0.82697180484E+02 -0.31285160833E+02  0.89375684917E+02  0.00000000000E+00 0. -1.
         -3    1    6    6    0  502 -0.34519852499E+02 -0.45386490354E+01 -0.47664925057E+02  0.59026812825E+02  0.00000000000E+00 0.  1.
<mgrwt>
<rscale>  0 0.86446168E+03</rscale>
<asrwt>0</asrwt>
<pdfrwt beam="1">  1        1 0.34736692E+00 0.86446168E+03</pdfrwt>
<pdfrwt beam="2">  1       -2 0.53307908E-01 0.86446168E+03</pdfrwt>
<totfact> 0.59698406E+00</totfact>
</mgrwt>
</event>
<event>
12    3  0.1182097E-007  0.4709974E+03  0.7818608E-02  0.1021639E+00
         -2   -1    0    0    0  501 -0.00000000000E+00  0.00000000000E+00  0.39992147114E+03  0.39992147114E+03  0.00000000000E+00 0.  1.
          1   -1    0    0  501    0  0.00000000000E+00 -0.00000000000E+00 -0.87778809542E+03  0.87778809542E+03  0.00000000000E+00 0. -1.
        -24    2    1    2    0    0 -0.20038722435E+03  0.28317825706E+03  0.10528988210E+03  0.37193011448E+03  0.83072774298E+02 0.  0.
    5000000    2    1    2    0    0  0.20038722435E+03 -0.28317825706E+03 -0.58315650638E+03  0.90577945208E+03  0.60001661637E+03 0.  0.
        -24    2    4    4    0    0 -0.10194825659E+03  0.48303653831E+02  0.30489607707E+02  0.14206942817E+03  0.80792426928E+02 0.  0.
         24    2    4    4    0    0  0.30233548093E+03 -0.33148191090E+03 -0.61364611409E+03  0.76371002391E+03  0.73514944047E+02 0.  0.
         11    1    3    3    0    0 -0.13462955724E+03  0.13047894432E+03  0.31821051154E+02  0.19016427606E+03  0.00000000000E+00 0. -1.
        -12    1    3    3    0    0 -0.65757667109E+02  0.15269931274E+03  0.73468830946E+02  0.18176583842E+03  0.00000000000E+00 0.  1.
         15    1    5    5    0    0 -0.70794632610E+02 -0.61150970963E+01 -0.26813053574E+01  0.71131016767E+02  0.17770000000E+01 0. -1.
        -16    1    5    5    0    0 -0.31153623978E+02  0.54418750927E+02  0.33170913065E+02  0.70938411407E+02  0.00000000000E+00 0.  1.
          2    1    6    6  502    0  0.24161694075E+03 -0.30261158234E+03 -0.51543451268E+03  0.64469004389E+03  0.00000000000E+00 0. -1.
         -1    1    6    6    0  502  0.60718540188E+02 -0.28870328555E+02 -0.98211601410E+02  0.11901998002E+03  0.00000000000E+00 0.  1.
<mgrwt>
<rscale>  0 0.47099736E+03</rscale>
<asrwt>0</asrwt>
<pdfrwt beam="1">  1        1 0.13504432E+00 0.47099736E+03</pdfrwt>
<pdfrwt beam="2">  1       -2 0.61526381E-01 0.47099736E+03</pdfrwt>
<totfact> 0.42975900E+01</totfact>
</mgrwt>
</event>
<event>
12    3  0.1182097E-007  0.9067431E+03  0.7818608E-02  0.9417191E-01
         -2   -1    0    0    0  501 -0.00000000000E+00  0.00000000000E+00  0.12300023833E+04  0.12300023833E+04  0.00000000000E+00 0.  1.
          1   -1    0    0  501    0  0.00000000000E+00 -0.00000000000E+00 -0.11446925584E+04  0.11446925584E+04  0.00000000000E+00 0. -1.
        -24    2    1    2    0    0  0.31907869754E+03 -0.78136659094E+03 -0.68137590492E+03  0.10862740655E+04  0.58079745647E+02 0.  0.
    5000000    2    1    2    0    0 -0.31907869754E+03  0.78136659094E+03  0.76668572981E+03  0.12884208762E+04  0.59989697558E+03 0.  0.
        -24    2    4    4    0    0 -0.23837359022E+03  0.71411575129E+02  0.36308360957E+02  0.26348459012E+03  0.78640006229E+02 0.  0.
         24    2    4    4    0    0 -0.80705107319E+02  0.70995501581E+03  0.73037736886E+03  0.10249362861E+04  0.80584432716E+02 0.  0.
         13    1    3    3    0    0  0.83591172798E+02 -0.24046559386E+03 -0.17637522598E+03  0.30970858293E+03  0.00000000000E+00 0. -1.
        -14    1    3    3    0    0  0.23548752474E+03 -0.54090099708E+03 -0.50500067894E+03  0.77656548255E+03  0.00000000000E+00 0.  1.
         15    1    5    5    0    0 -0.86132146596E+02 -0.26544470468E+00  0.40424190388E+02  0.95163491085E+02  0.17770000000E+01 0. -1.
        -16    1    5    5    0    0 -0.15224144362E+03  0.71677019833E+02 -0.41158294304E+01  0.16832109904E+03  0.00000000000E+00 0.  1.
          4    1    6    6  502    0 -0.67710345339E+02  0.57845969588E+03  0.63712601204E+03  0.86320905106E+03  0.00000000000E+00 0. -1.
         -1    1    6    6    0  502 -0.12994761980E+02  0.13149531993E+03  0.93251356818E+02  0.16172723503E+03  0.00000000000E+00 0.  1.
<mgrwt>
<rscale>  0 0.90674309E+03</rscale>
<asrwt>0</asrwt>
<pdfrwt beam="1">  1        1 0.17610655E+00 0.90674309E+03</pdfrwt>
<pdfrwt beam="2">  1       -2 0.18923114E+00 0.90674309E+03</pdfrwt>
<totfact> 0.16285585E+00</totfact>
</mgrwt>
</event>
<event>
12    3  0.1182097E-007  0.7466227E+03  0.7818608E-02  0.9640664E-01
          1   -1    0    0  501    0  0.00000000000E+00  0.00000000000E+00  0.86471291312E+03  0.86471291312E+03  0.00000000000E+00 0. -1.
         -2   -1    0    0    0  501 -0.00000000000E+00 -0.00000000000E+00 -0.84127654475E+03  0.84127654475E+03  0.00000000000E+00 0.  1.
        -24    2    1    2    0    0  0.56925872490E+03 -0.28022477775E+03  0.40066723395E+03  0.75465301243E+03  0.79909416649E+02 0.  0.
    5000000    2    1    2    0    0 -0.56925872490E+03  0.28022477775E+03 -0.37723086557E+03  0.95133644545E+03  0.60013038963E+03 0.  0.
        -24    2    4    4    0    0 -0.19026082807E+03  0.41006755148E+03 -0.14610308566E+03  0.48180780498E+03  0.80237583650E+02 0.  0.
         24    2    4    4    0    0 -0.37899789683E+03 -0.12984277373E+03 -0.23112777991E+03  0.46952864046E+03  0.80861250769E+02 0.  0.
         11    1    3    3    0    0  0.26433505013E+03 -0.86101329146E+02  0.17770781567E+03  0.32994927695E+03  0.00000000000E+00 0. -1.
        -12    1    3    3    0    0  0.30492367477E+03 -0.19412344860E+03  0.22295941828E+03  0.42470373548E+03  0.00000000000E+00 0.  1.
         15    1    5    5    0    0 -0.16507940324E+03  0.37569147417E+03 -0.15430007711E+03  0.43841414742E+03  0.17770000000E+01 0. -1.
        -16    1    5    5    0    0 -0.25181424831E+02  0.34376077310E+02  0.81969914450E+01  0.43393657560E+02  0.00000000000E+00 0.  1.
          4    1    6    6  502    0 -0.16082405638E+03 -0.61195117468E+02 -0.54337481613E+02  0.18044883325E+03  0.00000000000E+00 0. -1.
         -3    1    6    6    0  502 -0.21817384046E+03 -0.68647656261E+02 -0.17679029830E+03  0.28907980722E+03  0.00000000000E+00 0.  1.
<mgrwt>
<rscale>  0 0.74662266E+03</rscale>
<asrwt>0</asrwt>
<pdfrwt beam="1">  1        1 0.13303276E+00 0.74662266E+03</pdfrwt>
<pdfrwt beam="2">  1       -2 0.12942716E+00 0.74662266E+03</pdfrwt>
<totfact> 0.76663544E+00</totfact>
</mgrwt>
</event>
<event>
12    3  0.1182097E-007  0.6846275E+03  0.7818608E-02  0.9743888E-01
         -2   -1    0    0    0  501 -0.00000000000E+00  0.00000000000E+00  0.59184629537E+03  0.59184629537E+03  0.00000000000E+00 0.  1.
          1   -1    0    0  501    0  0.00000000000E+00 -0.00000000000E+00 -0.81324024721E+03  0.81324024721E+03  0.00000000000E+00 0. -1.
        -24    2    1    2    0    0 -0.38372619415E+03 -0.40267180535E+03 -0.19269123446E+02  0.56232586964E+03  0.80303858221E+02 0.  0.
    5000000    2    1    2    0    0  0.38372619415E+03  0.40267180535E+03 -0.20212482839E+03  0.84276067294E+03  0.60000060892E+03 0.  0.
        -24    2    4    4    0    0 -0.37267174486E+02  0.37761213901E+03 -0.61858004706E+02  0.39269886891E+03  0.80038859773E+02 0.  0.
         24    2    4    4    0    0  0.42099336864E+03  0.25059666332E+02 -0.14026682368E+03  0.45006180403E+03  0.70833906473E+02 0.  0.
         11    1    3    3    0    0 -0.14476561175E+03 -0.10230494198E+03 -0.20917682515E+02  0.17849631072E+03  0.00000000000E+00 0. -1.
        -12    1    3    3    0    0 -0.23896058240E+03 -0.30036686337E+03  0.16485590689E+01  0.38382955892E+03  0.00000000000E+00 0.  1.
         15    1    5    5    0    0 -0.29786640842E+02  0.49411967261E+02  0.40422198097E+01  0.57864356483E+02  0.17770000000E+01 0. -1.
        -16    1    5    5    0    0 -0.74805336447E+01  0.32820017175E+03 -0.65900224516E+02  0.33483451243E+03  0.00000000000E+00 0.  1.
          2    1    6    6  502    0  0.25382554643E+03  0.24283821327E+02 -0.49168983126E+02  0.25968192255E+03  0.00000000000E+00 0. -1.
         -1    1    6    6    0  502  0.16716782221E+03  0.77584500494E+00 -0.91097840556E+02  0.19037988148E+03  0.00000000000E+00 0.  1.
<mgrwt>
<rscale>  0 0.68462750E+03</rscale>
<asrwt>0</asrwt>
<pdfrwt beam="1">  1        1 0.12511388E+00 0.68462750E+03</pdfrwt>
<pdfrwt beam="2">  1       -2 0.91053277E-01 0.68462750E+03</pdfrwt>
<totfact> 0.19952968E+01</totfact>
</mgrwt>
</event>
<event>
12    3  0.1182097E-007  0.5637674E+03  0.7818608E-02  0.9983566E-01
         -2   -1    0    0    0  501 -0.00000000000E+00  0.00000000000E+00  0.29583569893E+03  0.29583569893E+03  0.00000000000E+00 0.  1.
          1   -1    0    0  501    0  0.00000000000E+00 -0.00000000000E+00 -0.13331657913E+04  0.13331657913E+04  0.00000000000E+00 0. -1.
        -24    2    1    2    0    0  0.35808514318E+03  0.19546620795E+03 -0.72282087648E+02  0.42162579290E+03  0.78176728189E+02 0.  0.
    5000000    2    1    2    0    0 -0.35808514318E+03 -0.19546620795E+03 -0.96504800473E+03  0.12073756973E+04  0.60000534568E+03 0.  0.
        -24    2    4    4    0    0 -0.46165151462E+03 -0.30505431408E+03 -0.81998326978E+03  0.99226626009E+03  0.77714301817E+02 0.  0.
         24    2    4    4    0    0  0.10356637144E+03  0.10958810612E+03 -0.14506473495E+03  0.21510943724E+03  0.49927410947E+02 0.  0.
         13    1    3    3    0    0  0.25939621318E+03  0.17029005310E+03 -0.31420564328E+02  0.31188515428E+03  0.00000000000E+00 0. -1.
        -14    1    3    3    0    0  0.98688930004E+02  0.25176154849E+02 -0.40861523320E+02  0.10974063863E+03  0.00000000000E+00 0.  1.
         15    1    5    5    0    0 -0.15265802465E+03 -0.14459090441E+03 -0.32513729498E+03  0.38720591479E+03  0.17770000000E+01 0. -1.
        -16    1    5    5    0    0 -0.30899348997E+03 -0.16046340966E+03 -0.49484597480E+03  0.60506034530E+03  0.00000000000E+00 0.  1.
          2    1    6    6  502    0  0.27943188214E+02  0.60885778440E+02 -0.78558468940E+02  0.10324404499E+03  0.00000000000E+00 0. -1.
         -1    1    6    6    0  502  0.75623183231E+02  0.48702327685E+02 -0.66506266015E+02  0.11186539225E+03  0.00000000000E+00 0.  1.
<mgrwt>
<rscale>  0 0.56376736E+03</rscale>
<asrwt>0</asrwt>
<pdfrwt beam="1">  1        1 0.20510244E+00 0.56376736E+03</pdfrwt>
<pdfrwt beam="2">  1       -2 0.45513183E-01 0.56376736E+03</pdfrwt>
<totfact> 0.36105044E+01</totfact>
</mgrwt>
</event>
<event>
12    3  0.1182097E-007  0.1437980E+04  0.7818608E-02  0.8926776E-01
          1   -1    0    0  501    0  0.00000000000E+00  0.00000000000E+00  0.20194926691E+04  0.20194926691E+04  0.00000000000E+00 0. -1.
         -2   -1    0    0    0  501 -0.00000000000E+00 -0.00000000000E+00 -0.14029228959E+04  0.14029228959E+04  0.00000000000E+00 0.  1.
        -24    2    1    2    0    0 -0.84545168747E+03 -0.11221885881E+04 -0.53879262850E+03  0.15069544333E+04  0.80736512112E+02 0.  0.
    5000000    2    1    2    0    0  0.84545168747E+03  0.11221885881E+04  0.11553624017E+04  0.19154611316E+04  0.60002773627E+03 0.  0.
        -24    2    4    4    0    0  0.80554966815E+03  0.78909687899E+03  0.10783644316E+04  0.15623888956E+04  0.81271530423E+02 0.  0.
         24    2    4    4    0    0  0.39902019325E+02  0.33309170914E+03  0.76997970153E+02  0.35307223599E+03  0.78670569955E+02 0.  0.
         11    1    3    3    0    0 -0.46046326991E+03 -0.66865067930E+03 -0.33219151881E+03  0.87719516587E+03  0.00000000000E+00 0. -1.
        -12    1    3    3    0    0 -0.38498841757E+03 -0.45353790883E+03 -0.20660110968E+03  0.62975926744E+03  0.00000000000E+00 0.  1.
         15    1    5    5    0    0  0.18455740892E+03  0.14161954253E+03  0.24616136493E+03  0.33869766360E+03  0.17770000000E+01 0. -1.
        -16    1    5    5    0    0  0.62099225923E+03  0.64747733645E+03  0.83220306663E+03  0.12236912320E+04  0.00000000000E+00 0.  1.
          2    1    6    6  502    0 -0.67833991589E+01  0.61463814686E+01 -0.78796330133E+01  0.12078125920E+02  0.00000000000E+00 0. -1.
         -3    1    6    6    0  502  0.46685418484E+02  0.32694532767E+03  0.84877603166E+02  0.34099411007E+03  0.00000000000E+00 0.  1.
<mgrwt>
<rscale>  0 0.14379804E+04</rscale>
<asrwt>0</asrwt>
<pdfrwt beam="1">  1        1 0.31069118E+00 0.14379804E+04</pdfrwt>
<pdfrwt beam="2">  1       -2 0.21583429E+00 0.14379804E+04</pdfrwt>
<totfact> 0.25229372E-01</totfact>
</mgrwt>
</event>
<event>
12    3  0.1182097E-007  0.4569143E+03  0.7818608E-02  0.1025680E+00
         -2   -1    0    0    0  501 -0.00000000000E+00  0.00000000000E+00  0.44356000142E+03  0.44356000142E+03  0.00000000000E+00 0.  1.
          1   -1    0    0  501    0  0.00000000000E+00 -0.00000000000E+00 -0.84897117027E+03  0.84897117027E+03  0.00000000000E+00 0. -1.
        -24    2    1    2    0    0 -0.30610996430E+03 -0.29811308713E+03  0.32206110331E+02  0.43582438920E+03  0.79567215089E+02 0.  0.
    5000000    2    1    2    0    0  0.30610996430E+03  0.29811308713E+03 -0.43761727918E+03  0.85670678249E+03  0.59988574343E+03 0.  0.
        -24    2    4    4    0    0  0.18100644145E+02  0.26606220661E+02  0.13224045153E+03  0.15833961902E+03  0.80922021933E+02 0.  0.
         24    2    4    4    0    0  0.28800932015E+03  0.27150686647E+03 -0.56985773070E+03  0.69836716347E+03  0.79457628570E+02 0.  0.
         11    1    3    3    0    0 -0.20938188316E+03 -0.21074083487E+03 -0.14333024230E+02  0.29741874195E+03  0.00000000000E+00 0. -1.
        -12    1    3    3    0    0 -0.96728081136E+02 -0.87372252255E+02  0.46539134561E+02  0.13840564725E+03  0.00000000000E+00 0.  1.
         15    1    5    5    0    0 -0.80930139710E+01 -0.26538055638E+02  0.40152291264E+02  0.48837787572E+02  0.17770000000E+01 0. -1.
        -16    1    5    5    0    0  0.26193658116E+02  0.53144276300E+02  0.92088160263E+02  0.10950183144E+03  0.00000000000E+00 0.  1.
          4    1    6    6  502    0  0.19543248487E+03  0.14872832199E+03 -0.39880596616E+03  0.46835901673E+03  0.00000000000E+00 0. -1.
         -3    1    6    6    0  502  0.92576835287E+02  0.12277854448E+03 -0.17105176454E+03  0.23000814674E+03  0.00000000000E+00 0.  1.
<mgrwt>
<rscale>  0 0.45691427E+03</rscale>
<asrwt>0</asrwt>
<pdfrwt beam="1">  1        1 0.13061095E+00 0.45691427E+03</pdfrwt>
<pdfrwt beam="2">  1       -2 0.68240000E-01 0.45691427E+03</pdfrwt>
<totfact> 0.36461021E+01</totfact>
</mgrwt>
</event>
<event>
12    3  0.1182097E-007  0.9544494E+03  0.7818608E-02  0.9359965E-01
          1   -1    0    0  501    0  0.00000000000E+00  0.00000000000E+00  0.15702039641E+04  0.15702039641E+04  0.00000000000E+00 0. -1.
         -2   -1    0    0    0  501 -0.00000000000E+00 -0.00000000000E+00 -0.77944547578E+03  0.77944547578E+03  0.00000000000E+00 0.  1.
        -24    2    1    2    0    0  0.39621672681E+03  0.84049933377E+03  0.82232035950E+03  0.12430505997E+04  0.74412332239E+02 0.  0.
    5000000    2    1    2    0    0 -0.39621672681E+03 -0.84049933377E+03 -0.31561871183E+02  0.11065988401E+04  0.60011500283E+03 0.  0.
        -24    2    4    4    0    0 -0.15319558867E+03 -0.64040392417E+03 -0.25748284513E+03  0.71140127463E+03  0.78792661663E+02 0.  0.
         24    2    4    4    0    0 -0.24302113814E+03 -0.20009540960E+03  0.22592097394E+03  0.39519756551E+03  0.77739197286E+02 0.  0.
         13    1    3    3    0    0  0.46923540180E+02  0.62959617040E+02  0.52229110919E+02  0.94305949060E+02  0.00000000000E+00 0. -1.
        -14    1    3    3    0    0  0.34929318663E+03  0.77753971673E+03  0.77009124858E+03  0.11487446507E+04  0.00000000000E+00 0.  1.
         15    1    5    5    0    0 -0.21489512825E+01 -0.14976222045E+03 -0.60229877795E+02  0.16144391154E+03  0.17770000000E+01 0. -1.
        -16    1    5    5    0    0 -0.15104663738E+03 -0.49064170372E+03 -0.19725296733E+03  0.54995736309E+03  0.00000000000E+00 0.  1.
          4    1    6    6  502    0 -0.17670203808E+03 -0.14807443972E+03  0.12022020375E+03  0.26000489870E+03  0.00000000000E+00 0. -1.
         -3    1    6    6    0  502 -0.66319100064E+02 -0.52020969884E+02  0.10570077020E+03  0.13519266682E+03  0.00000000000E+00 0.  1.
<mgrwt>
<rscale>  0 0.95444937E+03</rscale>
<asrwt>0</asrwt>
<pdfrwt beam="1">  1        1 0.24156984E+00 0.95444937E+03</pdfrwt>
<pdfrwt beam="2">  1       -2 0.11991469E+00 0.95444937E+03</pdfrwt>
<totfact> 0.27455565E+00</totfact>
</mgrwt>
</event>
<event>
12    3  0.1182097E-007  0.1115911E+04  0.7818608E-02  0.9189821E-01
          3   -1    0    0  501    0  0.00000000000E+00  0.00000000000E+00  0.64761861001E+03  0.64761861001E+03  0.00000000000E+00 0. -1.
         -4   -1    0    0    0  501 -0.00000000000E+00 -0.00000000000E+00 -0.19452463756E+04  0.19452463756E+04  0.00000000000E+00 0.  1.
        -24    2    1    2    0    0 -0.46767669671E+03  0.92967277562E+03 -0.60933243663E+03  0.12083916176E+04  0.76885114000E+02 0.  0.
    5000000    2    1    2    0    0  0.46767669671E+03 -0.92967277562E+03 -0.68829532892E+03  0.13844733680E+04  0.60000257037E+03 0.  0.
        -24    2    4    4    0    0  0.43206453283E+03 -0.23506060251E+03 -0.26895947814E+03  0.56821095270E+03  0.92688934119E+02 0.  0.
         24    2    4    4    0    0  0.35612163879E+02 -0.69461217311E+03 -0.41933585078E+03  0.81626241527E+03  0.81776999148E+02 0.  0.
         13    1    3    3    0    0 -0.33838541465E+03  0.72562393977E+03 -0.49321785554E+03  0.94037154563E+03  0.00000000000E+00 0. -1.
        -14    1    3    3    0    0 -0.12929128206E+03  0.20404883585E+03 -0.11611458109E+03  0.26802007195E+03  0.00000000000E+00 0.  1.
         15    1    5    5    0    0  0.72129103899E+01 -0.12758538336E+01  0.69785424503E+01  0.10271887024E+02  0.17770000000E+01 0. -1.
        -16    1    5    5    0    0  0.42485162244E+03 -0.23378474867E+03 -0.27593802059E+03  0.55793906568E+03  0.00000000000E+00 0.  1.
          4    1    6    6  502    0  0.45452600129E+02 -0.43891044647E+03 -0.22752746762E+03  0.49646456812E+03  0.00000000000E+00 0. -1.
         -3    1    6    6    0  502 -0.98404362502E+01 -0.25570172664E+03 -0.19180838316E+03  0.31979784715E+03  0.00000000000E+00 0.  1.
<mgrwt>
<rscale>  0 0.11159107E+04</rscale>
<asrwt>0</asrwt>
<pdfrwt beam="1">  1        3 0.99633633E-01 0.11159107E+04</pdfrwt>
<pdfrwt beam="2">  1       -4 0.29926867E+00 0.11159107E+04</pdfrwt>
<totfact> 0.61146270E-02</totfact>
</mgrwt>
</event>
<event>
12    3  0.1182097E-007  0.5739189E+03  0.7818608E-02  0.9961044E-01
         -2   -1    0    0    0  501 -0.00000000000E+00  0.00000000000E+00  0.30269809456E+03  0.30269809456E+03  0.00000000000E+00 0.  1.
          1   -1    0    0  501    0  0.00000000000E+00 -0.00000000000E+00 -0.17268238995E+04  0.17268238995E+04  0.00000000000E+00 0. -1.
        -24    2    1    2    0    0 -0.44610263113E+03 -0.22787471765E+03 -0.14075240612E+03  0.52685246604E+03  0.82630724897E+02 0.  0.
    5000000    2    1    2    0    0  0.44610263113E+03  0.22787471765E+03 -0.12833733988E+04  0.15026695280E+04  0.60002832036E+03 0.  0.
        -24    2    4    4    0    0  0.14103406563E+03 -0.11488418954E+03 -0.81847282022E+02  0.21407821181E+03  0.77727205805E+02 0.  0.
         24    2    4    4    0    0  0.30506856550E+03  0.34275890719E+03 -0.12015261168E+04  0.12885913162E+04  0.79070049870E+02 0.  0.
         13    1    3    3    0    0 -0.44238178207E+02 -0.21255128072E+02 -0.41353887638E+02  0.64178975554E+02  0.00000000000E+00 0. -1.
        -14    1    3    3    0    0 -0.40186445292E+03 -0.20661958958E+03 -0.99398518486E+02  0.46267349048E+03  0.00000000000E+00 0.  1.
         15    1    5    5    0    0  0.13402208671E+03 -0.10766166391E+03 -0.95849539915E+02  0.19683303999E+03  0.17770000000E+01 0. -1.
        -16    1    5    5    0    0  0.70119789195E+01 -0.72225256370E+01  0.14002257893E+02  0.17245171819E+02  0.00000000000E+00 0.  1.
          4    1    6    6  502    0  0.26275835067E+03  0.24881833068E+03 -0.90449017101E+03  0.97419452984E+03  0.00000000000E+00 0. -1.
         -3    1    6    6    0  502  0.42310214826E+02  0.93940576508E+02 -0.29703594581E+03  0.31439678639E+03  0.00000000000E+00 0.  1.
<mgrwt>
<rscale>  0 0.57391885E+03</rscale>
<asrwt>0</asrwt>
<pdfrwt beam="1">  1        1 0.26566522E+00 0.57391885E+03</pdfrwt>
<pdfrwt beam="2">  1       -2 0.46568937E-01 0.57391885E+03</pdfrwt>
<totfact> 0.18613966E+01</totfact>
</mgrwt>
</event>
<event>
12    3  0.1182097E-007  0.8057683E+03  0.7818608E-02  0.9551705E-01
         -2   -1    0    0    0  501 -0.00000000000E+00  0.00000000000E+00  0.49179228172E+03  0.49179228172E+03  0.00000000000E+00 0.  1.
          1   -1    0    0  501    0  0.00000000000E+00 -0.00000000000E+00 -0.22841336895E+04  0.22841336895E+04  0.00000000000E+00 0. -1.
        -24    2    1    2    0    0  0.28367295513E+03 -0.74984019770E+03 -0.15482852228E+04  0.17453324213E+04  0.79167304840E+02 0.  0.
    5000000    2    1    2    0    0 -0.28367295513E+03  0.74984019770E+03 -0.24405618500E+03  0.10305935499E+04  0.59985746322E+03 0.  0.
        -24    2    4    4    0    0 -0.81362586938E+02  0.24805220372E+03 -0.37865765541E+03  0.46726831237E+03  0.82512359172E+02 0.  0.
         24    2    4    4    0    0 -0.20231036820E+03  0.50178799397E+03  0.13460147041E+03  0.56332523757E+03  0.80604537537E+02 0.  0.
         11    1    3    3    0    0  0.11710179999E+03 -0.36297037337E+03 -0.81125091211E+03  0.89643090415E+03  0.00000000000E+00 0. -1.
        -12    1    3    3    0    0  0.16657115515E+03 -0.38686982432E+03 -0.73703431067E+03  0.84890151714E+03  0.00000000000E+00 0.  1.
         15    1    5    5    0    0 -0.67893638140E+02  0.12456182220E+03 -0.14633141829E+03  0.20381667095E+03  0.17770000000E+01 0. -1.
        -16    1    5    5    0    0 -0.13468948798E+02  0.12349038153E+03 -0.23232623712E+03  0.26345164142E+03  0.00000000000E+00 0.  1.
          4    1    6    6  502    0 -0.66785478015E+02  0.11485629178E+03  0.35487819343E+01  0.13290922348E+03  0.00000000000E+00 0. -1.
         -3    1    6    6    0  502 -0.13552489018E+03  0.38693170220E+03  0.13105268848E+03  0.43041601408E+03  0.00000000000E+00 0.  1.
<mgrwt>
<rscale>  0 0.80576835E+03</rscale>
<asrwt>0</asrwt>
<pdfrwt beam="1">  1        1 0.35140518E+00 0.80576835E+03</pdfrwt>
<pdfrwt beam="2">  1       -2 0.75660351E-01 0.80576835E+03</pdfrwt>
<totfact> 0.27313590E+00</totfact>
</mgrwt>
</event>
<event>
12    3  0.1182097E-007  0.1128260E+04  0.7818608E-02  0.9178077E-01
          1   -1    0    0  501    0  0.00000000000E+00  0.00000000000E+00  0.17792551768E+04  0.17792551768E+04  0.00000000000E+00 0. -1.
         -2   -1    0    0    0  501 -0.00000000000E+00 -0.00000000000E+00 -0.79603142494E+03  0.79603142494E+03  0.00000000000E+00 0.  1.
        -24    2    1    2    0    0  0.28287209310E+02 -0.11095513237E+04  0.54924343583E+03  0.12409348190E+04  0.79665344960E+02 0.  0.
    5000000    2    1    2    0    0 -0.28287209310E+02  0.11095513237E+04  0.43398031605E+03  0.13343517828E+04  0.60020951293E+03 0.  0.
        -24    2    4    4    0    0  0.10869231455E+03  0.31587107046E+03  0.39558598145E+03  0.52394986565E+03  0.80290974622E+02 0.  0.
         24    2    4    4    0    0 -0.13697952386E+03  0.79368025320E+03  0.38394334607E+02  0.81040191711E+03  0.81150527143E+02 0.  0.
         13    1    3    3    0    0 -0.22246656213E+02 -0.65373551999E+03  0.31738685195E+03  0.72704845615E+03  0.00000000000E+00 0. -1.
        -14    1    3    3    0    0  0.50533865522E+02 -0.45581580367E+03  0.23185658388E+03  0.51388636286E+03  0.00000000000E+00 0.  1.
         15    1    5    5    0    0  0.94016979869E+02  0.25350059847E+03  0.26549650877E+03  0.37893706578E+03  0.17770000000E+01 0. -1.
        -16    1    5    5    0    0  0.14675334683E+02  0.62370471990E+02  0.13008947268E+03  0.14501279987E+03  0.00000000000E+00 0.  1.
          2    1    6    6  502    0 -0.58978609894E+02  0.55764674625E+03  0.19474123482E+02  0.56109501113E+03  0.00000000000E+00 0. -1.
         -1    1    6    6    0  502 -0.78000913968E+02  0.23603350695E+03  0.18920211125E+02  0.24930690598E+03  0.00000000000E+00 0.  1.
<mgrwt>
<rscale>  0 0.11282601E+04</rscale>
<asrwt>0</asrwt>
<pdfrwt beam="1">  1        1 0.27373156E+00 0.11282601E+04</pdfrwt>
<pdfrwt beam="2">  1       -2 0.12246637E+00 0.11282601E+04</pdfrwt>
<totfact> 0.18388587E+00</totfact>
</mgrwt>
</event>
<event>
12    3  0.1182097E-007  0.3289252E+03  0.7818608E-02  0.1071613E+00
          1   -1    0    0  501    0  0.00000000000E+00  0.00000000000E+00  0.59725767236E+03  0.59725767236E+03  0.00000000000E+00 0. -1.
         -2   -1    0    0    0  501 -0.00000000000E+00 -0.00000000000E+00 -0.40701216617E+03  0.40701216617E+03  0.00000000000E+00 0.  1.
        -24    2    1    2    0    0  0.22864919329E+03 -0.18663868539E+03  0.13118891212E+03  0.33282232355E+03  0.80285216014E+02 0.  0.
    5000000    2    1    2    0    0 -0.22864919329E+03  0.18663868539E+03  0.59056594064E+02  0.67144751498E+03  0.60019965977E+03 0.  0.
        -24    2    4    4    0    0 -0.11100950120E+03  0.36308391064E+01 -0.25035585357E+03  0.28498578183E+03  0.78756270091E+02 0.  0.
         24    2    4    4    0    0 -0.11763969209E+03  0.18300784628E+03  0.30941244763E+03  0.38646173315E+03  0.79282024967E+02 0.  0.
         11    1    3    3    0    0  0.12669809221E+03 -0.14995835561E+03  0.70213594053E+02  0.20849427756E+03  0.00000000000E+00 0. -1.
        -12    1    3    3    0    0  0.10195110108E+03 -0.36680329782E+02  0.60975318072E+02  0.12432804599E+03  0.00000000000E+00 0.  1.
         15    1    5    5    0    0  0.59074669605E+00 -0.96681419599E+01 -0.81834250298E+02  0.82424657728E+02  0.17770000000E+01 0. -1.
        -16    1    5    5    0    0 -0.11160024790E+03  0.13298981066E+02 -0.16852160327E+03  0.20256112410E+03  0.00000000000E+00 0.  1.
          4    1    6    6  502    0 -0.37358595488E+02  0.12872717563E+03  0.19322147210E+03  0.23516140772E+03  0.00000000000E+00 0. -1.
         -3    1    6    6    0  502 -0.80281096604E+02  0.54280670649E+02  0.11619097553E+03  0.15130032542E+03  0.00000000000E+00 0.  1.
<mgrwt>
<rscale>  0 0.32892523E+03</rscale>
<asrwt>0</asrwt>
<pdfrwt beam="1">  1        1 0.91885795E-01 0.32892523E+03</pdfrwt>
<pdfrwt beam="2">  1       -2 0.62617257E-01 0.32892523E+03</pdfrwt>
<totfact> 0.75521354E+01</totfact>
</mgrwt>
</event>
<event>
12    3  0.1182097E-007  0.1359119E+04  0.7818608E-02  0.8983953E-01
          1   -1    0    0  501    0  0.00000000000E+00  0.00000000000E+00  0.12667784071E+04  0.12667784071E+04  0.00000000000E+00 0. -1.
         -2   -1    0    0    0  501 -0.00000000000E+00 -0.00000000000E+00 -0.15597035445E+04  0.15597035445E+04  0.00000000000E+00 0.  1.
        -24    2    1    2    0    0 -0.11402192070E+04 -0.69891333386E+03 -0.51111844490E+02  0.13408645863E+04  0.82010547538E+02 0.  0.
    5000000    2    1    2    0    0  0.11402192070E+04  0.69891333386E+03 -0.24181329287E+03  0.14856173652E+04  0.60000466582E+03 0.  0.
        -24    2    4    4    0    0  0.92733333384E+03  0.41687652631E+03 -0.39351165703E+03  0.10928198037E+04  0.75303047335E+02 0.  0.
         24    2    4    4    0    0  0.21288587317E+03  0.28203680755E+03  0.15169836416E+03  0.39279756152E+03  0.80077305399E+02 0.  0.
         11    1    3    3    0    0 -0.59949898539E+03 -0.37619800634E+03  0.13241030357E+02  0.70788367572E+03  0.00000000000E+00 0. -1.
        -12    1    3    3    0    0 -0.54072022162E+03 -0.32271532752E+03 -0.64352874847E+02  0.63298091060E+03  0.00000000000E+00 0.  1.
         15    1    5    5    0    0  0.26520944055E+03  0.83137179913E+02 -0.11386526210E+03  0.30036027314E+03  0.17770000000E+01 0. -1.
        -16    1    5    5    0    0  0.66212389330E+03  0.33373934640E+03 -0.27964639493E+03  0.79245953058E+03  0.00000000000E+00 0.  1.
          2    1    6    6  502    0  0.21350377699E+03  0.24769513855E+03  0.14539069045E+03  0.35787595242E+03  0.00000000000E+00 0. -1.
         -1    1    6    6    0  502 -0.61790381724E+00  0.34341668996E+02  0.63076737083E+01  0.34921609101E+02  0.00000000000E+00 0.  1.
<mgrwt>
<rscale>  0 0.13591195E+04</rscale>
<asrwt>0</asrwt>
<pdfrwt beam="1">  1        1 0.19488899E+00 0.13591195E+04</pdfrwt>
<pdfrwt beam="2">  1       -2 0.23995439E+00 0.13591195E+04</pdfrwt>
<totfact> 0.59510486E-01</totfact>
</mgrwt>
</event>
<event>
12    3  0.1182097E-007  0.9409940E+03  0.7818608E-02  0.9375740E-01
         -2   -1    0    0    0  501 -0.00000000000E+00  0.00000000000E+00  0.71221123595E+03  0.71221123595E+03  0.00000000000E+00 0.  1.
          1   -1    0    0  501    0  0.00000000000E+00 -0.00000000000E+00 -0.18045100834E+04  0.18045100834E+04  0.00000000000E+00 0. -1.
        -24    2    1    2    0    0 -0.16737149168E+02  0.91580691936E+03  0.66980435248E+02  0.92203179664E+03  0.81693387769E+02 0.  0.
    5000000    2    1    2    0    0  0.16737149168E+02 -0.91580691936E+03 -0.11592792827E+04  0.15946895227E+04  0.60010313512E+03 0.  0.
        -24    2    4    4    0    0  0.14778020610E+03 -0.59317282873E+03 -0.10632299115E+04  0.12292233158E+04  0.82698979774E+02 0.  0.
         24    2    4    4    0    0 -0.13104305694E+03 -0.32263409063E+03 -0.96049371145E+02  0.36546620688E+03  0.55452930230E+02 0.  0.
         11    1    3    3    0    0 -0.21510313436E+01  0.77005717358E+03  0.83732758284E+02  0.77459915591E+03  0.00000000000E+00 0. -1.
        -12    1    3    3    0    0 -0.14586117824E+02  0.14574974578E+03 -0.16752323036E+02  0.14743264074E+03  0.00000000000E+00 0.  1.
         15    1    5    5    0    0  0.15631834379E+03 -0.54964122683E+03 -0.96624488480E+03  0.11225743797E+04  0.17770000000E+01 0. -1.
        -16    1    5    5    0    0 -0.85381376848E+01 -0.43531601900E+02 -0.96985026718E+02  0.10664893608E+03  0.00000000000E+00 0.  1.
          4    1    6    6  502    0 -0.66533042457E+02 -0.12287746195E+03 -0.15352489405E+02  0.14057458990E+03  0.00000000000E+00 0. -1.
         -3    1    6    6    0  502 -0.64510014480E+02 -0.19975662867E+03 -0.80696881740E+02  0.22489161698E+03  0.00000000000E+00 0.  1.
<mgrwt>
<rscale>  0 0.94099397E+03</rscale>
<asrwt>0</asrwt>
<pdfrwt beam="1">  1        1 0.27761693E+00 0.94099397E+03</pdfrwt>
<pdfrwt beam="2">  1       -2 0.10957096E+00 0.94099397E+03</pdfrwt>
<totfact> 0.23798618E+00</totfact>
</mgrwt>
</event>
<event>
12    3  0.1182097E-007  0.1898277E+04  0.7818608E-02  0.8655715E-01
          1   -1    0    0  501    0  0.00000000000E+00  0.00000000000E+00  0.78071011422E+03  0.78071011422E+03  0.00000000000E+00 0. -1.
         -2   -1    0    0    0  501 -0.00000000000E+00 -0.00000000000E+00 -0.48142648026E+04  0.48142648026E+04  0.00000000000E+00 0.  1.
        -24    2    1    2    0    0  0.13249049113E+04  0.13390862260E+04 -0.22151166507E+04  0.29088619823E+04  0.78811871068E+02 0.  0.
    5000000    2    1    2    0    0 -0.13249049113E+04 -0.13390862260E+04 -0.18184380377E+04  0.26861129346E+04  0.59996737863E+03 0.  0.
        -24    2    4    4    0    0 -0.17968999110E+02 -0.11975210711E+00 -0.17986315145E+03  0.19768415175E+03  0.80033563793E+02 0.  0.
         24    2    4    4    0    0 -0.13069359122E+04 -0.13389664739E+04 -0.16385748863E+04  0.24884287828E+04  0.80233735501E+02 0.  0.
         11    1    3    3    0    0  0.55038006595E+03  0.53598275671E+03 -0.95913334493E+03  0.12288744874E+04  0.00000000000E+00 0. -1.
        -12    1    3    3    0    0  0.77452484537E+03  0.80310346933E+03 -0.12559833057E+04  0.16799874948E+04  0.00000000000E+00 0.  1.
         15    1    5    5    0    0 -0.20176150349E+02 -0.15153332696E+02 -0.18070428272E+03  0.18246615044E+03  0.17770000000E+01 0. -1.
        -16    1    5    5    0    0  0.22071512382E+01  0.15033580589E+02  0.84113127160E+00  0.15218001306E+02  0.00000000000E+00 0.  1.
          4    1    6    6  502    0 -0.94323366727E+03 -0.10052153988E+04 -0.12363151608E+04  0.18516541053E+04  0.00000000000E+00 0. -1.
         -3    1    6    6    0  502 -0.36370224493E+03 -0.33375107514E+03 -0.40225972550E+03  0.63677467749E+03  0.00000000000E+00 0.  1.
<mgrwt>
<rscale>  0 0.18982769E+04</rscale>
<asrwt>0</asrwt>
<pdfrwt beam="1">  1        1 0.12010925E+00 0.18982769E+04</pdfrwt>
<pdfrwt beam="2">  1       -2 0.74065611E+00 0.18982769E+04</pdfrwt>
<totfact> 0.28908462E-03</totfact>
</mgrwt>
</event>
<event>
12    3  0.1182097E-007  0.1082100E+04  0.7818608E-02  0.9222816E-01
          1   -1    0    0  501    0  0.00000000000E+00  0.00000000000E+00  0.14029212744E+04  0.14029212744E+04  0.00000000000E+00 0. -1.
         -2   -1    0    0    0  501 -0.00000000000E+00 -0.00000000000E+00 -0.95741781568E+03  0.95741781568E+03  0.00000000000E+00 0.  1.
        -24    2    1    2    0    0 -0.49709977317E+03  0.87757142906E+03  0.60041823732E+03  0.11765938920E+04  0.81432974277E+02 0.  0.
    5000000    2    1    2    0    0  0.49709977317E+03 -0.87757142906E+03 -0.15491477862E+03  0.11837451981E+04  0.60001192305E+03 0.  0.
        -24    2    4    4    0    0  0.56493195301E+03 -0.45700067429E+03 -0.16435707386E+03  0.74958289797E+03  0.82846516913E+02 0.  0.
         24    2    4    4    0    0 -0.67832179836E+02 -0.42057075476E+03  0.94422952377E+01  0.43416230013E+03  0.83227288367E+02 0.  0.
         13    1    3    3    0    0 -0.11369671390E+03  0.21787740034E+03  0.18669563492E+03  0.30863046581E+03  0.00000000000E+00 0. -1.
        -14    1    3    3    0    0 -0.38340305928E+03  0.65969402872E+03  0.41372260240E+03  0.86796342615E+03  0.00000000000E+00 0.  1.
         15    1    5    5    0    0  0.33437278942E+03 -0.29580546687E+03 -0.64556144290E+02  0.45108390575E+03  0.17770000000E+01 0. -1.
        -16    1    5    5    0    0  0.23055916359E+03 -0.16119520743E+03 -0.99800929570E+02  0.29849899222E+03  0.00000000000E+00 0.  1.
          2    1    6    6  502    0 -0.67252815896E+02 -0.31535073358E+03  0.39193312500E+02  0.32481555098E+03  0.00000000000E+00 0. -1.
         -1    1    6    6    0  502 -0.57936393980E+00 -0.10522002119E+03 -0.29751017262E+02  0.10934674915E+03  0.00000000000E+00 0.  1.
<mgrwt>
<rscale>  0 0.10821004E+04</rscale>
<asrwt>0</asrwt>
<pdfrwt beam="1">  1        1 0.21583404E+00 0.10821004E+04</pdfrwt>
<pdfrwt beam="2">  1       -2 0.14729505E+00 0.10821004E+04</pdfrwt>
<totfact> 0.20837451E+00</totfact>
</mgrwt>
</event>
<event>
12    3  0.1182097E-007  0.1390145E+04  0.7818608E-02  0.8960983E-01
         -2   -1    0    0    0  501 -0.00000000000E+00  0.00000000000E+00  0.11276698552E+04  0.11276698552E+04  0.00000000000E+00 0.  1.
          1   -1    0    0  501    0  0.00000000000E+00 -0.00000000000E+00 -0.23155307938E+04  0.23155307938E+04  0.00000000000E+00 0. -1.
        -24    2    1    2    0    0 -0.61605937903E+03 -0.12382660691E+04 -0.13409616283E+04  0.19279498407E+04  0.77333583236E+02 0.  0.
    5000000    2    1    2    0    0  0.61605937903E+03  0.12382660691E+04  0.15310068981E+03  0.15152508083E+04  0.59976093108E+03 0.  0.
        -24    2    4    4    0    0  0.26714659541E+03  0.41799031883E+03 -0.21548929436E+03  0.54732068471E+03  0.83911178336E+02 0.  0.
         24    2    4    4    0    0  0.34891278362E+03  0.82027575028E+03  0.36858998417E+03  0.96793012360E+03  0.80235345491E+02 0.  0.
         11    1    3    3    0    0 -0.56708090186E+03 -0.10849110023E+04 -0.11799773487E+04  0.17002820871E+04  0.00000000000E+00 0. -1.
        -12    1    3    3    0    0 -0.48978477166E+02 -0.15335506680E+03 -0.16098427967E+03  0.22766775363E+03  0.00000000000E+00 0.  1.
         15    1    5    5    0    0 -0.35890982879E+01  0.27541359207E+02 -0.15081054409E+02  0.31654447154E+02  0.17770000000E+01 0. -1.
        -16    1    5    5    0    0  0.27073569370E+03  0.39044895963E+03 -0.20040823995E+03  0.51566623756E+03  0.00000000000E+00 0.  1.
          2    1    6    6  502    0  0.11311378363E+03  0.22352813401E+03  0.13865497948E+03  0.28632980647E+03  0.00000000000E+00 0. -1.
         -1    1    6    6    0  502  0.23579899999E+03  0.59674761627E+03  0.22993500469E+03  0.68160031713E+03  0.00000000000E+00 0.  1.
<mgrwt>
<rscale>  0 0.13901448E+04</rscale>
<asrwt>0</asrwt>
<pdfrwt beam="1">  1        1 0.35623550E+00 0.13901448E+04</pdfrwt>
<pdfrwt beam="2">  1       -2 0.17348767E+00 0.13901448E+04</pdfrwt>
<totfact> 0.30644584E-01</totfact>
</mgrwt>
</event>
<event>
12    3  0.1182097E-007  0.3295803E+03  0.7818608E-02  0.1071323E+00
         -2   -1    0    0    0  501 -0.00000000000E+00  0.00000000000E+00  0.18942712693E+04  0.18942712693E+04  0.00000000000E+00 0.  1.
          1   -1    0    0  501    0  0.00000000000E+00 -0.00000000000E+00 -0.23584145998E+03  0.23584145998E+03  0.00000000000E+00 0. -1.
        -24    2    1    2    0    0 -0.22304506111E+03 -0.11906444458E+03 -0.77543205473E+02  0.27610903426E+03  0.79358735094E+02 0.  0.
    5000000    2    1    2    0    0  0.22304506111E+03  0.11906444458E+03  0.17359730148E+04  0.18540036951E+04  0.59983493714E+03 0.  0.
        -24    2    4    4    0    0  0.28220450667E+03  0.11790360336E+03  0.17291015293E+04  0.17579276756E+04  0.83528262929E+02 0.  0.
         24    2    4    4    0    0 -0.59159445563E+02  0.11608412137E+01  0.68714854976E+01  0.96076019431E+02  0.75380346544E+02 0.  0.
         11    1    3    3    0    0 -0.66535226038E+02 -0.25509068438E+02  0.13147642420E+02  0.72460398685E+02  0.00000000000E+00 0. -1.
        -12    1    3    3    0    0 -0.15650983507E+03 -0.93555376140E+02 -0.90690847892E+02  0.20364863557E+03  0.00000000000E+00 0.  1.
         15    1    5    5    0    0  0.48150095985E+02  0.57683808331E+02  0.43786036827E+03  0.44426423817E+03  0.17770000000E+01 0. -1.
        -16    1    5    5    0    0  0.23405441069E+03  0.60219795033E+02  0.12912411611E+04  0.13136634375E+04  0.00000000000E+00 0.  1.
          2    1    6    6  502    0 -0.73658380585E+02  0.46763375711E+01  0.19710310328E+02  0.76393203210E+02  0.00000000000E+00 0. -1.
         -1    1    6    6    0  502  0.14498935021E+02 -0.35154963574E+01 -0.12838824831E+02  0.19682816222E+02  0.00000000000E+00 0.  1.
<mgrwt>
<rscale>  0 0.32958033E+03</rscale>
<asrwt>0</asrwt>
<pdfrwt beam="1">  1        1 0.36283303E-01 0.32958033E+03</pdfrwt>
<pdfrwt beam="2">  1       -2 0.29142634E+00 0.32958033E+03</pdfrwt>
<totfact> 0.42392654E+00</totfact>
</mgrwt>
</event>
<event>
12    3  0.1182097E-007  0.1236884E+04  0.7818608E-02  0.9081171E-01
          1   -1    0    0  501    0  0.00000000000E+00  0.00000000000E+00  0.17105446827E+04  0.17105446827E+04  0.00000000000E+00 0. -1.
         -2   -1    0    0    0  501 -0.00000000000E+00 -0.00000000000E+00 -0.99701779032E+03  0.99701779032E+03  0.00000000000E+00 0.  1.
        -24    2    1    2    0    0  0.10406054612E+04  0.63560097367E+03  0.54558299020E+03  0.13382813088E+04  0.80546500191E+02 0.  0.
    5000000    2    1    2    0    0 -0.10406054612E+04 -0.63560097367E+03  0.16794390217E+03  0.13692811642E+04  0.59989784844E+03 0.  0.
        -24    2    4    4    0    0 -0.71827995912E+03 -0.30148058742E+03  0.35808069060E+03  0.86116106620E+03  0.80993559570E+02 0.  0.
         24    2    4    4    0    0 -0.32232550212E+03 -0.33412038625E+03 -0.19013678842E+03  0.50812009797E+03  0.80646598315E+02 0.  0.
         11    1    3    3    0    0  0.89421276853E+03  0.56297397165E+03  0.49753695390E+03  0.11679465693E+04  0.00000000000E+00 0. -1.
        -12    1    3    3    0    0  0.14639269271E+03  0.72627002021E+02  0.48046036298E+02  0.17033473957E+03  0.00000000000E+00 0.  1.
         15    1    5    5    0    0 -0.44476359081E+03 -0.22860160961E+03  0.22407479483E+03  0.54798359376E+03  0.17770000000E+01 0. -1.
        -16    1    5    5    0    0 -0.27351636831E+03 -0.72878977810E+02  0.13400589577E+03  0.31317747244E+03  0.00000000000E+00 0.  1.
          4    1    6    6  502    0 -0.22218465051E+03 -0.27754891448E+03 -0.13194283593E+03  0.37922068879E+03  0.00000000000E+00 0. -1.
         -3    1    6    6    0  502 -0.10014085161E+03 -0.56571471769E+02 -0.58193952496E+02  0.12889940918E+03  0.00000000000E+00 0.  1.
<mgrwt>
<rscale>  0 0.12368842E+04</rscale>
<asrwt>0</asrwt>
<pdfrwt beam="1">  1        1 0.26316072E+00 0.12368842E+04</pdfrwt>
<pdfrwt beam="2">  1       -2 0.15338735E+00 0.12368842E+04</pdfrwt>
<totfact> 0.11283201E+00</totfact>
</mgrwt>
</event>
<event>
12    3  0.1182097E-007  0.1030695E+04  0.7818608E-02  0.9275506E-01
          1   -1    0    0  501    0  0.00000000000E+00  0.00000000000E+00  0.16924528595E+04  0.16924528595E+04  0.00000000000E+00 0. -1.
         -2   -1    0    0    0  501 -0.00000000000E+00 -0.00000000000E+00 -0.72277743037E+03  0.72277743037E+03  0.00000000000E+00 0.  1.
        -24    2    1    2    0    0 -0.65342743743E+03  0.78569504163E+03  0.40010173139E+03  0.11004454880E+04  0.81331188471E+02 0.  0.
    5000000    2    1    2    0    0  0.65342743743E+03 -0.78569504163E+03  0.56957369771E+03  0.13147848018E+04  0.59996730203E+03 0.  0.
        -24    2    4    4    0    0  0.20686152843E+03 -0.35284748154E+03 -0.66096537659E+02  0.42187349841E+03  0.79469863442E+02 0.  0.
         24    2    4    4    0    0  0.44656590900E+03 -0.43284756009E+03  0.63567023537E+03  0.89291130340E+03  0.80223601537E+02 0.  0.
         11    1    3    3    0    0 -0.13363959654E+03  0.20575273118E+03  0.11680508280E+03  0.27172993122E+03  0.00000000000E+00 0. -1.
        -12    1    3    3    0    0 -0.51978784089E+03  0.57994231044E+03  0.28329664859E+03  0.82871555680E+03  0.00000000000E+00 0.  1.
         15    1    5    5    0    0  0.20818920935E+03 -0.34872517010E+03 -0.74026649885E+02  0.41283785410E+03  0.17770000000E+01 0. -1.
        -16    1    5    5    0    0 -0.13276809208E+01 -0.41223114359E+01  0.79301122253E+01  0.90356443106E+01  0.00000000000E+00 0.  1.
          2    1    6    6  502    0  0.44235289545E+03 -0.40866614902E+03  0.60523005358E+03  0.85380766173E+03  0.00000000000E+00 0. -1.
         -1    1    6    6    0  502  0.42130135510E+01 -0.24181411073E+02  0.30440181786E+02  0.39103641669E+02  0.00000000000E+00 0.  1.
<mgrwt>
<rscale>  0 0.10306945E+04</rscale>
<asrwt>0</asrwt>
<pdfrwt beam="1">  1        1 0.26037736E+00 0.10306945E+04</pdfrwt>
<pdfrwt beam="2">  1       -2 0.11119653E+00 0.10306945E+04</pdfrwt>
<totfact> 0.27031505E+00</totfact>
</mgrwt>
</event>
<event>
12    3  0.1182097E-007  0.5398516E+03  0.7818608E-02  0.1003871E+00
         -2   -1    0    0    0  501 -0.00000000000E+00  0.00000000000E+00  0.21248868971E+03  0.21248868971E+03  0.00000000000E+00 0.  1.
          1   -1    0    0  501    0  0.00000000000E+00 -0.00000000000E+00 -0.24460276556E+04  0.24460276556E+04  0.00000000000E+00 0. -1.
        -24    2    1    2    0    0 -0.46627637980E+03  0.24118749297E+03 -0.41818609128E+03  0.67582629590E+03  0.79224403886E+02 0.  0.
    5000000    2    1    2    0    0  0.46627637980E+03 -0.24118749297E+03 -0.18153528747E+04  0.19826900495E+04  0.59997391909E+03 0.  0.
        -24    2    4    4    0    0  0.51626155899E+02 -0.46581899227E+02  0.34817614517E+01  0.10544378327E+03  0.79190501072E+02 0.  0.
         24    2    4    4    0    0  0.41465022390E+03 -0.19460559374E+03 -0.18188346361E+04  0.18772462662E+04  0.78025413206E+02 0.  0.
         11    1    3    3    0    0 -0.25550598107E+03  0.16100747656E+03 -0.27678843118E+03  0.40965662390E+03  0.00000000000E+00 0. -1.
        -12    1    3    3    0    0 -0.21077039873E+03  0.80180016407E+02 -0.14139766010E+03  0.26616967200E+03  0.00000000000E+00 0.  1.
         15    1    5    5    0    0  0.13816476092E+02 -0.52312979643E+02  0.27055334195E+02  0.60520175877E+02  0.17770000000E+01 0. -1.
        -16    1    5    5    0    0  0.37809679806E+02  0.57310804169E+01 -0.23573572743E+02  0.44923607398E+02  0.00000000000E+00 0.  1.
          4    1    6    6  502    0  0.19178879224E+03 -0.67903475413E+02 -0.67285104020E+03  0.70293836508E+03  0.00000000000E+00 0. -1.
         -3    1    6    6    0  502  0.22286143166E+03 -0.12670211833E+03 -0.11459835959E+04  0.11743079011E+04  0.00000000000E+00 0.  1.
<mgrwt>
<rscale>  0 0.53985159E+03</rscale>
<asrwt>0</asrwt>
<pdfrwt beam="1">  1        1 0.37631197E+00 0.53985159E+03</pdfrwt>
<pdfrwt beam="2">  1       -2 0.32690566E-01 0.53985159E+03</pdfrwt>
<totfact> 0.12319101E+01</totfact>
</mgrwt>
</event>
<event>
12    3  0.1182097E-007  0.1353077E+04  0.7818608E-02  0.8988502E-01
         -2   -1    0    0    0  501 -0.00000000000E+00  0.00000000000E+00  0.20269390368E+04  0.20269390368E+04  0.00000000000E+00 0.  1.
          1   -1    0    0  501    0  0.00000000000E+00 -0.00000000000E+00 -0.12583191678E+04  0.12583191678E+04  0.00000000000E+00 0. -1.
        -24    2    1    2    0    0 -0.99598341130E+03  0.86424837843E+03  0.11883420328E+04  0.17768202289E+04  0.77621669277E+02 0.  0.
    5000000    2    1    2    0    0  0.99598341130E+03 -0.86424837843E+03 -0.41972216389E+03  0.15084379757E+04  0.60025845810E+03 0.  0.
        -24    2    4    4    0    0  0.67332810180E+03 -0.31373784159E+03 -0.43648937115E+03  0.86504802072E+03  0.77349473840E+02 0.  0.
         24    2    4    4    0    0  0.32265530950E+03 -0.55051053684E+03  0.16767207256E+02  0.64338995500E+03  0.80629988453E+02 0.  0.
         13    1    3    3    0    0 -0.24407279847E+03  0.25207446263E+03  0.33719987629E+03  0.48663828686E+03  0.00000000000E+00 0. -1.
        -14    1    3    3    0    0 -0.75191061283E+03  0.61217391580E+03  0.85114215655E+03  0.12901819420E+04  0.00000000000E+00 0.  1.
         15    1    5    5    0    0  0.56654713509E+03 -0.24436303062E+03 -0.33410447277E+03  0.70165369198E+03  0.17770000000E+01 0. -1.
        -16    1    5    5    0    0  0.10678096671E+03 -0.69374810973E+02 -0.10238489837E+03  0.16339432874E+03  0.00000000000E+00 0.  1.
          4    1    6    6  502    0  0.27410907550E+03 -0.41462320264E+03  0.33264563952E+02  0.49815129896E+03  0.00000000000E+00 0. -1.
         -3    1    6    6    0  502  0.48546233999E+02 -0.13588733419E+03 -0.16497356696E+02  0.14523865604E+03  0.00000000000E+00 0.  1.
<mgrwt>
<rscale>  0 0.13530774E+04</rscale>
<asrwt>0</asrwt>
<pdfrwt beam="1">  1        1 0.19358756E+00 0.13530774E+04</pdfrwt>
<pdfrwt beam="2">  1       -2 0.31183677E+00 0.13530774E+04</pdfrwt>
<totfact> 0.21971962E-01</totfact>
</mgrwt>
</event>
<event>
12    3  0.1182097E-007  0.4460275E+03  0.7818608E-02  0.1028913E+00
          1   -1    0    0  501    0  0.00000000000E+00  0.00000000000E+00  0.10521099177E+03  0.10521099177E+03  0.00000000000E+00 0. -1.
         -4   -1    0    0    0  501 -0.00000000000E+00 -0.00000000000E+00 -0.21466056591E+04  0.21466056591E+04  0.00000000000E+00 0.  1.
        -24    2    1    2    0    0 -0.70761933926E+02 -0.24342532846E+03 -0.34905058120E+03  0.43848528449E+03  0.78548676912E+02 0.  0.
    5000000    2    1    2    0    0  0.70761933926E+02  0.24342532846E+03 -0.16923440861E+04  0.18133313664E+04  0.59989915536E+03 0.  0.
        -24    2    4    4    0    0 -0.12613544940E+03  0.36615185513E+03 -0.87669626747E+03  0.96182723891E+03  0.80857649704E+02 0.  0.
         24    2    4    4    0    0  0.19689738332E+03 -0.12272652667E+03 -0.81564781865E+03  0.85150412745E+03  0.77120263831E+02 0.  0.
         13    1    3    3    0    0 -0.81042859042E+02 -0.16002475800E+03 -0.21178442402E+03  0.27754010599E+03  0.00000000000E+00 0. -1.
        -14    1    3    3    0    0  0.10280925115E+02 -0.83400570461E+02 -0.13726615718E+03  0.16094517850E+03  0.00000000000E+00 0.  1.
         15    1    5    5    0    0 -0.45909785542E+02  0.22322248110E+03 -0.57430516639E+03  0.61787180414E+03  0.17770000000E+01 0. -1.
        -16    1    5    5    0    0 -0.80225663855E+02  0.14292937402E+03 -0.30239110108E+03  0.34395543477E+03  0.00000000000E+00 0.  1.
          2    1    6    6  502    0  0.15381554477E+03 -0.70684495115E+02 -0.66830295646E+03  0.68940870409E+03  0.00000000000E+00 0. -1.
         -1    1    6    6    0  502  0.43081838556E+02 -0.52042031553E+02 -0.14734486219E+03  0.16209542337E+03  0.00000000000E+00 0.  1.
<mgrwt>
<rscale>  0 0.44602751E+03</rscale>
<asrwt>0</asrwt>
<pdfrwt beam="1">  1        1 0.16186307E-01 0.44602751E+03</pdfrwt>
<pdfrwt beam="2">  1       -4 0.33024702E+00 0.44602751E+03</pdfrwt>
<totfact> 0.35230232E+00</totfact>
</mgrwt>
</event>
<event>
12    3  0.1182097E-007  0.9276533E+03  0.7818608E-02  0.9391659E-01
         -2   -1    0    0    0  501 -0.00000000000E+00  0.00000000000E+00  0.27511789262E+04  0.27511789262E+04  0.00000000000E+00 0.  1.
          1   -1    0    0  501    0  0.00000000000E+00 -0.00000000000E+00 -0.54798031064E+03  0.54798031064E+03  0.00000000000E+00 0. -1.
        -24    2    1    2    0    0 -0.13972609466E+03  0.89551154047E+03  0.19946607071E+04  0.21923957099E+04  0.80394725048E+02 0.  0.
    5000000    2    1    2    0    0  0.13972609466E+03 -0.89551154047E+03  0.20853790845E+03  0.11067635269E+04  0.59997762007E+03 0.  0.
        -24    2    4    4    0    0 -0.41295342420E+02 -0.50756609116E+03  0.37686424849E+03  0.63854720975E+03  0.79920179522E+02 0.  0.
         24    2    4    4    0    0  0.18102143708E+03 -0.38794544931E+03 -0.16832634003E+03  0.46821631715E+03  0.87305959579E+02 0.  0.
         13    1    3    3    0    0 -0.30306422655E+02  0.28815679618E+03  0.72303555042E+03  0.77893082209E+03  0.00000000000E+00 0. -1.
        -14    1    3    3    0    0 -0.10941967200E+03  0.60735474429E+03  0.12716251567E+04  0.14134648878E+04  0.00000000000E+00 0.  1.
         15    1    5    5    0    0 -0.66653947018E+01 -0.70264312454E+01  0.21692698333E+02  0.23822869528E+02  0.17770000000E+01 0. -1.
        -16    1    5    5    0    0 -0.34629947718E+02 -0.50053965991E+03  0.35517155015E+03  0.61472434022E+03  0.00000000000E+00 0.  1.
          2    1    6    6  502    0  0.21042215764E+02 -0.47155939857E+01 -0.65493837909E+01  0.22536772150E+02  0.00000000000E+00 0. -1.
         -1    1    6    6    0  502  0.15997922131E+03 -0.38322985532E+03 -0.16177695624E+03  0.44567954500E+03  0.00000000000E+00 0.  1.
<mgrwt>
<rscale>  0 0.92765334E+03</rscale>
<asrwt>0</asrwt>
<pdfrwt beam="1">  1        1 0.84304664E-01 0.92765334E+03</pdfrwt>
<pdfrwt beam="2">  1       -2 0.42325829E+00 0.92765334E+03</pdfrwt>
<totfact> 0.18465956E-01</totfact>
</mgrwt>
</event>
<event>
12    3  0.1182097E-007  0.3770166E+03  0.7818608E-02  0.1052042E+00
          1   -1    0    0  501    0  0.00000000000E+00  0.00000000000E+00  0.55978091366E+03  0.55978091366E+03  0.00000000000E+00 0. -1.
         -2   -1    0    0    0  501 -0.00000000000E+00 -0.00000000000E+00 -0.39310226281E+03  0.39310226281E+03  0.00000000000E+00 0.  1.
        -24    2    1    2    0    0  0.22206748026E+03  0.34239373371E+02  0.19986244068E+03  0.31108099391E+03  0.79624676446E+02 0.  0.
    5000000    2    1    2    0    0 -0.22206748026E+03 -0.34239373371E+02 -0.33183789836E+02  0.64180218256E+03  0.60026875410E+03 0.  0.
        -24    2    4    4    0    0  0.95178819780E+02 -0.15401201891E+03 -0.17509581104E+03  0.26572791912E+03  0.84699907033E+02 0.  0.
         24    2    4    4    0    0 -0.31724630004E+03  0.11977264554E+03  0.14191202121E+03  0.37607426344E+03  0.79385945545E+02 0.  0.
         13    1    3    3    0    0  0.16203884560E+03  0.44289211390E+02  0.10413073566E+03  0.19763939850E+03  0.00000000000E+00 0. -1.
        -14    1    3    3    0    0  0.60028634656E+02 -0.10049838019E+02  0.95731705023E+02  0.11344159541E+03  0.00000000000E+00 0.  1.
         15    1    5    5    0    0  0.87654982959E+02 -0.14627400230E+03 -0.18462202033E+03  0.25133230573E+03  0.17770000000E+01 0. -1.
        -16    1    5    5    0    0  0.75238368212E+01 -0.77380166040E+01  0.95262092811E+01  0.14395613385E+02  0.00000000000E+00 0.  1.
          4    1    6    6  502    0 -0.30877032294E+03  0.10375662362E+03  0.11884301417E+03  0.34673939968E+03  0.00000000000E+00 0. -1.
         -3    1    6    6    0  502 -0.84759770972E+01  0.16016021915E+02  0.23069007043E+02  0.29334863758E+02  0.00000000000E+00 0.  1.
<mgrwt>
<rscale>  0 0.37701662E+03</rscale>
<asrwt>0</asrwt>
<pdfrwt beam="1">  1        1 0.86120141E-01 0.37701662E+03</pdfrwt>
<pdfrwt beam="2">  1       -2 0.60477271E-01 0.37701662E+03</pdfrwt>
<totfact> 0.88372511E+01</totfact>
</mgrwt>
</event>
<event>
12    3  0.1182097E-007  0.3187312E+04  0.7818608E-02  0.8192176E-01
         -2   -1    0    0    0  501 -0.00000000000E+00  0.00000000000E+00  0.39347174144E+04  0.39347174144E+04  0.00000000000E+00 0.  1.
          1   -1    0    0  501    0  0.00000000000E+00 -0.00000000000E+00 -0.30125104188E+04  0.30125104188E+04  0.00000000000E+00 0. -1.
        -24    2    1    2    0    0  0.26743103559E+04  0.16887318262E+04  0.17607948126E+04  0.36205192982E+04  0.63328947964E+02 0.  0.
    5000000    2    1    2    0    0 -0.26743103559E+04 -0.16887318262E+04 -0.83858781705E+03  0.33267085351E+04  0.60000757484E+03 0.  0.
        -24    2    4    4    0    0 -0.22339334566E+04 -0.16313943610E+04 -0.72744561668E+03  0.28612685256E+04  0.75988158269E+02 0.  0.
         24    2    4    4    0    0 -0.44037689929E+03 -0.57337465171E+02 -0.11114220037E+03  0.46544000954E+03  0.84038178412E+02 0.  0.
         13    1    3    3    0    0  0.43667576309E+03  0.28974436656E+03  0.26861235427E+03  0.58888888331E+03  0.00000000000E+00 0. -1.
        -14    1    3    3    0    0  0.22376345928E+04  0.13989874597E+04  0.14921824584E+04  0.30316304149E+04  0.00000000000E+00 0.  1.
         15    1    5    5    0    0 -0.56797045282E+03 -0.43228126377E+03 -0.15672048478E+03  0.73076808521E+03  0.17770000000E+01 0. -1.
        -16    1    5    5    0    0 -0.16659630038E+04 -0.11991130973E+04 -0.57072513191E+03  0.21305004403E+04  0.00000000000E+00 0.  1.
          2    1    6    6  502    0 -0.59536296865E+02 -0.18672732641E+02  0.11558595681E+02  0.63457408731E+02  0.00000000000E+00 0. -1.
         -1    1    6    6    0  502 -0.38084060243E+03 -0.38664732531E+02 -0.12270079605E+03  0.40198260080E+03  0.00000000000E+00 0.  1.
<mgrwt>
<rscale>  0 0.31873119E+04</rscale>
<asrwt>0</asrwt>
<pdfrwt beam="1">  1        1 0.46346314E+00 0.31873119E+04</pdfrwt>
<pdfrwt beam="2">  1       -2 0.60534114E+00 0.31873119E+04</pdfrwt>
<totfact> 0.18950904E-04</totfact>
</mgrwt>
</event>
<event>
12    3  0.1182097E-007  0.7122143E+03  0.7818608E-02  0.9696569E-01
         -2   -1    0    0    0  501 -0.00000000000E+00  0.00000000000E+00  0.51792901876E+03  0.51792901876E+03  0.00000000000E+00 0.  1.
          1   -1    0    0  501    0  0.00000000000E+00 -0.00000000000E+00 -0.20826660034E+04  0.20826660034E+04  0.00000000000E+00 0. -1.
        -24    2    1    2    0    0 -0.39621444122E+03 -0.44701850724E+03  0.20693852240E+03  0.63701267445E+03  0.78422994795E+02 0.  0.
    5000000    2    1    2    0    0  0.39621444122E+03  0.44701850724E+03 -0.17716755070E+04  0.19635823477E+04  0.60000842056E+03 0.  0.
        -24    2    4    4    0    0 -0.40390387940E+02 -0.94066823225E+02 -0.14810054817E+03  0.19559414191E+03  0.76441777278E+02 0.  0.
         24    2    4    4    0    0  0.43660482916E+03  0.54108533047E+03 -0.16235749589E+04  0.17679882058E+04  0.79934579918E+02 0.  0.
         11    1    3    3    0    0 -0.18187596754E+03 -0.20290465068E+03  0.53279386247E+02  0.27764700221E+03  0.00000000000E+00 0. -1.
        -12    1    3    3    0    0 -0.21433847368E+03 -0.24411385656E+03  0.15365913615E+03  0.35936567224E+03  0.00000000000E+00 0.  1.
         15    1    5    5    0    0 -0.55823858928E+02 -0.34258446723E+02 -0.67811519745E+02  0.94294773644E+02  0.17770000000E+01 0. -1.
        -16    1    5    5    0    0  0.15433470988E+02 -0.59808376502E+02 -0.80289028421E+02  0.10129936827E+03  0.00000000000E+00 0.  1.
          4    1    6    6  502    0  0.76583618082E+02  0.14875401787E+03 -0.39753082726E+03  0.43130449455E+03  0.00000000000E+00 0. -1.
         -3    1    6    6    0  502  0.36002121108E+03  0.39233131260E+03 -0.12260441316E+04  0.13366837112E+04  0.00000000000E+00 0.  1.
<mgrwt>
<rscale>  0 0.71221427E+03</rscale>
<asrwt>0</asrwt>
<pdfrwt beam="1">  1        1 0.32041015E+00 0.71221427E+03</pdfrwt>
<pdfrwt beam="2">  1       -2 0.79681388E-01 0.71221427E+03</pdfrwt>
<totfact> 0.33756072E+00</totfact>
</mgrwt>
</event>
<event>
12    3  0.1182097E-007  0.1332758E+04  0.7818608E-02  0.9003984E-01
         -2   -1    0    0    0  501 -0.00000000000E+00  0.00000000000E+00  0.18627066921E+04  0.18627066921E+04  0.00000000000E+00 0.  1.
          1   -1    0    0  501    0  0.00000000000E+00 -0.00000000000E+00 -0.96088243691E+03  0.96088243691E+03  0.00000000000E+00 0. -1.
        -24    2    1    2    0    0 -0.12605614561E+04 -0.14539281277E+03  0.42985347611E+03  0.13428396076E+04  0.91049140849E+02 0.  0.
    5000000    2    1    2    0    0  0.12605614561E+04  0.14539281277E+03  0.47197077907E+03  0.14807495214E+04  0.59975701263E+03 0.  0.
        -24    2    4    4    0    0  0.10262948916E+04 -0.12459941325E+03  0.36063094277E+03  0.10978591235E+04  0.80210721682E+02 0.  0.
         24    2    4    4    0    0  0.23426656451E+03  0.26999222602E+03  0.11133983630E+03  0.38289039789E+03  0.80198954444E+02 0.  0.
         11    1    3    3    0    0 -0.11523508545E+04 -0.10705901708E+03  0.38707421246E+03  0.12203280588E+04  0.00000000000E+00 0. -1.
        -12    1    3    3    0    0 -0.10821060161E+03 -0.38333795690E+02  0.42779263650E+02  0.12251154881E+03  0.00000000000E+00 0.  1.
         15    1    5    5    0    0  0.37992328469E+03 -0.17788930683E+02  0.16064672322E+03  0.41287852416E+03  0.17770000000E+01 0. -1.
        -16    1    5    5    0    0  0.64637160693E+03 -0.10681048257E+03  0.19998421955E+03  0.68498059936E+03  0.00000000000E+00 0.  1.
          4    1    6    6  502    0  0.25670559191E+02  0.21514920560E+02  0.37280907379E+02  0.50117217310E+02  0.00000000000E+00 0. -1.
         -3    1    6    6    0  502  0.20859600532E+03  0.24847730546E+03  0.74058928919E+02  0.33277318058E+03  0.00000000000E+00 0.  1.
<mgrwt>
<rscale>  0 0.13327580E+04</rscale>
<asrwt>0</asrwt>
<pdfrwt beam="1">  1        1 0.14782807E+00 0.13327580E+04</pdfrwt>
<pdfrwt beam="2">  1       -2 0.28657026E+00 0.13327580E+04</pdfrwt>
<totfact> 0.52802448E-01</totfact>
</mgrwt>
</event>
<event>
12    3  0.1182097E-007  0.1604328E+04  0.7818608E-02  0.8817893E-01
          1   -1    0    0  501    0  0.00000000000E+00  0.00000000000E+00  0.29577636108E+04  0.29577636108E+04  0.00000000000E+00 0. -1.
         -2   -1    0    0    0  501 -0.00000000000E+00 -0.00000000000E+00 -0.93191826822E+03  0.93191826822E+03  0.00000000000E+00 0.  1.
        -24    2    1    2    0    0 -0.15755371711E+04  0.28712098077E+03  0.11057018280E+04  0.19476882437E+04  0.78467363611E+02 0.  0.
    5000000    2    1    2    0    0  0.15755371711E+04 -0.28712098077E+03  0.92014351455E+03  0.19419936353E+04  0.59993279395E+03 0.  0.
        -24    2    4    4    0    0  0.72081163017E+03 -0.14149426890E+03  0.75414485646E+03  0.10558030687E+04  0.79972626641E+02 0.  0.
         24    2    4    4    0    0  0.85472554088E+03 -0.14562671187E+03  0.16599865809E+03  0.88619056662E+03  0.77558213177E+02 0.  0.
         13    1    3    3    0    0 -0.12182749120E+04  0.25439277511E+03  0.86716034944E+03  0.15168640404E+04  0.00000000000E+00 0. -1.
        -14    1    3    3    0    0 -0.35726225903E+03  0.32728205663E+02  0.23854147859E+03  0.43082420333E+03  0.00000000000E+00 0.  1.
         15    1    5    5    0    0  0.60043295504E+03 -0.10045394227E+03  0.65757017531E+03  0.89610960334E+03  0.17770000000E+01 0. -1.
        -16    1    5    5    0    0  0.12037867513E+03 -0.41040326633E+02  0.96574681157E+02  0.15969346535E+03  0.00000000000E+00 0.  1.
          2    1    6    6  502    0  0.58462800052E+03 -0.69382035915E+02  0.13336238872E+03  0.60364666207E+03  0.00000000000E+00 0. -1.
         -1    1    6    6    0  502  0.27009754036E+03 -0.76244675952E+02  0.32636269365E+02  0.28254390455E+03  0.00000000000E+00 0.  1.
<mgrwt>
<rscale>  0 0.16043282E+04</rscale>
<asrwt>0</asrwt>
<pdfrwt beam="1">  1        1 0.45504055E+00 0.16043282E+04</pdfrwt>
<pdfrwt beam="2">  1       -2 0.14337204E+00 0.16043282E+04</pdfrwt>
<totfact> 0.17832262E-01</totfact>
</mgrwt>
</event>
<event>
12    3  0.1182097E-007  0.5883088E+03  0.7818608E-02  0.9929963E-01
          1   -1    0    0  501    0  0.00000000000E+00  0.00000000000E+00  0.21092797940E+04  0.21092797940E+04  0.00000000000E+00 0. -1.
         -2   -1    0    0    0  501 -0.00000000000E+00 -0.00000000000E+00 -0.31679924904E+03  0.31679924904E+03  0.00000000000E+00 0.  1.
        -24    2    1    2    0    0  0.34240241786E+03  0.34214419502E+03  0.15379859539E+04  0.16143708468E+04  0.80562837125E+02 0.  0.
    5000000    2    1    2    0    0 -0.34240241786E+03 -0.34214419502E+03  0.25449459110E+03  0.81170819626E+03  0.59983383784E+03 0.  0.
        -24    2    4    4    0    0 -0.46098738543E+03 -0.25907566260E+03  0.33081352325E+02  0.53588350062E+03  0.80294345290E+02 0.  0.
         24    2    4    4    0    0  0.11858496756E+03 -0.83068532426E+02  0.22141323877E+03  0.27582469564E+03  0.78055523884E+02 0.  0.
         13    1    3    3    0    0  0.86794813056E+02  0.46716226261E+02  0.26229107740E+03  0.28020056148E+03  0.00000000000E+00 0. -1.
        -14    1    3    3    0    0  0.25560760481E+03  0.29542796876E+03  0.12756948765E+04  0.13341702853E+04  0.00000000000E+00 0.  1.
         15    1    5    5    0    0 -0.16532973662E+03 -0.12581733888E+03  0.39647150854E+02  0.21151590690E+03  0.17770000000E+01 0. -1.
        -16    1    5    5    0    0 -0.29565764881E+03 -0.13325832371E+03 -0.65657985283E+01  0.32436759371E+03  0.00000000000E+00 0.  1.
          4    1    6    6  502    0  0.70316660347E+02 -0.80643967128E+02  0.19039151970E+03  0.21839600026E+03  0.00000000000E+00 0. -1.
         -3    1    6    6    0  502  0.48268307218E+02 -0.24245652984E+01  0.31021719073E+02  0.57428695378E+02  0.00000000000E+00 0.  1.
<mgrwt>
<rscale>  0 0.58830875E+03</rscale>
<asrwt>0</asrwt>
<pdfrwt beam="1">  1        1 0.32450457E+00 0.58830875E+03</pdfrwt>
<pdfrwt beam="2">  1       -2 0.48738347E-01 0.58830875E+03</pdfrwt>
<totfact> 0.94349659E+00</totfact>
</mgrwt>
</event>
<event>
12    3  0.1182097E-007  0.6288318E+03  0.7818608E-02  0.9847331E-01
          1   -1    0    0  501    0  0.00000000000E+00  0.00000000000E+00  0.20846973456E+04  0.20846973456E+04  0.00000000000E+00 0. -1.
         -2   -1    0    0    0  501 -0.00000000000E+00 -0.00000000000E+00 -0.16456055351E+04  0.16456055351E+04  0.00000000000E+00 0.  1.
        -24    2    1    2    0    0  0.49263674252E+03 -0.51182266207E+02  0.19591967269E+04  0.20226839777E+04  0.86533661297E+02 0.  0.
    5000000    2    1    2    0    0 -0.49263674252E+03  0.51182266207E+02 -0.15201049164E+04  0.17076189029E+04  0.59994397774E+03 0.  0.
        -24    2    4    4    0    0  0.12391110353E+03 -0.18537786210E+02 -0.36346509133E+03  0.39260248152E+03  0.79575277472E+02 0.  0.
         24    2    4    4    0    0 -0.61654784604E+03  0.69720052416E+02 -0.11566398251E+04  0.13150164214E+04  0.80376436488E+02 0.  0.
         13    1    3    3    0    0  0.30790345078E+03  0.84032392808E+01  0.11504983771E+04  0.11910170717E+04  0.00000000000E+00 0. -1.
        -14    1    3    3    0    0  0.18473329174E+03 -0.59585505487E+02  0.80869834984E+03  0.83166690602E+03  0.00000000000E+00 0.  1.
         15    1    5    5    0    0  0.11699527840E+03 -0.30111212063E+02 -0.35837119278E+03  0.37818996523E+03  0.17770000000E+01 0. -1.
        -16    1    5    5    0    0  0.69158251333E+01  0.11573425853E+02 -0.50938985463E+01  0.14412516284E+02  0.00000000000E+00 0.  1.
          2    1    6    6  502    0 -0.32459865760E+03  0.52133796554E+02 -0.68954440477E+03  0.76390687090E+03  0.00000000000E+00 0. -1.
         -1    1    6    6    0  502 -0.29194918844E+03  0.17586255862E+02 -0.46709542029E+03  0.55110955053E+03  0.00000000000E+00 0.  1.
<mgrwt>
<rscale>  0 0.62883184E+03</rscale>
<asrwt>0</asrwt>
<pdfrwt beam="1">  1        1 0.32072267E+00 0.62883184E+03</pdfrwt>
<pdfrwt beam="2">  1       -2 0.25317008E+00 0.62883184E+03</pdfrwt>
<totfact> 0.15505369E-01</totfact>
</mgrwt>
</event>
<event>
12    3  0.1182097E-007  0.7958099E+03  0.7818608E-02  0.9566102E-01
         -2   -1    0    0    0  501 -0.00000000000E+00  0.00000000000E+00  0.79494816202E+03  0.79494816202E+03  0.00000000000E+00 0.  1.
          1   -1    0    0  501    0  0.00000000000E+00 -0.00000000000E+00 -0.93885150305E+03  0.93885150305E+03  0.00000000000E+00 0. -1.
        -24    2    1    2    0    0  0.69317103539E+03 -0.21028352823E+03 -0.28592998993E+03  0.78240454663E+03  0.75469655497E+02 0.  0.
    5000000    2    1    2    0    0 -0.69317103539E+03  0.21028352823E+03  0.14202664890E+03  0.95139511843E+03  0.60022983584E+03 0.  0.
        -24    2    4    4    0    0  0.46740797705E+02  0.48793748777E+02  0.15784958200E+03  0.18967392117E+03  0.80586436490E+02 0.  0.
         24    2    4    4    0    0 -0.73991183309E+03  0.16148977945E+03 -0.15822933093E+02  0.76172119726E+03  0.80127071139E+02 0.  0.
         11    1    3    3    0    0  0.31952428507E+03 -0.12686077611E+03 -0.16162058280E+03  0.37988240029E+03  0.00000000000E+00 0. -1.
        -12    1    3    3    0    0  0.37364675031E+03 -0.83422752114E+02 -0.12430940713E+03  0.40252214634E+03  0.00000000000E+00 0.  1.
         15    1    5    5    0    0  0.34934455189E+02 -0.15558546694E+02  0.74025281921E+02  0.83338974239E+02  0.17770000000E+01 0. -1.
        -16    1    5    5    0    0  0.11806342515E+02  0.64352295471E+02  0.83824300075E+02  0.10633494693E+03  0.00000000000E+00 0.  1.
          2    1    6    6  502    0 -0.61880106008E+03  0.10502685029E+03 -0.51791820484E+01  0.62767206021E+03  0.00000000000E+00 0. -1.
         -1    1    6    6    0  502 -0.12111077301E+03  0.56462929157E+02 -0.10643751045E+02  0.13404913705E+03  0.00000000000E+00 0.  1.
<mgrwt>
<rscale>  0 0.79580990E+03</rscale>
<asrwt>0</asrwt>
<pdfrwt beam="1">  1        1 0.14443869E+00 0.79580990E+03</pdfrwt>
<pdfrwt beam="2">  1       -2 0.12229972E+00 0.79580990E+03</pdfrwt>
<totfact> 0.76473968E+00</totfact>
</mgrwt>
</event>
<event>
12    3  0.1182097E-007  0.6269838E+03  0.7818608E-02  0.9850952E-01
         -2   -1    0    0    0  501 -0.00000000000E+00  0.00000000000E+00  0.59966621761E+03  0.59966621761E+03  0.00000000000E+00 0.  1.
          1   -1    0    0  501    0  0.00000000000E+00 -0.00000000000E+00 -0.87191837913E+03  0.87191837913E+03  0.00000000000E+00 0. -1.
        -24    2    1    2    0    0  0.58252059690E+03  0.11973390051E+03 -0.82911622459E+02  0.60577218512E+03  0.80119600490E+02 0.  0.
    5000000    2    1    2    0    0 -0.58252059690E+03 -0.11973390051E+03 -0.18934053906E+03  0.86581241162E+03  0.60009569207E+03 0.  0.
        -24    2    4    4    0    0 -0.37529587908E+03  0.46632498984E+02  0.16131946693E+03  0.41842046777E+03  0.77653915682E+02 0.  0.
         24    2    4    4    0    0 -0.20722471782E+03 -0.16636639949E+03 -0.35066000599E+03  0.44739194385E+03  0.81100240867E+02 0.  0.
         11    1    3    3    0    0  0.36855609317E+03  0.36909317033E+02 -0.42933597925E+02  0.37287958556E+03  0.00000000000E+00 0. -1.
        -12    1    3    3    0    0  0.21396450373E+03  0.82824583476E+02 -0.39978024533E+02  0.23289259956E+03  0.00000000000E+00 0.  1.
         15    1    5    5    0    0 -0.29215352012E+03  0.34398864196E+02  0.88441045467E+02  0.30718388211E+03  0.17770000000E+01 0. -1.
        -16    1    5    5    0    0 -0.83142358955E+02  0.12233634788E+02  0.72878421463E+02  0.11123658565E+03  0.00000000000E+00 0.  1.
          2    1    6    6  502    0 -0.47295317661E+02 -0.31388977902E+01 -0.41890334652E+02  0.63257409758E+02  0.00000000000E+00 0. -1.
         -1    1    6    6    0  502 -0.15992940016E+03 -0.16322750170E+03 -0.30876967133E+03  0.38413453409E+03  0.00000000000E+00 0.  1.
<mgrwt>
<rscale>  0 0.62698379E+03</rscale>
<asrwt>0</asrwt>
<pdfrwt beam="1">  1        1 0.13414129E+00 0.62698379E+03</pdfrwt>
<pdfrwt beam="2">  1       -2 0.92256341E-01 0.62698379E+03</pdfrwt>
<totfact> 0.17398229E+01</totfact>
</mgrwt>
</event>
<event>
12    3  0.1182097E-007  0.1356071E+04  0.7818608E-02  0.8986245E-01
          1   -1    0    0  501    0  0.00000000000E+00  0.00000000000E+00  0.13810011743E+04  0.13810011743E+04  0.00000000000E+00 0. -1.
         -2   -1    0    0    0  501 -0.00000000000E+00 -0.00000000000E+00 -0.13932904224E+04  0.13932904224E+04  0.00000000000E+00 0.  1.
        -24    2    1    2    0    0  0.65721988814E+03 -0.11162069161E+04 -0.26486106596E+03  0.13245522362E+04  0.80195892526E+02 0.  0.
    5000000    2    1    2    0    0 -0.65721988814E+03  0.11162069161E+04  0.25257181795E+03  0.14497393605E+04  0.60007985242E+03 0.  0.
        -24    2    4    4    0    0 -0.65628727548E+03  0.56976869114E+03  0.18689137119E+03  0.89240356326E+03  0.78143366466E+02 0.  0.
         24    2    4    4    0    0 -0.93261266182E+00  0.54643822497E+03  0.65680446754E+02  0.55733579727E+03  0.87827480637E+02 0.  0.
         11    1    3    3    0    0  0.29582185208E+03 -0.46604335005E+03 -0.14870731060E+03  0.57168246127E+03  0.00000000000E+00 0. -1.
        -12    1    3    3    0    0  0.36139803606E+03 -0.65016356606E+03 -0.11615375537E+03  0.75286977492E+03  0.00000000000E+00 0.  1.
         15    1    5    5    0    0 -0.47278939108E+03  0.41324421144E+03  0.17043718508E+03  0.65065549901E+03  0.17770000000E+01 0. -1.
        -16    1    5    5    0    0 -0.18349788440E+03  0.15652447971E+03  0.16454186111E+02  0.24174806425E+03  0.00000000000E+00 0.  1.
          2    1    6    6  502    0 -0.11895297139E+02  0.12163601424E+03 -0.19995872321E+02  0.12384124096E+03  0.00000000000E+00 0. -1.
         -1    1    6    6    0  502  0.10962684478E+02  0.42480221073E+03  0.85676319076E+02  0.43349455630E+03  0.00000000000E+00 0.  1.
<mgrwt>
<rscale>  0 0.13560709E+04</rscale>
<asrwt>0</asrwt>
<pdfrwt beam="1">  1        1 0.21246172E+00 0.13560709E+04</pdfrwt>
<pdfrwt beam="2">  1       -2 0.21435237E+00 0.13560709E+04</pdfrwt>
<totfact> 0.71444401E-01</totfact>
</mgrwt>
</event>
<event>
12    3  0.1182097E-007  0.1124060E+04  0.7818608E-02  0.9182054E-01
          1   -1    0    0  501    0  0.00000000000E+00  0.00000000000E+00  0.13927601409E+04  0.13927601409E+04  0.00000000000E+00 0. -1.
         -2   -1    0    0    0  501 -0.00000000000E+00 -0.00000000000E+00 -0.99529726051E+03  0.99529726051E+03  0.00000000000E+00 0.  1.
        -24    2    1    2    0    0 -0.58899328658E+03 -0.88870380205E+03  0.45581221955E+03  0.11632980912E+04  0.93755693765E+02 0.  0.
    5000000    2    1    2    0    0  0.58899328658E+03  0.88870380205E+03 -0.58349339187E+02  0.12247593102E+04  0.59993598245E+03 0.  0.
        -24    2    4    4    0    0  0.60947805440E+03  0.49795294870E+03  0.96239229026E+02  0.79700073095E+03  0.80793180517E+02 0.  0.
         24    2    4    4    0    0 -0.20484767819E+02  0.39075085335E+03 -0.15458856821E+03  0.42775857921E+03  0.77291148044E+02 0.  0.
         13    1    3    3    0    0 -0.82989445583E+02 -0.15518229417E+03  0.10941241134E+03  0.20721937230E+03  0.00000000000E+00 0. -1.
        -14    1    3    3    0    0 -0.50600384099E+03 -0.73352150789E+03  0.34639980821E+03  0.95607871891E+03  0.00000000000E+00 0.  1.
         15    1    5    5    0    0  0.22865126184E+03  0.22414053636E+03  0.66422841108E+02  0.32700998629E+03  0.17770000000E+01 0. -1.
        -16    1    5    5    0    0  0.38082679255E+03  0.27381241234E+03  0.29816387918E+02  0.46999074466E+03  0.00000000000E+00 0.  1.
          2    1    6    6  502    0 -0.57844512054E+01  0.28023612734E+03 -0.14573775429E+03  0.31591967329E+03  0.00000000000E+00 0. -1.
         -1    1    6    6    0  502 -0.14700316614E+02  0.11051472600E+03 -0.88508139238E+01  0.11183890593E+03  0.00000000000E+00 0.  1.
<mgrwt>
<rscale>  0 0.11240599E+04</rscale>
<asrwt>0</asrwt>
<pdfrwt beam="1">  1        1 0.21427079E+00 0.11240599E+04</pdfrwt>
<pdfrwt beam="2">  1       -2 0.15312266E+00 0.11240599E+04</pdfrwt>
<totfact> 0.19015741E+00</totfact>
</mgrwt>
</event>
<event>
12    3  0.1182097E-007  0.5143105E+03  0.7818608E-02  0.1010110E+00
         -2   -1    0    0    0  501 -0.00000000000E+00  0.00000000000E+00  0.17428560544E+03  0.17428560544E+03  0.00000000000E+00 0.  1.
          1   -1    0    0  501    0  0.00000000000E+00 -0.00000000000E+00 -0.25245922015E+04  0.25245922015E+04  0.00000000000E+00 0. -1.
        -24    2    1    2    0    0 -0.34195863898E+03  0.54951108208E+02 -0.13900600341E+03  0.38155916488E+03  0.79431682930E+02 0.  0.
    5000000    2    1    2    0    0  0.34195863898E+03 -0.54951108208E+02 -0.22113005927E+04  0.23173186421E+04  0.60013335410E+03 0.  0.
        -24    2    4    4    0    0  0.21374051615E+03 -0.31694065651E+03 -0.13065149967E+04  0.13634659115E+04  0.76951069603E+02 0.  0.
         24    2    4    4    0    0  0.12821812283E+03  0.26198954830E+03 -0.90478559592E+03  0.95385273057E+03  0.78228170039E+02 0.  0.
         11    1    3    3    0    0 -0.11421760132E+03  0.20329968823E+02 -0.73783336937E+01  0.11624718444E+03  0.00000000000E+00 0. -1.
        -12    1    3    3    0    0 -0.22774103767E+03  0.34621139385E+02 -0.13162766971E+03  0.26531198044E+03  0.00000000000E+00 0.  1.
         15    1    5    5    0    0  0.16839751634E+03 -0.19645477189E+03 -0.94168576830E+03  0.97658970139E+03  0.17770000000E+01 0. -1.
        -16    1    5    5    0    0  0.45342999814E+02 -0.12048588462E+03 -0.36482922843E+03  0.38687621010E+03  0.00000000000E+00 0.  1.
          4    1    6    6  502    0  0.23922098161E+02  0.19755100613E+02 -0.17825991462E+03  0.18093956986E+03  0.00000000000E+00 0. -1.
         -3    1    6    6    0  502  0.10429602467E+03  0.24223444769E+03 -0.72652568130E+03  0.77291316071E+03  0.00000000000E+00 0.  1.
<mgrwt>
<rscale>  0 0.51431053E+03</rscale>
<asrwt>0</asrwt>
<pdfrwt beam="1">  1        1 0.38839875E+00 0.51431053E+03</pdfrwt>
<pdfrwt beam="2">  1       -2 0.26813174E-01 0.51431053E+03</pdfrwt>
<totfact> 0.15789653E+01</totfact>
</mgrwt>
</event>
<event>
12    3  0.1182097E-007  0.1130969E+04  0.7818608E-02  0.9175522E-01
          1   -1    0    0  501    0  0.00000000000E+00  0.00000000000E+00  0.13794288369E+04  0.13794288369E+04  0.00000000000E+00 0. -1.
         -2   -1    0    0    0  501 -0.00000000000E+00 -0.00000000000E+00 -0.11731743301E+04  0.11731743301E+04  0.00000000000E+00 0.  1.
        -24    2    1    2    0    0  0.91751579653E+03 -0.58501589948E+03  0.60539744950E+03  0.12476416118E+04  0.77618813311E+02 0.  0.
    5000000    2    1    2    0    0 -0.91751579653E+03  0.58501589948E+03 -0.39914294272E+03  0.13049615551E+04  0.59960881581E+03 0.  0.
        -24    2    4    4    0    0 -0.60015926952E+03  0.14139757575E+03 -0.42470359036E+03  0.75297916275E+03  0.80125256023E+02 0.  0.
         24    2    4    4    0    0 -0.31735652701E+03  0.44361832373E+03  0.25560647641E+02  0.55198239233E+03  0.80739286284E+02 0.  0.
         13    1    3    3    0    0  0.57835319733E+03 -0.40246498249E+03  0.36395708941E+03  0.79305437766E+03  0.00000000000E+00 0. -1.
        -14    1    3    3    0    0  0.33916259920E+03 -0.18255091699E+03  0.24144036009E+03  0.45458723417E+03  0.00000000000E+00 0.  1.
         15    1    5    5    0    0 -0.23853956484E+03  0.16360611644E+02 -0.16760615260E+03  0.29199961255E+03  0.17770000000E+01 0. -1.
        -16    1    5    5    0    0 -0.36161970468E+03  0.12503696411E+03 -0.25709743776E+03  0.46097955020E+03  0.00000000000E+00 0.  1.
          4    1    6    6  502    0 -0.11030144049E+03  0.21725438767E+03  0.27505190791E+02  0.24519871993E+03  0.00000000000E+00 0. -1.
         -3    1    6    6    0  502 -0.20705508652E+03  0.22636393606E+03 -0.19445431508E+01  0.30678367240E+03  0.00000000000E+00 0.  1.
<mgrwt>
<rscale>  0 0.11309693E+04</rscale>
<asrwt>0</asrwt>
<pdfrwt beam="1">  1        1 0.21221982E+00 0.11309693E+04</pdfrwt>
<pdfrwt beam="2">  1       -2 0.18048836E+00 0.11309693E+04</pdfrwt>
<totfact> 0.12305825E+00</totfact>
</mgrwt>
</event>
<event>
12    3  0.1182097E-007  0.9870644E+03  0.7818608E-02  0.9322847E-01
          1   -1    0    0  501    0  0.00000000000E+00  0.00000000000E+00  0.19916720798E+04  0.19916720798E+04  0.00000000000E+00 0. -1.
         -2   -1    0    0    0  501 -0.00000000000E+00 -0.00000000000E+00 -0.62313848068E+03  0.62313848068E+03  0.00000000000E+00 0.  1.
        -24    2    1    2    0    0 -0.53779415985E+03  0.76424761892E+03  0.12209617065E+03  0.94539227593E+03  0.74579481706E+02 0.  0.
    5000000    2    1    2    0    0  0.53779415985E+03 -0.76424761892E+03  0.12464374285E+04  0.16694182846E+04  0.60004513527E+03 0.  0.
        -24    2    4    4    0    0 -0.57579972516E+02 -0.16781724189E+03  0.51555602058E+03  0.55094260909E+03  0.79130703527E+02 0.  0.
         24    2    4    4    0    0  0.59537413237E+03 -0.59643037703E+03  0.73088140792E+03  0.11184756755E+04  0.81244397436E+02 0.  0.
         13    1    3    3    0    0 -0.35914447339E+03  0.45639114663E+03  0.56941850045E+02  0.58354092039E+03  0.00000000000E+00 0. -1.
        -14    1    3    3    0    0 -0.17864968646E+03  0.30785647230E+03  0.65154320608E+02  0.36185135553E+03  0.00000000000E+00 0.  1.
         15    1    5    5    0    0 -0.10828765946E+02 -0.13505379889E+03  0.32785214616E+03  0.35474917651E+03  0.17770000000E+01 0. -1.
        -16    1    5    5    0    0 -0.46751206570E+02 -0.32763443007E+02  0.18770387442E+03  0.19619343257E+03  0.00000000000E+00 0.  1.
          2    1    6    6  502    0  0.20299838221E+03 -0.24430811456E+03  0.23993387310E+03  0.39807419093E+03  0.00000000000E+00 0. -1.
         -1    1    6    6    0  502  0.39237575015E+03 -0.35212226247E+03  0.49094753481E+03  0.72040148457E+03  0.00000000000E+00 0.  1.
<mgrwt>
<rscale>  0 0.98706442E+03</rscale>
<asrwt>0</asrwt>
<pdfrwt beam="1">  1        1 0.30641109E+00 0.98706442E+03</pdfrwt>
<pdfrwt beam="2">  1       -2 0.95867460E-01 0.98706442E+03</pdfrwt>
<totfact> 0.24367034E+00</totfact>
</mgrwt>
</event>
<event>
12    3  0.1182097E-007  0.7093054E+03  0.7818608E-02  0.9701450E-01
         -2   -1    0    0    0  501 -0.00000000000E+00  0.00000000000E+00  0.43856915102E+03  0.43856915102E+03  0.00000000000E+00 0.  1.
          1   -1    0    0  501    0  0.00000000000E+00 -0.00000000000E+00 -0.13326652391E+04  0.13326652391E+04  0.00000000000E+00 0. -1.
        -24    2    1    2    0    0 -0.54389782514E+03 -0.23791420440E+03 -0.89491170850E+02  0.60509758345E+03  0.75540737238E+02 0.  0.
    5000000    2    1    2    0    0  0.54389782514E+03  0.23791420440E+03 -0.80460491726E+03  0.11661368067E+04  0.60004830325E+03 0.  0.
        -24    2    4    4    0    0  0.36196886794E+03  0.42184119085E+03 -0.44959892041E+03  0.71960308471E+03  0.81963154194E+02 0.  0.
         24    2    4    4    0    0  0.18192895720E+03 -0.18392698645E+03 -0.35500599685E+03  0.44653372200E+03  0.80223595445E+02 0.  0.
         11    1    3    3    0    0 -0.42198938012E+03 -0.18392993323E+03 -0.37021411467E+02  0.46181797516E+03  0.00000000000E+00 0. -1.
        -12    1    3    3    0    0 -0.12190844503E+03 -0.53984271164E+02 -0.52469759383E+02  0.14327960829E+03  0.00000000000E+00 0.  1.
         15    1    5    5    0    0  0.17171103183E+03  0.24253419566E+03 -0.27760773406E+03  0.40666537381E+03  0.17770000000E+01 0. -1.
        -16    1    5    5    0    0  0.19025783611E+03  0.17930699518E+03 -0.17199118634E+03  0.31293771090E+03  0.00000000000E+00 0.  1.
          2    1    6    6  502    0  0.85057613234E+02 -0.13034401894E+03 -0.16644562119E+03  0.22787826938E+03  0.00000000000E+00 0. -1.
         -1    1    6    6    0  502  0.96871343968E+02 -0.53582967510E+02 -0.18856037566E+03  0.21865545261E+03  0.00000000000E+00 0.  1.
<mgrwt>
<rscale>  0 0.70930540E+03</rscale>
<asrwt>0</asrwt>
<pdfrwt beam="1">  1        1 0.20502542E+00 0.70930540E+03</pdfrwt>
<pdfrwt beam="2">  1       -2 0.67472177E-01 0.70930540E+03</pdfrwt>
<totfact> 0.15660041E+01</totfact>
</mgrwt>
</event>
<event>
12    3  0.1182097E-007  0.2275353E+04  0.7818608E-02  0.8487703E-01
          1   -1    0    0  501    0  0.00000000000E+00  0.00000000000E+00  0.16289070954E+04  0.16289070954E+04  0.00000000000E+00 0. -1.
         -2   -1    0    0    0  501 -0.00000000000E+00 -0.00000000000E+00 -0.32357781132E+04  0.32357781132E+04  0.00000000000E+00 0.  1.
        -24    2    1    2    0    0 -0.65040334893E+03  0.21549221606E+04 -0.94696375753E+03  0.24434970087E+04  0.84989638220E+02 0.  0.
    5000000    2    1    2    0    0  0.65040334893E+03 -0.21549221606E+04 -0.65990726024E+03  0.24211882000E+04  0.59996722646E+03 0.  0.
        -24    2    4    4    0    0 -0.63067193065E+02 -0.11217080313E+03  0.39257906837E+02  0.14584058854E+03  0.56289733528E+02 0.  0.
         24    2    4    4    0    0  0.71347054199E+03 -0.20427513575E+04 -0.69916516707E+03  0.22753476114E+04  0.80631873808E+02 0.  0.
         11    1    3    3    0    0 -0.28847577669E+03  0.97258086576E+03 -0.47241270313E+03  0.11190645988E+04  0.00000000000E+00 0. -1.
        -12    1    3    3    0    0 -0.36192757224E+03  0.11823412949E+04 -0.47455105440E+03  0.13244324099E+04  0.00000000000E+00 0.  1.
         15    1    5    5    0    0 -0.19708258463E+01  0.30860684533E+01 -0.64405388795E+01  0.76188085074E+01  0.17770000000E+01 0. -1.
        -16    1    5    5    0    0 -0.61096367219E+02 -0.11525687159E+03  0.45698445717E+02  0.13822178003E+03  0.00000000000E+00 0.  1.
          4    1    6    6  502    0  0.37510265293E+03 -0.95336514332E+03 -0.32422461638E+03  0.10745830348E+04  0.00000000000E+00 0. -1.
         -3    1    6    6    0  502  0.33836788906E+03 -0.10893862142E+04 -0.37494055069E+03  0.12007645766E+04  0.00000000000E+00 0.  1.
<mgrwt>
<rscale>  0 0.22753527E+04</rscale>
<asrwt>0</asrwt>
<pdfrwt beam="1">  1        1 0.25060109E+00 0.22753527E+04</pdfrwt>
<pdfrwt beam="2">  1       -2 0.49781201E+00 0.22753527E+04</pdfrwt>
<totfact> 0.68341719E-03</totfact>
</mgrwt>
</event>
<event>
12    3  0.1182097E-007  0.7363527E+03  0.7818608E-02  0.9657007E-01
          1   -1    0    0  501    0  0.00000000000E+00  0.00000000000E+00  0.72556901974E+03  0.72556901974E+03  0.00000000000E+00 0. -1.
         -2   -1    0    0    0  501 -0.00000000000E+00 -0.00000000000E+00 -0.10678117164E+04  0.10678117164E+04  0.00000000000E+00 0.  1.
        -24    2    1    2    0    0 -0.25276851076E+03 -0.56147763391E+03 -0.63218386248E+03  0.88603945402E+03  0.79122845443E+02 0.  0.
    5000000    2    1    2    0    0  0.25276851076E+03  0.56147763391E+03  0.28994116581E+03  0.90734128214E+03  0.60004438938E+03 0.  0.
        -24    2    4    4    0    0 -0.11758106296E+03  0.43552746503E+03  0.14217302775E+03  0.48135429620E+03  0.89326980768E+02 0.  0.
         24    2    4    4    0    0  0.37034957371E+03  0.12595016888E+03  0.14776813806E+03  0.42598698593E+03  0.81284917200E+02 0.  0.
         13    1    3    3    0    0 -0.23316005255E+03 -0.47736327158E+03 -0.51020762942E+03  0.73658070045E+03  0.00000000000E+00 0. -1.
        -14    1    3    3    0    0 -0.19608458201E+02 -0.84114362331E+02 -0.12197623307E+03  0.14945875356E+03  0.00000000000E+00 0.  1.
         15    1    5    5    0    0 -0.55649193660E+02  0.87770245935E+02  0.10856010543E+02  0.10450578702E+03  0.17770000000E+01 0. -1.
        -16    1    5    5    0    0 -0.61931869299E+02  0.34775721909E+03  0.13131701721E+03  0.37684850918E+03  0.00000000000E+00 0.  1.
          4    1    6    6  502    0  0.16130766142E+03  0.93246775718E+02  0.88424793113E+02  0.20623788898E+03  0.00000000000E+00 0. -1.
         -3    1    6    6    0  502  0.20904191230E+03  0.32703393167E+02  0.59343344948E+02  0.21974909695E+03  0.00000000000E+00 0.  1.
<mgrwt>
<rscale>  0 0.73635272E+03</rscale>
<asrwt>0</asrwt>
<pdfrwt beam="1">  1        1 0.11162600E+00 0.73635272E+03</pdfrwt>
<pdfrwt beam="2">  1       -2 0.16427873E+00 0.73635272E+03</pdfrwt>
<totfact> 0.54259495E+00</totfact>
</mgrwt>
</event>
<event>
12    3  0.1182097E-007  0.1144277E+04  0.7818608E-02  0.9163079E-01
          1   -1    0    0  501    0  0.00000000000E+00  0.00000000000E+00  0.28524946828E+04  0.28524946828E+04  0.00000000000E+00 0. -1.
         -2   -1    0    0    0  501 -0.00000000000E+00 -0.00000000000E+00 -0.99259462606E+03  0.99259462606E+03  0.00000000000E+00 0.  1.
        -24    2    1    2    0    0 -0.87016515486E+03 -0.63795545245E+03 -0.49226667051E+03  0.11885617566E+04  0.78600371261E+02 0.  0.
    5000000    2    1    2    0    0  0.87016515486E+03  0.63795545245E+03  0.23521667272E+04  0.26565275522E+04  0.60022976179E+03 0.  0.
        -24    2    4    4    0    0  0.69223182692E+03  0.71758036351E+03  0.21124380851E+04  0.23372876315E+04  0.80077017354E+02 0.  0.
         24    2    4    4    0    0  0.17793332794E+03 -0.79624911057E+02  0.23972864212E+03  0.31923992070E+03  0.80273965048E+02 0.  0.
         11    1    3    3    0    0 -0.68012134164E+03 -0.52605211614E+03 -0.41630501435E+03  0.95530400042E+03  0.00000000000E+00 0. -1.
        -12    1    3    3    0    0 -0.19004381322E+03 -0.11190333631E+03 -0.75961656165E+02  0.23325775620E+03  0.00000000000E+00 0.  1.
         15    1    5    5    0    0  0.36469782495E+03  0.32263910221E+03  0.10029882388E+04  0.11149390381E+04  0.17770000000E+01 0. -1.
        -16    1    5    5    0    0  0.32753400197E+03  0.39494126130E+03  0.11094498463E+04  0.12223485934E+04  0.00000000000E+00 0.  1.
          4    1    6    6  502    0  0.11161944509E+03 -0.10076562433E+02  0.10368475232E+03  0.15267928968E+03  0.00000000000E+00 0. -1.
         -3    1    6    6    0  502  0.66313882843E+02 -0.69548348624E+02  0.13604388980E+03  0.16656063102E+03  0.00000000000E+00 0.  1.
<mgrwt>
<rscale>  0 0.11442771E+04</rscale>
<asrwt>0</asrwt>
<pdfrwt beam="1">  1        1 0.43884533E+00 0.11442771E+04</pdfrwt>
<pdfrwt beam="2">  1       -2 0.15270687E+00 0.11442771E+04</pdfrwt>
<totfact> 0.19031074E-01</totfact>
</mgrwt>
</event>
<event>
12    3  0.1182097E-007  0.8423274E+03  0.7818608E-02  0.9500693E-01
          1   -1    0    0  501    0  0.00000000000E+00  0.00000000000E+00  0.90565046019E+03  0.90565046019E+03  0.00000000000E+00 0. -1.
         -2   -1    0    0    0  501 -0.00000000000E+00 -0.00000000000E+00 -0.90866166875E+03  0.90866166875E+03  0.00000000000E+00 0.  1.
        -24    2    1    2    0    0  0.24022642104E+03  0.74132390337E+03  0.20354853678E+03  0.80931763556E+03  0.79329473288E+02 0.  0.
    5000000    2    1    2    0    0 -0.24022642104E+03 -0.74132390337E+03 -0.20655974534E+03  0.10049944934E+04  0.60006428010E+03 0.  0.
        -24    2    4    4    0    0 -0.35817033178E+02 -0.67737958631E+03  0.19095186801E+02  0.68323339344E+03  0.79481318091E+02 0.  0.
         24    2    4    4    0    0 -0.20440938786E+03 -0.63944317058E+02 -0.22565493214E+03  0.32176109994E+03  0.82085221022E+02 0.  0.
         13    1    3    3    0    0  0.57006404767E+02  0.20308276987E+03  0.90948482796E+02  0.22970408818E+03  0.00000000000E+00 0. -1.
        -14    1    3    3    0    0  0.18322001627E+03  0.53824113350E+03  0.11260005399E+03  0.57961354738E+03  0.00000000000E+00 0.  1.
         15    1    5    5    0    0 -0.27868677510E+02 -0.55187690806E+03 -0.15524320669E+02  0.55280100136E+03  0.17770000000E+01 0. -1.
        -16    1    5    5    0    0 -0.79483556684E+01 -0.12550267825E+03  0.34619507469E+02  0.13043239208E+03  0.00000000000E+00 0.  1.
          4    1    6    6  502    0 -0.13135309209E+03 -0.77499123244E+02 -0.17337770444E+03  0.23091032308E+03  0.00000000000E+00 0. -1.
         -3    1    6    6    0  502 -0.73056295765E+02  0.13554806187E+02 -0.52277227699E+02  0.90850776868E+02  0.00000000000E+00 0.  1.
<mgrwt>
<rscale>  0 0.84232743E+03</rscale>
<asrwt>0</asrwt>
<pdfrwt beam="1">  1        1 0.13933084E+00 0.84232743E+03</pdfrwt>
<pdfrwt beam="2">  1       -2 0.13979410E+00 0.84232743E+03</pdfrwt>
<totfact> 0.57611124E+00</totfact>
</mgrwt>
</event>
<event>
12    3  0.1182097E-007  0.5292795E+03  0.7818608E-02  0.1006407E+00
          1   -1    0    0  501    0  0.00000000000E+00  0.00000000000E+00  0.76618505056E+03  0.76618505056E+03  0.00000000000E+00 0. -1.
         -2   -1    0    0    0  501 -0.00000000000E+00 -0.00000000000E+00 -0.63820061609E+03  0.63820061609E+03  0.00000000000E+00 0.  1.
        -24    2    1    2    0    0  0.14605369186E+03 -0.32653116196E+03 -0.38971507036E+03  0.53501307056E+03  0.80042919512E+02 0.  0.
    5000000    2    1    2    0    0 -0.14605369186E+03  0.32653116196E+03  0.51769950483E+03  0.86937259610E+03  0.59986802957E+03 0.  0.
        -24    2    4    4    0    0 -0.89057371361E+02  0.49216142986E+03  0.37192763501E+03  0.62822290731E+03  0.78611495075E+02 0.  0.
         24    2    4    4    0    0 -0.56996320499E+02 -0.16563026790E+03  0.14577186983E+03  0.24114968878E+03  0.78878185645E+02 0.  0.
         13    1    3    3    0    0  0.78879223590E+02 -0.11674404751E+03 -0.10869732903E+03  0.17795003198E+03  0.00000000000E+00 0. -1.
        -14    1    3    3    0    0  0.67174468270E+02 -0.20978711445E+03 -0.28101774133E+03  0.35706303858E+03  0.00000000000E+00 0.  1.
         15    1    5    5    0    0 -0.11570405963E+01  0.20589133409E+03  0.17037214760E+03  0.26724970833E+03  0.17770000000E+01 0. -1.
        -16    1    5    5    0    0 -0.87900330765E+02  0.28627009577E+03  0.20155548741E+03  0.36097319899E+03  0.00000000000E+00 0.  1.
          4    1    6    6  502    0 -0.69305490760E+02 -0.81444984786E+02  0.77692390493E+02  0.13218412967E+03  0.00000000000E+00 0. -1.
         -3    1    6    6    0  502  0.12309170261E+02 -0.84185283116E+02  0.68079479334E+02  0.10896555911E+03  0.00000000000E+00 0.  1.
<mgrwt>
<rscale>  0 0.52927954E+03</rscale>
<asrwt>0</asrwt>
<pdfrwt beam="1">  1        1 0.11787462E+00 0.52927954E+03</pdfrwt>
<pdfrwt beam="2">  1       -2 0.98184710E-01 0.52927954E+03</pdfrwt>
<totfact> 0.18744793E+01</totfact>
</mgrwt>
</event>
<event>
12    3  0.1182097E-007  0.7888629E+03  0.7818608E-02  0.9576279E-01
         -2   -1    0    0    0  501 -0.00000000000E+00  0.00000000000E+00  0.46237608559E+03  0.46237608559E+03  0.00000000000E+00 0.  1.
          1   -1    0    0  501    0  0.00000000000E+00 -0.00000000000E+00 -0.20092609008E+04  0.20092609008E+04  0.00000000000E+00 0. -1.
        -24    2    1    2    0    0 -0.19440203926E+03  0.73982553027E+03 -0.12272470717E+04  0.14482683186E+04  0.78814842401E+02 0.  0.
    5000000    2    1    2    0    0  0.19440203926E+03 -0.73982553027E+03 -0.31963774353E+03  0.10233686679E+04  0.59998431245E+03 0.  0.
        -24    2    4    4    0    0  0.78409595715E+01 -0.52333797285E+03  0.69715784618E+02  0.53405598064E+03  0.80071126857E+02 0.  0.
         24    2    4    4    0    0  0.18656107969E+03 -0.21648755742E+03 -0.38935352815E+03  0.48931268723E+03  0.78478258365E+02 0.  0.
         11    1    3    3    0    0 -0.43283681465E+02  0.24299706230E+03 -0.45540787051E+03  0.51799360796E+03  0.00000000000E+00 0. -1.
        -12    1    3    3    0    0 -0.15111835780E+03  0.49682846796E+03 -0.77183920123E+03  0.93027471060E+03  0.00000000000E+00 0.  1.
         15    1    5    5    0    0 -0.19896314268E+02 -0.28264803112E+03  0.54953915792E+01  0.28340629823E+03  0.17770000000E+01 0. -1.
        -16    1    5    5    0    0  0.27737273840E+02 -0.24068994173E+03  0.64220393039E+02  0.25064968241E+03  0.00000000000E+00 0.  1.
          4    1    6    6  502    0  0.10922102931E+03 -0.13438433175E+03 -0.29583521011E+03  0.34279272660E+03  0.00000000000E+00 0. -1.
         -1    1    6    6    0  502  0.77340050377E+02 -0.82103225670E+02 -0.93518318031E+02  0.14651996064E+03  0.00000000000E+00 0.  1.
<mgrwt>
<rscale>  0 0.78886288E+03</rscale>
<asrwt>0</asrwt>
<pdfrwt beam="1">  1        1 0.30911707E+00 0.78886288E+03</pdfrwt>
<pdfrwt beam="2">  1       -2 0.71134782E-01 0.78886288E+03</pdfrwt>
<totfact> 0.48002667E+00</totfact>
</mgrwt>
</event>
<event>
12    3  0.1182097E-007  0.6671680E+03  0.7818608E-02  0.9775087E-01
          1   -1    0    0  501    0  0.00000000000E+00  0.00000000000E+00  0.64266968470E+03  0.64266968470E+03  0.00000000000E+00 0. -1.
         -2   -1    0    0    0  501 -0.00000000000E+00 -0.00000000000E+00 -0.98067967167E+03  0.98067967167E+03  0.00000000000E+00 0.  1.
        -24    2    1    2    0    0  0.62244852404E+03  0.20697912280E+03  0.27728415157E+02  0.66210659541E+03  0.85637353536E+02 0.  0.
    5000000    2    1    2    0    0 -0.62244852404E+03 -0.20697912280E+03 -0.36573840213E+03  0.96124276096E+03  0.59995045158E+03 0.  0.
        -24    2    4    4    0    0 -0.23082088356E+03 -0.83895421658E+02 -0.46473316527E+03  0.53168071836E+03  0.79942162252E+02 0.  0.
         24    2    4    4    0    0 -0.39162764049E+03 -0.12308370114E+03  0.98994763147E+02  0.42956204260E+03  0.78751374812E+02 0.  0.
         11    1    3    3    0    0  0.33788131268E+03  0.15327633173E+03 -0.16899836128E+01  0.37102597129E+03  0.00000000000E+00 0. -1.
        -12    1    3    3    0    0  0.28456721136E+03  0.53702791062E+02  0.29418398770E+02  0.29108062412E+03  0.00000000000E+00 0.  1.
         15    1    5    5    0    0 -0.22378245103E+03 -0.95442160954E+02 -0.45081834729E+03  0.51227739699E+03  0.17770000000E+01 0. -1.
        -16    1    5    5    0    0 -0.70384325243E+01  0.11546739296E+02 -0.13914817982E+02  0.19403321372E+02  0.00000000000E+00 0.  1.
          4    1    6    6  502    0 -0.72351593057E+02 -0.53903938283E+02  0.87849223491E+01  0.90650771872E+02  0.00000000000E+00 0. -1.
         -3    1    6    6    0  502 -0.31927604743E+03 -0.69179762855E+02  0.90209840798E+02  0.33891127073E+03  0.00000000000E+00 0.  1.
<mgrwt>
<rscale>  0 0.66716803E+03</rscale>
<asrwt>0</asrwt>
<pdfrwt beam="1">  1        1 0.98872260E-01 0.66716803E+03</pdfrwt>
<pdfrwt beam="2">  1       -2 0.15087379E+00 0.66716803E+03</pdfrwt>
<totfact> 0.82522749E+00</totfact>
</mgrwt>
</event>
<event>
12    3  0.1182097E-007  0.5255610E+03  0.7818608E-02  0.1007314E+00
          1   -1    0    0  501    0  0.00000000000E+00  0.00000000000E+00  0.69226375028E+03  0.69226375028E+03  0.00000000000E+00 0. -1.
         -2   -1    0    0    0  501 -0.00000000000E+00 -0.00000000000E+00 -0.11040037909E+04  0.11040037909E+04  0.00000000000E+00 0.  1.
        -24    2    1    2    0    0  0.35702392411E+03 -0.61851374714E+02  0.51470611345E+03  0.63457542377E+03  0.80448183841E+02 0.  0.
    5000000    2    1    2    0    0 -0.35702392411E+03  0.61851374714E+02 -0.92644615412E+03  0.11616921175E+04  0.59994535114E+03 0.  0.
        -24    2    4    4    0    0 -0.16372940193E+03 -0.25434781113E+03 -0.51074808406E+03  0.59903581482E+03  0.80499540320E+02 0.  0.
         24    2    4    4    0    0 -0.19329452219E+03  0.31619918584E+03 -0.41569807006E+03  0.56265630264E+03  0.80203067379E+02 0.  0.
         11    1    3    3    0    0  0.12204243157E+03 -0.58102146883E+02  0.21057323681E+03  0.25022250625E+03  0.00000000000E+00 0. -1.
        -12    1    3    3    0    0  0.23498149254E+03 -0.37492278309E+01  0.30413287664E+03  0.38435291751E+03  0.00000000000E+00 0.  1.
         15    1    5    5    0    0 -0.13294330096E+03 -0.21889014648E+03 -0.36482594251E+03  0.44574425801E+03  0.17770000000E+01 0. -1.
        -16    1    5    5    0    0 -0.30786100971E+02 -0.35457664648E+02 -0.14592214155E+03  0.15329155681E+03  0.00000000000E+00 0.  1.
          2    1    6    6  502    0 -0.12875252909E+03  0.26801116508E+03 -0.30718084432E+03  0.42751288808E+03  0.00000000000E+00 0. -1.
         -1    1    6    6    0  502 -0.64541993098E+02  0.48188020757E+02 -0.10851722574E+03  0.13514341456E+03  0.00000000000E+00 0.  1.
<mgrwt>
<rscale>  0 0.52556099E+03</rscale>
<asrwt>0</asrwt>
<pdfrwt beam="1">  1        1 0.10650212E+00 0.52556099E+03</pdfrwt>
<pdfrwt beam="2">  1       -2 0.16984674E+00 0.52556099E+03</pdfrwt>
<totfact> 0.54871114E+00</totfact>
</mgrwt>
</event>
<event>
12    3  0.1182097E-007  0.2205244E+03  0.7818608E-02  0.1133493E+00
         -2   -1    0    0    0  501 -0.00000000000E+00  0.00000000000E+00  0.53535868963E+03  0.53535868963E+03  0.00000000000E+00 0.  1.
          1   -1    0    0  501    0  0.00000000000E+00 -0.00000000000E+00 -0.41017277884E+03  0.41017277884E+03  0.00000000000E+00 0. -1.
        -24    2    1    2    0    0  0.32616046777E+02  0.63281989397E+02 -0.22375324811E+03  0.24809943574E+03  0.80121141307E+02 0.  0.
    5000000    2    1    2    0    0 -0.32616046777E+02 -0.63281989397E+02  0.34893915890E+03  0.69743203273E+03  0.59965363918E+03 0.  0.
        -24    2    4    4    0    0  0.52787950017E+02  0.10320654701E+03 -0.12094429881E+03  0.18525251160E+03  0.79074715467E+02 0.  0.
         24    2    4    4    0    0 -0.85403996793E+02 -0.16648853640E+03  0.46988345771E+03  0.51217952113E+03  0.80778231106E+02 0.  0.
         13    1    3    3    0    0 -0.74072632590E+01  0.65766964115E+02 -0.12333050813E+03  0.13996633650E+03  0.00000000000E+00 0. -1.
        -14    1    3    3    0    0  0.40023310036E+02 -0.24849747178E+01 -0.10042273997E+03  0.10813309923E+03  0.00000000000E+00 0.  1.
         15    1    5    5    0    0 -0.58864927422E+00  0.80913640886E+02 -0.83830604813E+02  0.11652506950E+03  0.17770000000E+01 0. -1.
        -16    1    5    5    0    0  0.53376599291E+02  0.22292906120E+02 -0.37113693997E+02  0.68727442097E+02  0.00000000000E+00 0.  1.
          4    1    6    6  502    0 -0.70971790955E+02 -0.74586298369E+02  0.17576487439E+03  0.20369929328E+03  0.00000000000E+00 0. -1.
         -3    1    6    6    0  502 -0.14432205838E+02 -0.91902238034E+02  0.29411858332E+03  0.30848022785E+03  0.00000000000E+00 0.  1.
<mgrwt>
<rscale>  0 0.22052438E+03</rscale>
<asrwt>0</asrwt>
<pdfrwt beam="1">  1        1 0.63103504E-01 0.22052438E+03</pdfrwt>
<pdfrwt beam="2">  1       -2 0.82362876E-01 0.22052438E+03</pdfrwt>
<totfact> 0.70149111E+01</totfact>
</mgrwt>
</event>
<event>
12    3  0.1182097E-007  0.8377515E+03  0.7818608E-02  0.9506926E-01
          1   -1    0    0  501    0  0.00000000000E+00  0.00000000000E+00  0.10936710689E+04  0.10936710689E+04  0.00000000000E+00 0. -1.
         -2   -1    0    0    0  501 -0.00000000000E+00 -0.00000000000E+00 -0.84527070486E+03  0.84527070486E+03  0.00000000000E+00 0.  1.
        -24    2    1    2    0    0  0.59372909409E+03 -0.57523569545E+03 -0.14724351043E+03  0.84355317636E+03  0.80566540717E+02 0.  0.
    5000000    2    1    2    0    0 -0.59372909409E+03  0.57523569545E+03  0.39564387446E+03  0.10953885974E+04  0.59994313181E+03 0.  0.
        -24    2    4    4    0    0 -0.44562850801E+03  0.38905848998E+03 -0.31582492389E+02  0.59789326902E+03  0.80793759295E+02 0.  0.
         24    2    4    4    0    0 -0.14810058608E+03  0.18617720547E+03  0.42722636685E+03  0.49749532837E+03  0.91561442677E+02 0.  0.
         11    1    3    3    0    0  0.23695521210E+03 -0.28180179217E+03 -0.79494785567E+02  0.37666887785E+03  0.00000000000E+00 0. -1.
        -12    1    3    3    0    0  0.35677388200E+03 -0.29343390328E+03 -0.67748724866E+02  0.46688429851E+03  0.00000000000E+00 0.  1.
         15    1    5    5    0    0 -0.11771911268E+03  0.12463197206E+03 -0.42017613658E+02  0.17652069436E+03  0.17770000000E+01 0. -1.
        -16    1    5    5    0    0 -0.32790939533E+03  0.26442651792E+03  0.10435121269E+02  0.42137257466E+03  0.00000000000E+00 0.  1.
          4    1    6    6  502    0 -0.66821370736E-01 -0.82869754002E+01  0.29841916268E+02  0.30971251071E+02  0.00000000000E+00 0. -1.
         -3    1    6    6    0  502 -0.14803376471E+03  0.19446418087E+03  0.39738445058E+03  0.46652407730E+03  0.00000000000E+00 0.  1.
<mgrwt>
<rscale>  0 0.83775146E+03</rscale>
<asrwt>0</asrwt>
<pdfrwt beam="1">  1        1 0.16825709E+00 0.83775146E+03</pdfrwt>
<pdfrwt beam="2">  1       -2 0.13004165E+00 0.83775146E+03</pdfrwt>
<totfact> 0.49502963E+00</totfact>
</mgrwt>
</event>
<event>
12    3  0.1182097E-007  0.6714435E+03  0.7818608E-02  0.9767354E-01
          1   -1    0    0  501    0  0.00000000000E+00  0.00000000000E+00  0.12220803197E+04  0.12220803197E+04  0.00000000000E+00 0. -1.
         -2   -1    0    0    0  501 -0.00000000000E+00 -0.00000000000E+00 -0.39738051052E+03  0.39738051052E+03  0.00000000000E+00 0.  1.
        -24    2    1    2    0    0 -0.23727583564E+03  0.48650304950E+03  0.14989544004E+03  0.56686361597E+03  0.76685571083E+02 0.  0.
    5000000    2    1    2    0    0  0.23727583564E+03 -0.48650304950E+03  0.67480436914E+03  0.10525972143E+04  0.59967901372E+03 0.  0.
        -24    2    4    4    0    0 -0.45017007023E+02  0.10979716758E+03  0.11311055218E+03  0.18237335611E+03  0.79900532387E+02 0.  0.
         24    2    4    4    0    0  0.28229284267E+03 -0.59630021708E+03  0.56169381696E+03  0.87022385814E+03  0.80786269603E+02 0.  0.
         11    1    3    3    0    0 -0.71393926227E+02  0.12019583907E+03  0.65241095607E+01  0.13995247921E+03  0.00000000000E+00 0. -1.
        -12    1    3    3    0    0 -0.16588190942E+03  0.36630721042E+03  0.14337133048E+03  0.42691113675E+03  0.00000000000E+00 0.  1.
         15    1    5    5    0    0 -0.59742003363E+02  0.60315010743E+02  0.42645937005E+02  0.95020214475E+02  0.17770000000E+01 0. -1.
        -16    1    5    5    0    0  0.14724996340E+02  0.49482156839E+02  0.70464615173E+02  0.87353141639E+02  0.00000000000E+00 0.  1.
          4    1    6    6  502    0  0.89771399220E+02 -0.28109224469E+03  0.26113711765E+03  0.39403597343E+03  0.00000000000E+00 0. -1.
         -3    1    6    6    0  502  0.19252144345E+03 -0.31520797239E+03  0.30055669931E+03  0.47618788471E+03  0.00000000000E+00 0.  1.
<mgrwt>
<rscale>  0 0.67144354E+03</rscale>
<asrwt>0</asrwt>
<pdfrwt beam="1">  1        1 0.18801236E+00 0.67144354E+03</pdfrwt>
<pdfrwt beam="2">  1       -2 0.61135464E-01 0.67144354E+03</pdfrwt>
<totfact> 0.23278264E+01</totfact>
</mgrwt>
</event>
<event>
12    3  0.1182097E-007  0.6260411E+03  0.7818608E-02  0.9852805E-01
         -2   -1    0    0    0  501 -0.00000000000E+00  0.00000000000E+00  0.14195586814E+04  0.14195586814E+04  0.00000000000E+00 0.  1.
          1   -1    0    0  501    0  0.00000000000E+00 -0.00000000000E+00 -0.69842034482E+03  0.69842034482E+03  0.00000000000E+00 0. -1.
        -24    2    1    2    0    0  0.58103016923E+01  0.61521496053E+03  0.10318986309E+04  0.12040176109E+04  0.79501041575E+02 0.  0.
    5000000    2    1    2    0    0 -0.58103016923E+01 -0.61521496053E+03 -0.31076029425E+03  0.91396141540E+03  0.60019188690E+03 0.  0.
        -24    2    4    4    0    0  0.95064822368E+01 -0.43333066179E+03  0.10526379173E+03  0.45315493721E+03  0.80019345236E+02 0.  0.
         24    2    4    4    0    0 -0.15316783929E+02 -0.18188429874E+03 -0.41602408598E+03  0.46080647820E+03  0.77136685389E+02 0.  0.
         13    1    3    3    0    0 -0.93525637677E+01  0.38157241019E+02  0.10446363887E+03  0.11160688749E+03  0.00000000000E+00 0. -1.
        -14    1    3    3    0    0  0.15162865460E+02  0.57705771951E+03  0.92743499201E+03  0.10924107234E+04  0.00000000000E+00 0.  1.
         15    1    5    5    0    0  0.86235014516E+01 -0.43677455259E+03  0.10596539880E+03  0.44953108685E+03  0.17770000000E+01 0. -1.
        -16    1    5    5    0    0  0.88298078523E+00  0.34438908029E+01 -0.70160707229E+00  0.36238503574E+01  0.00000000000E+00 0.  1.
          2    1    6    6  502    0 -0.38812106473E+02 -0.15320817676E+03 -0.30122620866E+03  0.34017106552E+03  0.00000000000E+00 0. -1.
         -3    1    6    6    0  502  0.23495322544E+02 -0.28676121975E+02 -0.11479787732E+03  0.12063541267E+03  0.00000000000E+00 0.  1.
<mgrwt>
<rscale>  0 0.62604113E+03</rscale>
<asrwt>0</asrwt>
<pdfrwt beam="1">  1        1 0.10744928E+00 0.62604113E+03</pdfrwt>
<pdfrwt beam="2">  1       -2 0.21839364E+00 0.62604113E+03</pdfrwt>
<totfact> 0.25477530E+00</totfact>
</mgrwt>
</event>
<event>
12    3  0.1182097E-007  0.7645236E+03  0.7818608E-02  0.9612837E-01
          1   -1    0    0  501    0  0.00000000000E+00  0.00000000000E+00  0.22456122487E+04  0.22456122487E+04  0.00000000000E+00 0. -1.
         -2   -1    0    0    0  501 -0.00000000000E+00 -0.00000000000E+00 -0.28577546052E+03  0.28577546052E+03  0.00000000000E+00 0.  1.
        -24    2    1    2    0    0 -0.65735116759E+03  0.19322623517E+03  0.78954285443E+03  0.10484810437E+04  0.80545916244E+02 0.  0.
    5000000    2    1    2    0    0  0.65735116759E+03 -0.19322623517E+03  0.11702939338E+04  0.14829066655E+04  0.59998112610E+03 0.  0.
        -24    2    4    4    0    0  0.66590670763E+03 -0.19490400335E+02  0.67556257207E+03  0.95211616547E+03  0.79553659785E+02 0.  0.
         24    2    4    4    0    0 -0.85555400449E+01 -0.17373583483E+03  0.49473136170E+03  0.53079050003E+03  0.81988396178E+02 0.  0.
         13    1    3    3    0    0 -0.29184413006E+03  0.95787248836E+02  0.41345048302E+03  0.51506261289E+03  0.00000000000E+00 0. -1.
        -14    1    3    3    0    0 -0.36550703753E+03  0.97438986331E+02  0.37609237141E+03  0.53341843085E+03  0.00000000000E+00 0.  1.
         15    1    5    5    0    0  0.97551297213E+02  0.19473490831E+02  0.77205092101E+02  0.12593353965E+03  0.17770000000E+01 0. -1.
        -16    1    5    5    0    0  0.56835541042E+03 -0.38963891167E+02  0.59835747997E+03  0.82618262582E+03  0.00000000000E+00 0.  1.
          2    1    6    6  502    0 -0.82442517319E+01 -0.48472827822E+02  0.55976609541E+02  0.74504788701E+02  0.00000000000E+00 0. -1.
         -1    1    6    6    0  502 -0.31128831298E+00 -0.12526300701E+03  0.43875475216E+03  0.45628571133E+03  0.00000000000E+00 0.  1.
<mgrwt>
<rscale>  0 0.76452359E+03</rscale>
<asrwt>0</asrwt>
<pdfrwt beam="1">  1        1 0.34547880E+00 0.76452359E+03</pdfrwt>
<pdfrwt beam="2">  1       -2 0.43965457E-01 0.76452359E+03</pdfrwt>
<totfact> 0.91209732E+00</totfact>
</mgrwt>
</event>
<event>
12    3  0.1182097E-007  0.4912085E+03  0.7818608E-02  0.1016099E+00
          1   -1    0    0  501    0  0.00000000000E+00  0.00000000000E+00  0.12465878117E+04  0.12465878117E+04  0.00000000000E+00 0. -1.
         -2   -1    0    0    0  501 -0.00000000000E+00 -0.00000000000E+00 -0.21228347433E+03  0.21228347433E+03  0.00000000000E+00 0.  1.
        -24    2    1    2    0    0  0.27699982388E+03  0.15943771061E+03  0.21118141338E+03  0.39127102926E+03  0.79662682483E+02 0.  0.
    5000000    2    1    2    0    0 -0.27699982388E+03 -0.15943771061E+03  0.82312292394E+03  0.10676002567E+04  0.60007472390E+03 0.  0.
        -24    2    4    4    0    0  0.17347612793E+03 -0.10927777932E+02  0.16448314219E+03  0.25200904305E+03  0.78996648168E+02 0.  0.
         24    2    4    4    0    0 -0.45047595182E+03 -0.14850993268E+03  0.65863978175E+03  0.81559121368E+03  0.79993015056E+02 0.  0.
         13    1    3    3    0    0  0.12711763121E+03  0.42475396145E+02  0.12215184896E+03  0.18133980712E+03  0.00000000000E+00 0. -1.
        -14    1    3    3    0    0  0.14988219267E+03  0.11696231447E+03  0.89029564421E+02  0.20993122213E+03  0.00000000000E+00 0.  1.
         15    1    5    5    0    0  0.12351615700E+03 -0.25150434652E+02  0.70015288985E+02  0.14420153891E+03  0.17770000000E+01 0. -1.
        -16    1    5    5    0    0  0.49959970933E+02  0.14222656720E+02  0.94467853210E+02  0.10780750414E+03  0.00000000000E+00 0.  1.
          4    1    6    6  502    0 -0.44571819374E+03 -0.13465323096E+03  0.62961106114E+03  0.78307489371E+03  0.00000000000E+00 0. -1.
         -1    1    6    6    0  502 -0.47577580746E+01 -0.13856701723E+02  0.29028720603E+02  0.32516319969E+02  0.00000000000E+00 0.  1.
<mgrwt>
<rscale>  0 0.49120855E+03</rscale>
<asrwt>0</asrwt>
<pdfrwt beam="1">  1        1 0.19178274E+00 0.49120855E+03</pdfrwt>
<pdfrwt beam="2">  1       -2 0.32658997E-01 0.49120855E+03</pdfrwt>
<totfact> 0.79502651E+01</totfact>
</mgrwt>
</event>
<event>
12    3  0.1182097E-007  0.5060722E+03  0.7818608E-02  0.1012206E+00
         -2   -1    0    0    0  501 -0.00000000000E+00  0.00000000000E+00  0.85968346247E+02  0.85968346247E+02  0.00000000000E+00 0.  1.
          1   -1    0    0  501    0  0.00000000000E+00 -0.00000000000E+00 -0.32146917067E+04  0.32146917067E+04  0.00000000000E+00 0. -1.
        -24    2    1    2    0    0  0.28676524330E+03  0.18293154151E+03 -0.82575524357E+03  0.89659549194E+03  0.79457537391E+02 0.  0.
    5000000    2    1    2    0    0 -0.28676524330E+03 -0.18293154151E+03 -0.23029681169E+04  0.24040645610E+04  0.60013832777E+03 0.  0.
        -24    2    4    4    0    0  0.63566027301E+02 -0.28284725845E+03 -0.77324522619E+03  0.82959907644E+03  0.79266867929E+02 0.  0.
         24    2    4    4    0    0 -0.35033127060E+03  0.99915716944E+02 -0.15297228907E+04  0.15744654846E+04  0.78576651426E+02 0.  0.
         13    1    3    3    0    0  0.21161296690E+03  0.90598420756E+02 -0.55202018916E+03  0.59809230963E+03  0.00000000000E+00 0. -1.
        -14    1    3    3    0    0  0.75152276392E+02  0.92333120752E+02 -0.27373505441E+03  0.29850318231E+03  0.00000000000E+00 0.  1.
         15    1    5    5    0    0  0.23639949588E+02 -0.15957916182E+03 -0.52979810246E+03  0.55381724712E+03  0.17770000000E+01 0. -1.
        -16    1    5    5    0    0  0.39926077713E+02 -0.12326809663E+03 -0.24344712374E+03  0.27578182932E+03  0.00000000000E+00 0.  1.
          2    1    6    6  502    0 -0.68431571913E+01 -0.93166682536E+01 -0.33431658367E+02  0.35373788161E+02  0.00000000000E+00 0. -1.
         -1    1    6    6    0  502 -0.34348811341E+03  0.10923238520E+03 -0.14962912323E+04  0.15390916964E+04  0.00000000000E+00 0.  1.
<mgrwt>
<rscale>  0 0.50607222E+03</rscale>
<asrwt>0</asrwt>
<pdfrwt beam="1">  1        1 0.49456787E+00 0.50607222E+03</pdfrwt>
<pdfrwt beam="2">  1       -2 0.13225902E-01 0.50607222E+03</pdfrwt>
<totfact> 0.17594492E+01</totfact>
</mgrwt>
</event>
<event>
12    3  0.1182097E-007  0.6421026E+03  0.7818608E-02  0.9821712E-01
          1   -1    0    0  501    0  0.00000000000E+00  0.00000000000E+00  0.10509591936E+04  0.10509591936E+04  0.00000000000E+00 0. -1.
         -2   -1    0    0    0  501 -0.00000000000E+00 -0.00000000000E+00 -0.55870004643E+03  0.55870004643E+03  0.00000000000E+00 0.  1.
        -24    2    1    2    0    0  0.12375546570E+02 -0.63533049544E+03  0.33015433206E+03  0.72061739414E+03  0.80557762877E+02 0.  0.
    5000000    2    1    2    0    0 -0.12375546570E+02  0.63533049544E+03  0.16210481510E+03  0.88904184588E+03  0.60026614102E+03 0.  0.
        -24    2    4    4    0    0  0.26729976156E+02  0.44748191514E+03 -0.18018588635E+03  0.48855882859E+03  0.72582500281E+02 0.  0.
         24    2    4    4    0    0 -0.39105522726E+02  0.18784858030E+03  0.34229070145E+03  0.40048301729E+03  0.80046185492E+02 0.  0.
         11    1    3    3    0    0 -0.25299823384E+02 -0.45714122359E+03  0.24975662516E+03  0.52153288600E+03  0.00000000000E+00 0. -1.
        -12    1    3    3    0    0  0.37675369954E+02 -0.17818927185E+03  0.80397706905E+02  0.19908450814E+03  0.00000000000E+00 0.  1.
         15    1    5    5    0    0 -0.16733748009E+02  0.17025027476E+03 -0.44037504034E+02  0.17665682514E+03  0.17770000000E+01 0. -1.
        -16    1    5    5    0    0  0.43463724165E+02  0.27723164038E+03 -0.13614838231E+03  0.31190200345E+03  0.00000000000E+00 0.  1.
          2    1    6    6  502    0 -0.54166638156E+00  0.31459876004E+02  0.13140919564E+03  0.13512362451E+03  0.00000000000E+00 0. -1.
         -1    1    6    6    0  502 -0.38563856345E+02  0.15638870430E+03  0.21088150581E+03  0.26535939279E+03  0.00000000000E+00 0.  1.
<mgrwt>
<rscale>  0 0.64210259E+03</rscale>
<asrwt>0</asrwt>
<pdfrwt beam="1">  1        1 0.16168603E+00 0.64210259E+03</pdfrwt>
<pdfrwt beam="2">  1       -2 0.85953853E-01 0.64210259E+03</pdfrwt>
<totfact> 0.14771059E+01</totfact>
</mgrwt>
</event>
<event>
12    3  0.1182097E-007  0.1081295E+04  0.7818608E-02  0.9223617E-01
         -2   -1    0    0    0  501 -0.00000000000E+00  0.00000000000E+00  0.16567350835E+04  0.16567350835E+04  0.00000000000E+00 0.  1.
          1   -1    0    0  501    0  0.00000000000E+00 -0.00000000000E+00 -0.93202513659E+03  0.93202513659E+03  0.00000000000E+00 0. -1.
        -24    2    1    2    0    0 -0.69313455444E+02  0.10011731594E+04 -0.28206239373E+03  0.10456753088E+04  0.82009799468E+02 0.  0.
    5000000    2    1    2    0    0  0.69313455444E+02 -0.10011731594E+04  0.10067723406E+04  0.15430849113E+04  0.60030696090E+03 0.  0.
        -24    2    4    4    0    0  0.29840931461E+03 -0.78702310268E+03  0.73558117609E+03  0.11206895024E+04  0.80073784334E+02 0.  0.
         24    2    4    4    0    0 -0.22909585917E+03 -0.21415005675E+03  0.27119116452E+03  0.42239540889E+03  0.80796498928E+02 0.  0.
         13    1    3    3    0    0 -0.86421341384E+02  0.88236377413E+03 -0.24016928739E+03  0.91854001804E+03  0.00000000000E+00 0. -1.
        -14    1    3    3    0    0  0.17107885941E+02  0.11880938530E+03 -0.41893106338E+02  0.12713529075E+03  0.00000000000E+00 0.  1.
         15    1    5    5    0    0  0.25569400815E+03 -0.63794674383E+03  0.63592073898E+03  0.93635133244E+03  0.17770000000E+01 0. -1.
        -16    1    5    5    0    0  0.42715306469E+02 -0.14907635884E+03  0.99660437110E+02  0.18433816994E+03  0.00000000000E+00 0.  1.
          4    1    6    6  502    0 -0.10773278534E+03 -0.98898154147E+02  0.17958222979E+03  0.23159657853E+03  0.00000000000E+00 0. -1.
         -3    1    6    6    0  502 -0.12136307383E+03 -0.11525190260E+03  0.91608934736E+02  0.19079883036E+03  0.00000000000E+00 0.  1.
<mgrwt>
<rscale>  0 0.10812955E+04</rscale>
<asrwt>0</asrwt>
<pdfrwt beam="1">  1        1 0.14338848E+00 0.10812955E+04</pdfrwt>
<pdfrwt beam="2">  1       -2 0.25488232E+00 0.10812955E+04</pdfrwt>
<totfact> 0.89330842E-01</totfact>
</mgrwt>
</event>
<event>
12    3  0.1182097E-007  0.2191230E+04  0.7818608E-02  0.8522087E-01
         -2   -1    0    0    0  501 -0.00000000000E+00  0.00000000000E+00  0.20710839952E+04  0.20710839952E+04  0.00000000000E+00 0.  1.
          1   -1    0    0  501    0  0.00000000000E+00 -0.00000000000E+00 -0.23995610855E+04  0.23995610855E+04  0.00000000000E+00 0. -1.
        -24    2    1    2    0    0  0.21614069644E+04 -0.33960777825E+03 -0.12879232697E+03  0.21931707799E+04  0.79981858127E+02 0.  0.
    5000000    2    1    2    0    0 -0.21614069644E+04  0.33960777825E+03 -0.19968476335E+03  0.22774743008E+04  0.60000139767E+03 0.  0.
        -24    2    4    4    0    0 -0.14481291459E+04  0.15305476076E+03 -0.39491943777E+03  0.15107051759E+04  0.75927485919E+02 0.  0.
         24    2    4    4    0    0 -0.71327781852E+03  0.18655301749E+03  0.19523467443E+03  0.76676912492E+03  0.79063506742E+02 0.  0.
         13    1    3    3    0    0  0.10521957679E+04 -0.18620448687E+03 -0.97197605024E+02  0.10729563921E+04  0.00000000000E+00 0. -1.
        -14    1    3    3    0    0  0.11092111965E+04 -0.15340329138E+03 -0.31594721951E+02  0.11202143878E+04  0.00000000000E+00 0.  1.
         15    1    5    5    0    0 -0.12789701147E+04  0.13628645164E+03 -0.37368328448E+03  0.13393957242E+04  0.17770000000E+01 0. -1.
        -16    1    5    5    0    0 -0.16915903119E+03  0.16768309119E+02 -0.21236153291E+02  0.17130945167E+03  0.00000000000E+00 0.  1.
          2    1    6    6  502    0 -0.14631382786E+02 -0.67466369518E+00 -0.62603534418E+01  0.15928733739E+02  0.00000000000E+00 0. -1.
         -1    1    6    6    0  502 -0.69864643574E+03  0.18722768119E+03  0.20149502787E+03  0.75084039118E+03  0.00000000000E+00 0.  1.
<mgrwt>
<rscale>  0 0.21912297E+04</rscale>
<asrwt>0</asrwt>
<pdfrwt beam="1">  1        1 0.36916324E+00 0.21912297E+04</pdfrwt>
<pdfrwt beam="2">  1       -2 0.31862831E+00 0.21912297E+04</pdfrwt>
<totfact> 0.29614733E-02</totfact>
</mgrwt>
</event>
<event>
12    3  0.1182097E-007  0.4481125E+03  0.7818608E-02  0.1028286E+00
          1   -1    0    0  501    0  0.00000000000E+00  0.00000000000E+00  0.22831363257E+03  0.22831363257E+03  0.00000000000E+00 0. -1.
         -2   -1    0    0    0  501 -0.00000000000E+00 -0.00000000000E+00 -0.14017836966E+04  0.14017836966E+04  0.00000000000E+00 0.  1.
        -24    2    1    2    0    0  0.34246815581E+03  0.88295282246E+02 -0.15071936670E+03  0.39273010760E+03  0.80250328986E+02 0.  0.
    5000000    2    1    2    0    0 -0.34246815581E+03 -0.88295282246E+02 -0.10227506974E+04  0.12373672216E+04  0.59998179769E+03 0.  0.
        -24    2    4    4    0    0 -0.11053680719E+03  0.15108764940E+03 -0.80596682454E+03  0.83121971790E+03  0.79358891293E+02 0.  0.
         24    2    4    4    0    0 -0.23193134863E+03 -0.23938293165E+03 -0.21678387283E+03  0.40614750371E+03  0.82850520907E+02 0.  0.
         13    1    3    3    0    0  0.12811270044E+03  0.47441676501E+01 -0.83697434323E+02  0.15310333652E+03  0.00000000000E+00 0. -1.
        -14    1    3    3    0    0  0.21435545537E+03  0.83551114596E+02 -0.67021932378E+02  0.23962677108E+03  0.00000000000E+00 0.  1.
         15    1    5    5    0    0 -0.35834150336E+02  0.56424628861E+01 -0.21519652997E+03  0.21823984045E+03  0.17770000000E+01 0. -1.
        -16    1    5    5    0    0 -0.74702656850E+02  0.14544518652E+03 -0.59077029457E+03  0.61297987746E+03  0.00000000000E+00 0.  1.
          4    1    6    6  502    0 -0.67170862781E+02 -0.35418149156E+02 -0.80431881298E+02  0.11061490689E+03  0.00000000000E+00 0. -1.
         -3    1    6    6    0  502 -0.16476048585E+03 -0.20396478249E+03 -0.13635199153E+03  0.29553259683E+03  0.00000000000E+00 0.  1.
<mgrwt>
<rscale>  0 0.44811247E+03</rscale>
<asrwt>0</asrwt>
<pdfrwt beam="1">  1        1 0.35125174E-01 0.44811247E+03</pdfrwt>
<pdfrwt beam="2">  1       -2 0.21565903E+00 0.44811247E+03</pdfrwt>
<totfact> 0.12207028E+01</totfact>
</mgrwt>
</event>
<event>
12    3  0.1182097E-007  0.9992979E+03  0.7818608E-02  0.9309315E-01
         -2   -1    0    0    0  501 -0.00000000000E+00  0.00000000000E+00  0.76027569140E+03  0.76027569140E+03  0.00000000000E+00 0.  1.
          1   -1    0    0  501    0  0.00000000000E+00 -0.00000000000E+00 -0.14977714459E+04  0.14977714459E+04  0.00000000000E+00 0. -1.
        -24    2    1    2    0    0  0.85834259951E+03  0.46692715972E+03 -0.25457590105E+03  0.10138847795E+04  0.91544885123E+02 0.  0.
    5000000    2    1    2    0    0 -0.85834259951E+03 -0.46692715972E+03 -0.48291985343E+03  0.12441623578E+04  0.59996282986E+03 0.  0.
        -24    2    4    4    0    0 -0.15124141178E+03 -0.19702655258E+03  0.10640926498E+03  0.28158462989E+03  0.79205713520E+02 0.  0.
         24    2    4    4    0    0 -0.70710118772E+03 -0.26990060714E+03 -0.58932911841E+03  0.96257772795E+03  0.80054013799E+02 0.  0.
         11    1    3    3    0    0  0.35140284220E+03  0.22555269792E+03 -0.14350442274E+03  0.44153312038E+03  0.00000000000E+00 0. -1.
        -12    1    3    3    0    0  0.50693975731E+03  0.24137446180E+03 -0.11107147831E+03  0.57235165907E+03  0.00000000000E+00 0.  1.
         15    1    5    5    0    0  0.11717631647E+01 -0.46208286784E+02  0.17326965967E+02  0.49395954035E+02  0.17770000000E+01 0. -1.
        -16    1    5    5    0    0 -0.15241317495E+03 -0.15081826580E+03  0.89082299016E+02  0.23218867585E+03  0.00000000000E+00 0.  1.
          4    1    6    6  502    0 -0.36789280965E+03 -0.17000458258E+03 -0.27814848747E+03  0.49154171601E+03  0.00000000000E+00 0. -1.
         -3    1    6    6    0  502 -0.33920837807E+03 -0.99896024560E+02 -0.31118063094E+03  0.47103601194E+03  0.00000000000E+00 0.  1.
<mgrwt>
<rscale>  0 0.99929790E+03</rscale>
<asrwt>0</asrwt>
<pdfrwt beam="1">  1        1 0.23042638E+00 0.99929790E+03</pdfrwt>
<pdfrwt beam="2">  1       -2 0.11696549E+00 0.99929790E+03</pdfrwt>
<totfact> 0.32571760E+00</totfact>
</mgrwt>
</event>
<event>
12    3  0.1182097E-007  0.5165592E+03  0.7818608E-02  0.1009545E+00
         -2   -1    0    0    0  501 -0.00000000000E+00  0.00000000000E+00  0.40467838679E+03  0.40467838679E+03  0.00000000000E+00 0.  1.
          1   -1    0    0  501    0  0.00000000000E+00 -0.00000000000E+00 -0.82270268615E+03  0.82270268615E+03  0.00000000000E+00 0. -1.
        -24    2    1    2    0    0  0.29797748291E+03  0.20380546124E+03  0.67101183047E+02  0.37562309526E+03  0.79138451901E+02 0.  0.
    5000000    2    1    2    0    0 -0.29797748291E+03 -0.20380546124E+03 -0.48512548241E+03  0.85175797768E+03  0.59984804118E+03 0.  0.
        -24    2    4    4    0    0 -0.41256434551E+03  0.79261372077E+01 -0.41082333033E+03  0.58750632793E+03  0.78203029263E+02 0.  0.
         24    2    4    4    0    0  0.11458686260E+03 -0.21173159845E+03 -0.74302152088E+02  0.26425164975E+03  0.79672490400E+02 0.  0.
         13    1    3    3    0    0  0.13294782801E+03  0.12915274875E+03  0.58200723268E+02  0.19427527293E+03  0.00000000000E+00 0. -1.
        -14    1    3    3    0    0  0.16502965490E+03  0.74652712493E+02  0.89004597788E+01  0.18134782233E+03  0.00000000000E+00 0.  1.
         15    1    5    5    0    0 -0.40326846056E+01 -0.65699290629E+01 -0.21815343103E+02  0.23205461355E+02  0.17770000000E+01 0. -1.
        -16    1    5    5    0    0 -0.40853166090E+03  0.14496066271E+02 -0.38900798722E+03  0.56430086658E+03  0.00000000000E+00 0.  1.
          2    1    6    6  502    0  0.23278878499E+02 -0.11333808245E+03 -0.56763576751E+02  0.12887796849E+03  0.00000000000E+00 0. -1.
         -1    1    6    6    0  502  0.91307984098E+02 -0.98393516003E+02 -0.17538575337E+02  0.13537368125E+03  0.00000000000E+00 0.  1.
<mgrwt>
<rscale>  0 0.51655919E+03</rscale>
<asrwt>0</asrwt>
<pdfrwt beam="1">  1        1 0.12656964E+00 0.51655919E+03</pdfrwt>
<pdfrwt beam="2">  1       -2 0.62258214E-01 0.51655919E+03</pdfrwt>
<totfact> 0.46282423E+01</totfact>
</mgrwt>
</event>
<event>
12    3  0.1182097E-007  0.6946598E+03  0.7818608E-02  0.9726408E-01
         -2   -1    0    0    0  501 -0.00000000000E+00  0.00000000000E+00  0.36334010241E+03  0.36334010241E+03  0.00000000000E+00 0.  1.
          1   -1    0    0  501    0  0.00000000000E+00 -0.00000000000E+00 -0.13815341851E+04  0.13815341851E+04  0.00000000000E+00 0. -1.
        -24    2    1    2    0    0 -0.49120369038E+03  0.28943096199E+03 -0.30000311318E+03  0.64904847081E+03  0.78808009403E+02 0.  0.
    5000000    2    1    2    0    0  0.49120369038E+03 -0.28943096199E+03 -0.71819096952E+03  0.10958258167E+04  0.59998717042E+03 0.  0.
        -24    2    4    4    0    0  0.50167347353E+02 -0.36046238768E+03 -0.33718474818E+03  0.50317372749E+03  0.83906793296E+02 0.  0.
         24    2    4    4    0    0  0.44103634303E+03  0.71031425692E+02 -0.38100622134E+03  0.59265208922E+03  0.80698443909E+02 0.  0.
         13    1    3    3    0    0 -0.16757379494E+03  0.85834009962E+02 -0.13976203488E+03  0.23448215371E+03  0.00000000000E+00 0. -1.
        -14    1    3    3    0    0 -0.32362989544E+03  0.20359695202E+03 -0.16024107830E+03  0.41456631710E+03  0.00000000000E+00 0.  1.
         15    1    5    5    0    0  0.36367387665E+01 -0.17805989919E+03 -0.21302425676E+03  0.27767074975E+03  0.17770000000E+01 0. -1.
        -16    1    5    5    0    0  0.46530608586E+02 -0.18240248849E+03 -0.12416049142E+03  0.22550297774E+03  0.00000000000E+00 0.  1.
          2    1    6    6  502    0  0.10318043576E+03 -0.13544866807E+02 -0.10935414098E+03  0.15095692727E+03  0.00000000000E+00 0. -1.
         -1    1    6    6    0  502  0.33785590727E+03  0.84576292499E+02 -0.27165208036E+03  0.44169516195E+03  0.00000000000E+00 0.  1.
<mgrwt>
<rscale>  0 0.69465983E+03</rscale>
<asrwt>0</asrwt>
<pdfrwt beam="1">  1        1 0.21254372E+00 0.69465983E+03</pdfrwt>
<pdfrwt beam="2">  1       -2 0.55898477E-01 0.69465983E+03</pdfrwt>
<totfact> 0.21617394E+01</totfact>
</mgrwt>
</event>
<event>
12    3  0.1182097E-007  0.6586758E+03  0.7818608E-02  0.9790634E-01
         -2   -1    0    0    0  501 -0.00000000000E+00  0.00000000000E+00  0.20136886548E+03  0.20136886548E+03  0.00000000000E+00 0.  1.
          1   -1    0    0  501    0  0.00000000000E+00 -0.00000000000E+00 -0.29533772270E+04  0.29533772270E+04  0.00000000000E+00 0. -1.
        -24    2    1    2    0    0  0.37720919725E+03 -0.50414970170E+03 -0.82709404373E+03  0.10424591773E+04  0.78631285166E+02 0.  0.
    5000000    2    1    2    0    0 -0.37720919725E+03  0.50414970170E+03 -0.19249143178E+04  0.21122869151E+04  0.60000598399E+03 0.  0.
        -24    2    4    4    0    0 -0.17017496819E+03  0.40273895280E+03 -0.17682913556E+04  0.18233097545E+04  0.80286727476E+02 0.  0.
         24    2    4    4    0    0 -0.20703422906E+03  0.10141074890E+03 -0.15662296214E+03  0.28897716061E+03  0.76352701914E+02 0.  0.
         13    1    3    3    0    0  0.21265852407E+03 -0.34703144873E+03 -0.52711062163E+03  0.66595801797E+03  0.00000000000E+00 0. -1.
        -14    1    3    3    0    0  0.16455067318E+03 -0.15711825297E+03 -0.29998342210E+03  0.37650115936E+03  0.00000000000E+00 0.  1.
         15    1    5    5    0    0 -0.14949246369E+03  0.25946818912E+03 -0.11595428379E+04  0.11975869441E+04  0.17770000000E+01 0. -1.
        -16    1    5    5    0    0 -0.20682504506E+02  0.14327076368E+03 -0.60874851767E+03  0.62572281043E+03  0.00000000000E+00 0.  1.
          2    1    6    6  502    0 -0.27142747718E+02  0.40378754133E+02 -0.11687869928E+02  0.50037774156E+02  0.00000000000E+00 0. -1.
         -1    1    6    6    0  502 -0.17989148134E+03  0.61031994770E+02 -0.14493509221E+03  0.23893938645E+03  0.00000000000E+00 0.  1.
<mgrwt>
<rscale>  0 0.65867583E+03</rscale>
<asrwt>0</asrwt>
<pdfrwt beam="1">  1        1 0.45436570E+00 0.65867583E+03</pdfrwt>
<pdfrwt beam="2">  1       -2 0.30979828E-01 0.65867583E+03</pdfrwt>
<totfact> 0.59257197E+00</totfact>
</mgrwt>
</event>
<event>
12    3  0.1182097E-007  0.4625412E+03  0.7818608E-02  0.1024047E+00
          1   -1    0    0  501    0  0.00000000000E+00  0.00000000000E+00  0.19947442750E+04  0.19947442750E+04  0.00000000000E+00 0. -1.
         -2   -1    0    0    0  501 -0.00000000000E+00 -0.00000000000E+00 -0.12047248779E+03  0.12047248779E+03  0.00000000000E+00 0.  1.
        -24    2    1    2    0    0 -0.18637832924E+03 -0.19414582056E+03  0.88511122672E+03  0.92752711462E+03  0.66747160544E+02 0.  0.
    5000000    2    1    2    0    0  0.18637832924E+03  0.19414582056E+03  0.98916056048E+03  0.11876896481E+04  0.59978213100E+03 0.  0.
        -24    2    4    4    0    0  0.68714806784E+02 -0.20138149749E+03  0.26423994381E+03  0.34976063092E+03  0.85050096017E+02 0.  0.
         24    2    4    4    0    0  0.11766352246E+03  0.39552731804E+03  0.72492061666E+03  0.83792901723E+03  0.79552332596E+02 0.  0.
         13    1    3    3    0    0 -0.64363082659E+02 -0.11278742979E+03  0.38138659671E+03  0.40288875248E+03  0.00000000000E+00 0. -1.
        -14    1    3    3    0    0 -0.12201524659E+03 -0.81358390765E+02  0.50372463001E+03  0.52463836214E+03  0.00000000000E+00 0.  1.
         15    1    5    5    0    0 -0.93034481514E+01 -0.10351073868E+03  0.12333336769E+03  0.16129260518E+03  0.17770000000E+01 0. -1.
        -16    1    5    5    0    0  0.78018254935E+02 -0.97870758808E+02  0.14090657612E+03  0.18846802574E+03  0.00000000000E+00 0.  1.
          2    1    6    6  502    0  0.52925799403E+02  0.29628026586E+03  0.54269261217E+03  0.62056297625E+03  0.00000000000E+00 0. -1.
         -1    1    6    6    0  502  0.64737723058E+02  0.99247052185E+02  0.18222800449E+03  0.21736604099E+03  0.00000000000E+00 0.  1.
<mgrwt>
<rscale>  0 0.46254118E+03</rscale>
<asrwt>0</asrwt>
<pdfrwt beam="1">  1        1 0.30688371E+00 0.46254118E+03</pdfrwt>
<pdfrwt beam="2">  1       -2 0.18534230E-01 0.46254118E+03</pdfrwt>
<totfact> 0.69009188E+01</totfact>
</mgrwt>
</event>
<event>
12    3  0.1182097E-007  0.7759285E+03  0.7818608E-02  0.9595528E-01
          1   -1    0    0  501    0  0.00000000000E+00  0.00000000000E+00  0.24234991479E+04  0.24234991479E+04  0.00000000000E+00 0. -1.
         -2   -1    0    0    0  501 -0.00000000000E+00 -0.00000000000E+00 -0.56907711821E+03  0.56907711821E+03  0.00000000000E+00 0.  1.
        -24    2    1    2    0    0  0.70295944224E+03  0.84141930161E+02 -0.19850235937E+03  0.73961405700E+03  0.79962020935E+02 0.  0.
    5000000    2    1    2    0    0 -0.70295944224E+03 -0.84141930161E+02  0.20529243891E+04  0.22529622091E+04  0.60009026541E+03 0.  0.
        -24    2    4    4    0    0 -0.52386028068E+03 -0.26429478177E+03  0.95846475528E+03  0.11265549151E+04  0.78676325532E+02 0.  0.
         24    2    4    4    0    0 -0.17909916156E+03  0.18015285161E+03  0.10944596338E+04  0.11264072941E+04  0.80124543621E+02 0.  0.
         13    1    3    3    0    0  0.10431310342E+03 -0.35850627764E+01 -0.54320518193E+01  0.10451594810E+03  0.00000000000E+00 0. -1.
        -14    1    3    3    0    0  0.59864633883E+03  0.87726992937E+02 -0.19307030755E+03  0.63509810891E+03  0.00000000000E+00 0.  1.
         15    1    5    5    0    0 -0.30052426854E+03 -0.14755884286E+03  0.61943528735E+03  0.70412476240E+03  0.17770000000E+01 0. -1.
        -16    1    5    5    0    0 -0.22333601215E+03 -0.11673593891E+03  0.33902946793E+03  0.42243015267E+03  0.00000000000E+00 0.  1.
          2    1    6    6  502    0 -0.10468872323E+03  0.12480724293E+03  0.53291412366E+03  0.55725581186E+03  0.00000000000E+00 0. -1.
         -3    1    6    6    0  502 -0.74410438328E+02  0.55345608672E+02  0.56154551014E+03  0.56915148220E+03  0.00000000000E+00 0.  1.
<mgrwt>
<rscale>  0 0.77592851E+03</rscale>
<asrwt>0</asrwt>
<pdfrwt beam="1">  1        1 0.37284602E+00 0.77592851E+03</pdfrwt>
<pdfrwt beam="2">  1       -2 0.87550328E-01 0.77592851E+03</pdfrwt>
<totfact> 0.15889560E+00</totfact>
</mgrwt>
</event>
<event>
12    3  0.1182097E-007  0.6295863E+03  0.7818608E-02  0.9845857E-01
          1   -1    0    0  501    0  0.00000000000E+00  0.00000000000E+00  0.13257163073E+04  0.13257163073E+04  0.00000000000E+00 0. -1.
         -2   -1    0    0    0  501 -0.00000000000E+00 -0.00000000000E+00 -0.38972417147E+03  0.38972417147E+03  0.00000000000E+00 0.  1.
        -24    2    1    2    0    0  0.24294861985E+03  0.50098417916E+03  0.15375173494E+03  0.58316113473E+03  0.80175641012E+02 0.  0.
    5000000    2    1    2    0    0 -0.24294861985E+03 -0.50098417916E+03  0.78224040090E+03  0.11322793440E+04  0.60012272786E+03 0.  0.
        -24    2    4    4    0    0  0.85022551783E+02 -0.27765019608E+03  0.64115818022E+02  0.30803391235E+03  0.80346669763E+02 0.  0.
         24    2    4    4    0    0 -0.32797117163E+03 -0.22333398308E+03  0.71812458288E+03  0.82424543170E+03  0.78958582316E+02 0.  0.
         13    1    3    3    0    0  0.14247391534E+03  0.35190788654E+03  0.75476615912E+02  0.38708487017E+03  0.00000000000E+00 0. -1.
        -14    1    3    3    0    0  0.10047470451E+03  0.14907629261E+03  0.78275119033E+02  0.19607626456E+03  0.00000000000E+00 0.  1.
         15    1    5    5    0    0  0.99061036318E+02 -0.23287948082E+03  0.64274278434E+02  0.26111354255E+03  0.17770000000E+01 0. -1.
        -16    1    5    5    0    0 -0.14038484535E+02 -0.44770715256E+02 -0.15846041134E+00  0.46920369801E+02  0.00000000000E+00 0.  1.
          4    1    6    6  502    0 -0.21532677550E+03 -0.17367810000E+03  0.43497590923E+03  0.51549368985E+03  0.00000000000E+00 0. -1.
         -3    1    6    6    0  502 -0.11264439613E+03 -0.49655883081E+02  0.28314867365E+03  0.30875174185E+03  0.00000000000E+00 0.  1.
<mgrwt>
<rscale>  0 0.62958626E+03</rscale>
<asrwt>0</asrwt>
<pdfrwt beam="1">  1        1 0.20395635E+00 0.62958626E+03</pdfrwt>
<pdfrwt beam="2">  1       -2 0.59957566E-01 0.62958626E+03</pdfrwt>
<totfact> 0.20594522E+01</totfact>
</mgrwt>
</event>
<event>
12    3  0.1182097E-007  0.5182770E+03  0.7818608E-02  0.1009115E+00
          1   -1    0    0  501    0  0.00000000000E+00  0.00000000000E+00  0.30997226399E+03  0.30997226399E+03  0.00000000000E+00 0. -1.
         -2   -1    0    0    0  501 -0.00000000000E+00 -0.00000000000E+00 -0.16353141857E+04  0.16353141857E+04  0.00000000000E+00 0.  1.
        -24    2    1    2    0    0  0.32073672079E+02  0.50561183446E+03 -0.93935622661E+03  0.10702987243E+04  0.80480999274E+02 0.  0.
    5000000    2    1    2    0    0 -0.32073672079E+02 -0.50561183446E+03 -0.38598569510E+03  0.87498772535E+03  0.59995542761E+03 0.  0.
        -24    2    4    4    0    0 -0.19709300985E+02 -0.27421121267E+03 -0.52076208510E+03  0.59439402162E+03  0.80813723817E+02 0.  0.
         24    2    4    4    0    0 -0.12364371094E+02 -0.23140062179E+03  0.13477639001E+03  0.28059370374E+03  0.82879586349E+02 0.  0.
         11    1    3    3    0    0  0.41890785053E+02  0.24960004103E+03 -0.53092192313E+03  0.58816078313E+03  0.00000000000E+00 0. -1.
        -12    1    3    3    0    0 -0.98171129742E+01  0.25601179343E+03 -0.40843430348E+03  0.48213794120E+03  0.00000000000E+00 0.  1.
         15    1    5    5    0    0 -0.25348976394E+02 -0.43428148488E+02 -0.14393509518E+03  0.15247637207E+03  0.17770000000E+01 0. -1.
        -16    1    5    5    0    0  0.56396754097E+01 -0.23078306418E+03 -0.37682698993E+03  0.44191764955E+03  0.00000000000E+00 0.  1.
          4    1    6    6  502    0  0.15174666766E+02 -0.23036651226E+01  0.77627556978E+01  0.17199934897E+02  0.00000000000E+00 0. -1.
         -3    1    6    6    0  502 -0.27539037860E+02 -0.22909695667E+03  0.12701363431E+03  0.26339376884E+03  0.00000000000E+00 0.  1.
<mgrwt>
<rscale>  0 0.51827695E+03</rscale>
<asrwt>0</asrwt>
<pdfrwt beam="1">  1        1 0.47688041E-01 0.51827695E+03</pdfrwt>
<pdfrwt beam="2">  1       -2 0.25158680E+00 0.51827695E+03</pdfrwt>
<totfact> 0.49271300E+00</totfact>
</mgrwt>
</event>
<event>
12    3  0.1182097E-007  0.6146349E+03  0.7818608E-02  0.9875500E-01
          1   -1    0    0  501    0  0.00000000000E+00  0.00000000000E+00  0.11336041200E+04  0.11336041200E+04  0.00000000000E+00 0. -1.
         -2   -1    0    0    0  501 -0.00000000000E+00 -0.00000000000E+00 -0.56419518421E+03  0.56419518421E+03  0.00000000000E+00 0.  1.
        -24    2    1    2    0    0 -0.29252495329E+03 -0.46844194235E+03 -0.18373752102E+03  0.58761975869E+03  0.80801005714E+02 0.  0.
    5000000    2    1    2    0    0  0.29252495329E+03  0.46844194235E+03  0.75314645680E+03  0.11101795455E+04  0.60021690762E+03 0.  0.
        -24    2    4    4    0    0  0.32009643541E+03  0.17321163169E+03  0.95123106787E+02  0.38420269923E+03  0.78098087896E+02 0.  0.
         24    2    4    4    0    0 -0.27571482123E+02  0.29523031066E+03  0.65802335001E+03  0.72597684627E+03  0.78272148292E+02 0.  0.
         11    1    3    3    0    0 -0.27467136159E+03 -0.38634855216E+03 -0.15192309863E+03  0.49778528356E+03  0.00000000000E+00 0. -1.
        -12    1    3    3    0    0 -0.17853591697E+02 -0.82093390194E+02 -0.31814422394E+02  0.89834475132E+02  0.00000000000E+00 0.  1.
         15    1    5    5    0    0  0.20326766466E+03  0.97481100539E+02  0.95858338476E+02  0.24497405422E+03  0.17770000000E+01 0. -1.
        -16    1    5    5    0    0  0.11682877075E+03  0.75730531155E+02 -0.73523168931E+00  0.13922864500E+03  0.00000000000E+00 0.  1.
          4    1    6    6  502    0 -0.32254262608E+02  0.40467940532E+02  0.10372803880E+03  0.11592022128E+03  0.00000000000E+00 0. -1.
         -1    1    6    6    0  502  0.46827804848E+01  0.25476237013E+03  0.55429531121E+03  0.61005662499E+03  0.00000000000E+00 0.  1.
<mgrwt>
<rscale>  0 0.61463489E+03</rscale>
<asrwt>0</asrwt>
<pdfrwt beam="1">  1        1 0.17440063E+00 0.61463489E+03</pdfrwt>
<pdfrwt beam="2">  1       -2 0.86799259E-01 0.61463489E+03</pdfrwt>
<totfact> 0.12584871E+01</totfact>
</mgrwt>
</event>
<event>
12    3  0.1182097E-007  0.7106798E+03  0.7818608E-02  0.9699141E-01
         -2   -1    0    0    0  501 -0.00000000000E+00  0.00000000000E+00  0.65217679428E+03  0.65217679428E+03  0.00000000000E+00 0.  1.
          1   -1    0    0  501    0  0.00000000000E+00 -0.00000000000E+00 -0.99092312921E+03  0.99092312921E+03  0.00000000000E+00 0. -1.
        -24    2    1    2    0    0 -0.24773913406E+02 -0.68845642636E+03 -0.13091078477E+03  0.70622526648E+03  0.83848051117E+02 0.  0.
    5000000    2    1    2    0    0  0.24773913406E+02  0.68845642636E+03 -0.20783555017E+03  0.93687465701E+03  0.59996042307E+03 0.  0.
        -24    2    4    4    0    0  0.12927122709E+03  0.40191345461E+03  0.15714684629E+03  0.45475292130E+03  0.62125783528E+02 0.  0.
         24    2    4    4    0    0 -0.10449731369E+03  0.28654297174E+03 -0.36498239645E+03  0.48212173571E+03  0.78756936804E+02 0.  0.
         11    1    3    3    0    0 -0.37538565158E+02 -0.21611356445E+03 -0.15964535635E+02  0.21992972290E+03  0.00000000000E+00 0. -1.
        -12    1    3    3    0    0  0.12764651752E+02 -0.47234286190E+03 -0.11494624913E+03  0.48629554359E+03  0.00000000000E+00 0.  1.
         15    1    5    5    0    0  0.20007392081E+02  0.43672651536E+02 -0.12881811877E+01  0.48087559409E+02  0.17770000000E+01 0. -1.
        -16    1    5    5    0    0  0.10926383501E+03  0.35824080308E+03  0.15843502748E+03  0.40666536189E+03  0.00000000000E+00 0.  1.
          2    1    6    6  502    0 -0.32328327567E+02  0.13811787482E+03 -0.22362042189E+03  0.26481646700E+03  0.00000000000E+00 0. -1.
         -1    1    6    6    0  502 -0.72168986121E+02  0.14842509692E+03 -0.14136197456E+03  0.21730526870E+03  0.00000000000E+00 0.  1.
<mgrwt>
<rscale>  0 0.71067982E+03</rscale>
<asrwt>0</asrwt>
<pdfrwt beam="1">  1        1 0.15244971E+00 0.71067982E+03</pdfrwt>
<pdfrwt beam="2">  1       -2 0.10033489E+00 0.71067982E+03</pdfrwt>
<totfact> 0.11366909E+01</totfact>
</mgrwt>
</event>
<event>
12    3  0.1182097E-007  0.7714004E+03  0.7818608E-02  0.9602362E-01
         -2   -1    0    0    0  501 -0.00000000000E+00  0.00000000000E+00  0.71090137124E+03  0.71090137124E+03  0.00000000000E+00 0.  1.
          1   -1    0    0  501    0  0.00000000000E+00 -0.00000000000E+00 -0.12028308338E+04  0.12028308338E+04  0.00000000000E+00 0. -1.
        -24    2    1    2    0    0  0.35828872427E+03 -0.54748434920E+03 -0.74058097580E+03  0.99148930758E+03  0.80504302890E+02 0.  0.
    5000000    2    1    2    0    0 -0.35828872427E+03  0.54748434920E+03  0.24865151327E+03  0.92224289741E+03  0.60049518251E+03 0.  0.
        -24    2    4    4    0    0 -0.37964439165E+03  0.58929471804E+02  0.12446032389E+03  0.41165334068E+03  0.79784421472E+02 0.  0.
         24    2    4    4    0    0  0.21355667379E+02  0.48855487740E+03  0.12419118938E+03  0.51058955674E+03  0.78334610318E+02 0.  0.
         13    1    3    3    0    0  0.14283822953E+03 -0.28932795092E+03 -0.34723362495E+03  0.47400908567E+03  0.00000000000E+00 0. -1.
        -14    1    3    3    0    0  0.21545049474E+03 -0.25815639828E+03 -0.39334735085E+03  0.51748022191E+03  0.00000000000E+00 0.  1.
         15    1    5    5    0    0 -0.17379360706E+03 -0.12501239496E+02  0.62526754579E+02  0.18513036383E+03  0.17770000000E+01 0. -1.
        -16    1    5    5    0    0 -0.20585078459E+03  0.71430711299E+02  0.61933569309E+02  0.22652297685E+03  0.00000000000E+00 0.  1.
          4    1    6    6  502    0  0.14425304773E+02  0.31628830542E+02  0.25401451043E+02  0.43054686787E+02  0.00000000000E+00 0. -1.
         -3    1    6    6    0  502  0.69303626061E+01  0.45692604685E+03  0.98789738341E+02  0.46753486995E+03  0.00000000000E+00 0.  1.
<mgrwt>
<rscale>  0 0.77140041E+03</rscale>
<asrwt>0</asrwt>
<pdfrwt beam="1">  1        1 0.18505090E+00 0.77140041E+03</pdfrwt>
<pdfrwt beam="2">  1       -2 0.10936944E+00 0.77140041E+03</pdfrwt>
<totfact> 0.63677797E+00</totfact>
</mgrwt>
</event>
<event>
12    3  0.1182097E-007  0.4569627E+03  0.7818608E-02  0.1025666E+00
         -2   -1    0    0    0  501 -0.00000000000E+00  0.00000000000E+00  0.99690700736E+03  0.99690700736E+03  0.00000000000E+00 0.  1.
          1   -1    0    0  501    0  0.00000000000E+00 -0.00000000000E+00 -0.24949724016E+03  0.24949724016E+03  0.00000000000E+00 0. -1.
        -24    2    1    2    0    0 -0.24795074045E+03  0.72676501726E+02  0.45748256981E+03  0.53161407943E+03  0.81004840422E+02 0.  0.
    5000000    2    1    2    0    0  0.24795074045E+03 -0.72676501726E+02  0.28992719739E+03  0.71479016809E+03  0.60008812771E+03 0.  0.
        -24    2    4    4    0    0 -0.14439413314E+03 -0.16766826458E+03  0.14885320880E+03  0.27974663606E+03  0.84490176861E+02 0.  0.
         24    2    4    4    0    0  0.39234487359E+03  0.94991762850E+02  0.14107398858E+03  0.43504353203E+03  0.80019183107E+02 0.  0.
         11    1    3    3    0    0 -0.23894841028E+03  0.86267646523E+02  0.43646800584E+03  0.50501759348E+03  0.00000000000E+00 0. -1.
        -12    1    3    3    0    0 -0.90023301694E+01 -0.13591144797E+02  0.21014563978E+02  0.26596485944E+02  0.00000000000E+00 0.  1.
         15    1    5    5    0    0 -0.32048984698E+02 -0.13731449477E+01  0.40438624629E+02  0.51647488207E+02  0.17770000000E+01 0. -1.
        -16    1    5    5    0    0 -0.11234514844E+03 -0.16629511963E+03  0.10841458417E+03  0.22809914786E+03  0.00000000000E+00 0.  1.
          2    1    6    6  502    0  0.14934518457E+03  0.74515931187E+02  0.44296232919E+02  0.17268110611E+03  0.00000000000E+00 0. -1.
         -1    1    6    6    0  502  0.24299968902E+03  0.20475831663E+02  0.96777755665E+02  0.26236242592E+03  0.00000000000E+00 0.  1.
<mgrwt>
<rscale>  0 0.45696267E+03</rscale>
<asrwt>0</asrwt>
<pdfrwt beam="1">  1        1 0.38384191E-01 0.45696267E+03</pdfrwt>
<pdfrwt beam="2">  1       -2 0.15337031E+00 0.45696267E+03</pdfrwt>
<totfact> 0.28638578E+01</totfact>
</mgrwt>
</event>
<event>
12    3  0.1182097E-007  0.8812111E+03  0.7818608E-02  0.9449378E-01
          1   -1    0    0  501    0  0.00000000000E+00  0.00000000000E+00  0.32080859594E+04  0.32080859594E+04  0.00000000000E+00 0. -1.
         -2   -1    0    0    0  501 -0.00000000000E+00 -0.00000000000E+00 -0.45008323420E+03  0.45008323420E+03  0.00000000000E+00 0.  1.
        -24    2    1    2    0    0  0.76026702555E+03  0.32207084881E+03  0.24581236949E+04  0.25943205872E+04  0.79947655942E+02 0.  0.
    5000000    2    1    2    0    0 -0.76026702555E+03 -0.32207084881E+03  0.29987903025E+03  0.10638486064E+04  0.60009236186E+03 0.  0.
        -24    2    4    4    0    0 -0.53177387320E+03  0.66376530614E+01  0.36589141562E+03  0.65035856793E+03  0.79134241665E+02 0.  0.
         24    2    4    4    0    0 -0.22849315235E+03 -0.32870850187E+03 -0.66012385375E+02  0.41349003847E+03  0.79736923782E+02 0.  0.
         11    1    3    3    0    0  0.25398282842E+03  0.10284074541E+03  0.70250252766E+03  0.75405125649E+03  0.00000000000E+00 0. -1.
        -12    1    3    3    0    0  0.50628419714E+03  0.21923010340E+03  0.17556211672E+04  0.18402693307E+04  0.00000000000E+00 0.  1.
         15    1    5    5    0    0 -0.40181678944E+03  0.20723826197E+02  0.31120190406E+03  0.50866097950E+03  0.17770000000E+01 0. -1.
        -16    1    5    5    0    0 -0.12995708376E+03 -0.14086173135E+02  0.54689511566E+02  0.14169758844E+03  0.00000000000E+00 0.  1.
          2    1    6    6  502    0 -0.18729482540E+03 -0.29905164186E+03 -0.77891274494E+02  0.36135617715E+03  0.00000000000E+00 0. -1.
         -1    1    6    6    0  502 -0.41198326953E+02 -0.29656860014E+02  0.11878889119E+02  0.52133861321E+02  0.00000000000E+00 0.  1.
<mgrwt>
<rscale>  0 0.88121108E+03</rscale>
<asrwt>0</asrwt>
<pdfrwt beam="1">  1        1 0.49355167E+00 0.88121108E+03</pdfrwt>
<pdfrwt beam="2">  1       -2 0.69243576E-01 0.88121108E+03</pdfrwt>
<totfact> 0.73608220E-01</totfact>
</mgrwt>
</event>
<event>
12    3  0.1182097E-007  0.1097796E+04  0.7818608E-02  0.9207343E-01
         -2   -1    0    0    0  501 -0.00000000000E+00  0.00000000000E+00  0.13240050007E+04  0.13240050007E+04  0.00000000000E+00 0.  1.
          1   -1    0    0  501    0  0.00000000000E+00 -0.00000000000E+00 -0.11208705723E+04  0.11208705723E+04  0.00000000000E+00 0. -1.
        -24    2    1    2    0    0  0.83716356592E+03  0.69749699692E+03  0.44111035399E+03  0.11783676088E+04  0.81406266918E+02 0.  0.
    5000000    2    1    2    0    0 -0.83716356592E+03 -0.69749699692E+03 -0.23797592562E+03  0.12665079642E+04  0.60005415196E+03 0.  0.
        -24    2    4    4    0    0 -0.27334296654E+02 -0.47403795858E+02 -0.20292131562E+03  0.22440612872E+03  0.78656001935E+02 0.  0.
         24    2    4    4    0    0 -0.80982926926E+03 -0.65009320106E+03 -0.35054610003E+02  0.10421018354E+04  0.79390139915E+02 0.  0.
         13    1    3    3    0    0  0.31701415466E+02  0.39430572712E+02  0.36266985746E+02  0.62249851904E+02  0.00000000000E+00 0. -1.
        -14    1    3    3    0    0  0.80546215045E+03  0.65806642421E+03  0.40484336824E+03  0.11161177569E+04  0.00000000000E+00 0.  1.
         15    1    5    5    0    0 -0.15903517400E+02 -0.50025981609E+02 -0.55109256303E+02  0.76129551168E+02  0.17770000000E+01 0. -1.
        -16    1    5    5    0    0 -0.11430779254E+02  0.26221857508E+01 -0.14781205931E+03  0.14827657755E+03  0.00000000000E+00 0.  1.
          4    1    6    6  502    0 -0.54713310452E+03 -0.47861860703E+03 -0.44040064248E+02  0.72826501517E+03  0.00000000000E+00 0. -1.
         -3    1    6    6    0  502 -0.26269616474E+03 -0.17147459404E+03  0.89854542442E+01  0.31383682027E+03  0.00000000000E+00 0.  1.
<mgrwt>
<rscale>  0 0.10977956E+04</rscale>
<asrwt>0</asrwt>
<pdfrwt beam="1">  1        1 0.17244163E+00 0.10977956E+04</pdfrwt>
<pdfrwt beam="2">  1       -2 0.20369308E+00 0.10977956E+04</pdfrwt>
<totfact> 0.13295955E+00</totfact>
</mgrwt>
</event>
<event>
12    3  0.1182097E-007  0.3145423E+03  0.7818608E-02  0.1078189E+00
          1   -1    0    0  501    0  0.00000000000E+00  0.00000000000E+00  0.89721534577E+03  0.89721534577E+03  0.00000000000E+00 0. -1.
         -2   -1    0    0    0  501 -0.00000000000E+00 -0.00000000000E+00 -0.15447492679E+03  0.15447492679E+03  0.00000000000E+00 0.  1.
        -24    2    1    2    0    0 -0.24983663366E+02  0.10357801866E+03  0.15931980383E+03  0.20806238697E+03  0.80960284043E+02 0.  0.
    5000000    2    1    2    0    0  0.24983663366E+02 -0.10357801866E+03  0.58342061514E+03  0.84362788559E+03  0.59997983782E+03 0.  0.
        -24    2    4    4    0    0  0.23311526551E+03 -0.13865168146E+03  0.82963846064E+02  0.29452976489E+03  0.79358470691E+02 0.  0.
         24    2    4    4    0    0 -0.20813160214E+03  0.35073662798E+02  0.50045676908E+03  0.54909812070E+03  0.80640205881E+02 0.  0.
         11    1    3    3    0    0 -0.40980081561E+02  0.10913776685E+03  0.14352369763E+03  0.18490395080E+03  0.00000000000E+00 0. -1.
        -12    1    3    3    0    0  0.15996418194E+02 -0.55597481848E+01  0.15796106198E+02  0.23158436173E+02  0.00000000000E+00 0.  1.
         15    1    5    5    0    0  0.16265029230E+03 -0.89155411933E+02  0.93591188563E+02  0.20776494740E+03  0.17770000000E+01 0. -1.
        -16    1    5    5    0    0  0.70464973204E+02 -0.49496269529E+02 -0.10627342499E+02  0.86764817493E+02  0.00000000000E+00 0.  1.
          4    1    6    6  502    0 -0.64520176854E+02  0.47058453284E+02  0.21444090041E+03  0.22882799439E+03  0.00000000000E+00 0. -1.
         -3    1    6    6    0  502 -0.14361142529E+03 -0.11984790486E+02  0.28601586867E+03  0.32027012631E+03  0.00000000000E+00 0.  1.
<mgrwt>
<rscale>  0 0.31454231E+03</rscale>
<asrwt>0</asrwt>
<pdfrwt beam="1">  1        1 0.13803313E+00 0.31454231E+03</pdfrwt>
<pdfrwt beam="2">  1       -2 0.23765374E-01 0.31454231E+03</pdfrwt>
<totfact> 0.26299444E+02</totfact>
</mgrwt>
</event>
<event>
12    3  0.1182097E-007  0.6988326E+03  0.7818608E-02  0.9719231E-01
         -2   -1    0    0    0  501 -0.00000000000E+00  0.00000000000E+00  0.79718912477E+03  0.79718912477E+03  0.00000000000E+00 0.  1.
          1   -1    0    0  501    0  0.00000000000E+00 -0.00000000000E+00 -0.16347375510E+04  0.16347375510E+04  0.00000000000E+00 0. -1.
        -24    2    1    2    0    0 -0.27557557745E+01  0.61233720088E+03 -0.13134766067E+04  0.14513873606E+04  0.79624321128E+02 0.  0.
    5000000    2    1    2    0    0  0.27557557745E+01 -0.61233720088E+03  0.47592818045E+03  0.98053931515E+03  0.59998772807E+03 0.  0.
        -24    2    4    4    0    0 -0.21808265387E+03 -0.15274747688E+03 -0.87885554904E+00  0.27809128796E+03  0.80263045307E+02 0.  0.
         24    2    4    4    0    0  0.22083840964E+03 -0.45958972400E+03  0.47680703600E+03  0.70244802719E+03  0.78076653009E+02 0.  0.
         11    1    3    3    0    0  0.32550878463E+02  0.30041568779E+03 -0.59525676049E+03  0.66756254843E+03  0.00000000000E+00 0. -1.
        -12    1    3    3    0    0 -0.35306634238E+02  0.31192151309E+03 -0.71821984619E+03  0.78382481219E+03  0.00000000000E+00 0.  1.
         15    1    5    5    0    0 -0.81347736802E+02 -0.26852709308E+02 -0.28251828746E+02  0.90221094188E+02  0.17770000000E+01 0. -1.
        -16    1    5    5    0    0 -0.13673491707E+03 -0.12589476757E+03  0.27372973197E+02  0.18787019377E+03  0.00000000000E+00 0.  1.
          4    1    6    6  502    0  0.42620906672E+02 -0.99759672939E+02  0.14773785429E+03  0.18328940946E+03  0.00000000000E+00 0. -1.
         -3    1    6    6    0  502  0.17821750297E+03 -0.35983005106E+03  0.32906918171E+03  0.51915861773E+03  0.00000000000E+00 0.  1.
<mgrwt>
<rscale>  0 0.69883258E+03</rscale>
<asrwt>0</asrwt>
<pdfrwt beam="1">  1        1 0.25149809E+00 0.69883258E+03</pdfrwt>
<pdfrwt beam="2">  1       -2 0.12264448E+00 0.69883258E+03</pdfrwt>
<totfact> 0.24376548E+00</totfact>
</mgrwt>
</event>
<event>
12    3  0.1182097E-007  0.1452165E+04  0.7818608E-02  0.8916901E-01
         -2   -1    0    0    0  501 -0.00000000000E+00  0.00000000000E+00  0.16577580232E+04  0.16577580232E+04  0.00000000000E+00 0.  1.
          1   -1    0    0  501    0  0.00000000000E+00 -0.00000000000E+00 -0.12907135789E+04  0.12907135789E+04  0.00000000000E+00 0. -1.
        -24    2    1    2    0    0  0.12575082252E+04 -0.61450869385E+03  0.20943545981E+03  0.14175306552E+04  0.81129990489E+02 0.  0.
    5000000    2    1    2    0    0 -0.12575082252E+04  0.61450869385E+03  0.15760898451E+03  0.15309409469E+04  0.59999309958E+03 0.  0.
        -24    2    4    4    0    0 -0.11911963876E+04  0.38810043358E+03  0.21813000545E+03  0.12741648062E+04  0.79652203684E+02 0.  0.
         24    2    4    4    0    0 -0.66311837545E+02  0.22640826027E+03 -0.60521020936E+02  0.25677614068E+03  0.81321782633E+02 0.  0.
         13    1    3    3    0    0  0.75516346749E+03 -0.32457162356E+03  0.12176537733E+03  0.83093044749E+03  0.00000000000E+00 0. -1.
        -14    1    3    3    0    0  0.50234475770E+03 -0.28993707029E+03  0.87670082484E+02  0.58660020771E+03  0.00000000000E+00 0.  1.
         15    1    5    5    0    0 -0.90590115706E+03  0.29540717371E+03  0.20018636320E+03  0.97365293734E+03  0.17770000000E+01 0. -1.
        -16    1    5    5    0    0 -0.28529523058E+03  0.92693259873E+02  0.17943642244E+02  0.30051186885E+03  0.00000000000E+00 0.  1.
          4    1    6    6  502    0 -0.74667999968E+02  0.11074244192E+03 -0.31178928280E+02  0.13715438101E+03  0.00000000000E+00 0. -1.
         -3    1    6    6    0  502  0.83561624233E+01  0.11566581835E+03 -0.29342092656E+02  0.11962175967E+03  0.00000000000E+00 0.  1.
<mgrwt>
<rscale>  0 0.14521649E+04</rscale>
<asrwt>0</asrwt>
<pdfrwt beam="1">  1        1 0.19857132E+00 0.14521649E+04</pdfrwt>
<pdfrwt beam="2">  1       -2 0.25503970E+00 0.14521649E+04</pdfrwt>
<totfact> 0.45728921E-01</totfact>
</mgrwt>
</event>
<event>
12    3  0.1182097E-007  0.8856179E+03  0.7818608E-02  0.9443741E-01
          1   -1    0    0  501    0  0.00000000000E+00  0.00000000000E+00  0.74194848345E+03  0.74194848345E+03  0.00000000000E+00 0. -1.
         -2   -1    0    0    0  501 -0.00000000000E+00 -0.00000000000E+00 -0.12355888530E+04  0.12355888530E+04  0.00000000000E+00 0.  1.
        -24    2    1    2    0    0 -0.65178600874E+03  0.56305764445E+03 -0.22648154449E+03  0.89438620068E+03  0.82303546770E+02 0.  0.
    5000000    2    1    2    0    0  0.65178600874E+03 -0.56305764445E+03 -0.26715882507E+03  0.10831511358E+04  0.59998636063E+03 0.  0.
        -24    2    4    4    0    0  0.12856149885E+02 -0.10674947194E+03 -0.26043773005E+03  0.29375595986E+03  0.83090446910E+02 0.  0.
         24    2    4    4    0    0  0.63892985886E+03 -0.45630817251E+03 -0.67210950201E+01  0.78939517591E+03  0.81554017670E+02 0.  0.
         13    1    3    3    0    0 -0.29685403594E+03  0.20361764234E+03 -0.10135910455E+03  0.37397343623E+03  0.00000000000E+00 0. -1.
        -14    1    3    3    0    0 -0.35493197280E+03  0.35944000211E+03 -0.12512243994E+03  0.52041276446E+03  0.00000000000E+00 0.  1.
         15    1    5    5    0    0  0.82116122266E+01  0.29690906527E+01 -0.93578261852E+02  0.94001568577E+02  0.17770000000E+01 0. -1.
        -16    1    5    5    0    0  0.46445376583E+01 -0.10971856260E+03 -0.16685946820E+03  0.19975439128E+03  0.00000000000E+00 0.  1.
          4    1    6    6  502    0  0.16972817454E+03 -0.15435571461E+03 -0.27378224397E+02  0.23104741297E+03  0.00000000000E+00 0. -1.
         -3    1    6    6    0  502  0.46920168431E+03 -0.30195245789E+03  0.20657129377E+02  0.55834776295E+03  0.00000000000E+00 0.  1.
<mgrwt>
<rscale>  0 0.88561788E+03</rscale>
<asrwt>0</asrwt>
<pdfrwt beam="1">  1        1 0.11414592E+00 0.88561788E+03</pdfrwt>
<pdfrwt beam="2">  1       -2 0.19009059E+00 0.88561788E+03</pdfrwt>
<totfact> 0.34088007E+00</totfact>
</mgrwt>
</event>
<event>
12    3  0.1182097E-007  0.7069425E+03  0.7818608E-02  0.9705433E-01
         -2   -1    0    0    0  501 -0.00000000000E+00  0.00000000000E+00  0.15030776076E+04  0.15030776076E+04  0.00000000000E+00 0.  1.
          1   -1    0    0  501    0  0.00000000000E+00 -0.00000000000E+00 -0.66960098035E+03  0.66960098035E+03  0.00000000000E+00 0. -1.
        -24    2    1    2    0    0  0.13432159360E+02 -0.60880073568E+03  0.11136283493E+04  0.12731234503E+04  0.99279708486E+02 0.  0.
    5000000    2    1    2    0    0 -0.13432159360E+02  0.60880073568E+03 -0.28015172205E+03  0.89955513772E+03  0.59991307684E+03 0.  0.
        -24    2    4    4    0    0  0.10126992556E+03  0.64954909380E+03 -0.33414409620E+03  0.74172270982E+03  0.79565558917E+02 0.  0.
         24    2    4    4    0    0 -0.11470208492E+03 -0.40748358121E+02  0.53992374152E+02  0.15783242790E+03  0.84728400523E+02 0.  0.
         11    1    3    3    0    0 -0.17914381167E+02 -0.25481035793E+03  0.37888583026E+03  0.45695045238E+03  0.00000000000E+00 0. -1.
        -12    1    3    3    0    0  0.31346540528E+02 -0.35399037774E+03  0.73474251909E+03  0.81617299789E+03  0.00000000000E+00 0.  1.
         15    1    5    5    0    0  0.44912898272E+02  0.14933859644E+03 -0.50474548780E+02  0.16392078154E+03  0.17770000000E+01 0. -1.
        -16    1    5    5    0    0  0.56357027283E+02  0.50021049736E+03 -0.28366954742E+03  0.57780192828E+03  0.00000000000E+00 0.  1.
          2    1    6    6  502    0 -0.77884127104E+02 -0.63472764083E+02  0.55026099176E+02  0.11455392017E+03  0.00000000000E+00 0. -1.
         -1    1    6    6    0  502 -0.36817957812E+02  0.22724405962E+02 -0.10337250247E+01  0.43278507728E+02  0.00000000000E+00 0.  1.
<mgrwt>
<rscale>  0 0.70694253E+03</rscale>
<asrwt>0</asrwt>
<pdfrwt beam="1">  1        1 0.10301554E+00 0.70694253E+03</pdfrwt>
<pdfrwt beam="2">  1       -2 0.23124271E+00 0.70694253E+03</pdfrwt>
<totfact> 0.22283504E+00</totfact>
</mgrwt>
</event>
<event>
12    3  0.1182097E-007  0.4955158E+03  0.7818608E-02  0.1014956E+00
          1   -1    0    0  501    0  0.00000000000E+00  0.00000000000E+00  0.58032873474E+03  0.58032873474E+03  0.00000000000E+00 0. -1.
         -2   -1    0    0    0  501 -0.00000000000E+00 -0.00000000000E+00 -0.65200222960E+03  0.65200222960E+03  0.00000000000E+00 0.  1.
        -24    2    1    2    0    0 -0.18987957770E+03 -0.29193510773E+03 -0.33547511915E+03  0.49011132088E+03  0.79907384693E+02 0.  0.
    5000000    2    1    2    0    0  0.18987957770E+03  0.29193510773E+03  0.26380162429E+03  0.74221964347E+03  0.60001528399E+03 0.  0.
        -24    2    4    4    0    0  0.34164404022E+03  0.56145613148E+02  0.11763022177E+02  0.35598252794E+03  0.81928086807E+02 0.  0.
         24    2    4    4    0    0 -0.15176446252E+03  0.23578949458E+03  0.25203860212E+03  0.38623711553E+03  0.83824308041E+02 0.  0.
         13    1    3    3    0    0 -0.83051830040E+02 -0.73193291606E+02 -0.75750682185E+02  0.13413810145E+03  0.00000000000E+00 0. -1.
        -14    1    3    3    0    0 -0.10682774766E+03 -0.21874181612E+03 -0.25972443697E+03  0.35597321943E+03  0.00000000000E+00 0.  1.
         15    1    5    5    0    0  0.29336933679E+03  0.42976616553E+02 -0.19220337160E+02  0.29712814816E+03  0.17770000000E+01 0. -1.
        -16    1    5    5    0    0  0.48274703431E+02  0.13168996595E+02  0.30983359336E+02  0.58854379773E+02  0.00000000000E+00 0.  1.
          2    1    6    6  502    0 -0.12381636915E+03  0.12442615697E+03  0.12822357757E+03  0.21737904143E+03  0.00000000000E+00 0. -1.
         -1    1    6    6    0  502 -0.27948093377E+02  0.11136333761E+03  0.12381502455E+03  0.16885807411E+03  0.00000000000E+00 0.  1.
<mgrwt>
<rscale>  0 0.49551578E+03</rscale>
<asrwt>0</asrwt>
<pdfrwt beam="1">  1        1 0.89281344E-01 0.49551578E+03</pdfrwt>
<pdfrwt beam="2">  1       -2 0.10030804E+00 0.49551578E+03</pdfrwt>
<totfact> 0.26960961E+01</totfact>
</mgrwt>
</event>
<event>
12    3  0.1182097E-007  0.8779059E+03  0.7818608E-02  0.9453629E-01
          1   -1    0    0  501    0  0.00000000000E+00  0.00000000000E+00  0.75476168319E+03  0.75476168319E+03  0.00000000000E+00 0. -1.
         -2   -1    0    0    0  501 -0.00000000000E+00 -0.00000000000E+00 -0.10381913000E+04  0.10381913000E+04  0.00000000000E+00 0.  1.
        -24    2    1    2    0    0 -0.71991167258E+03  0.29940722764E+03 -0.63338687718E+02  0.78480316222E+03  0.63140397329E+02 0.  0.
    5000000    2    1    2    0    0  0.71991167258E+03 -0.29940722764E+03 -0.22009092905E+03  0.10081498209E+04  0.60000711671E+03 0.  0.
        -24    2    4    4    0    0  0.39123981694E+03 -0.46055174914E+03 -0.13543615762E+03  0.62435429470E+03  0.79365134237E+02 0.  0.
         24    2    4    4    0    0  0.32867185565E+03  0.16114452150E+03 -0.84654771422E+02  0.38379552623E+03  0.78357068119E+02 0.  0.
         13    1    3    3    0    0 -0.19841720497E+03  0.10216723323E+03  0.39366418446E+01  0.22321072537E+03  0.00000000000E+00 0. -1.
        -14    1    3    3    0    0 -0.52149446762E+03  0.19723999442E+03 -0.67275329563E+02  0.56159243684E+03  0.00000000000E+00 0.  1.
         15    1    5    5    0    0  0.26143232336E+03 -0.35961331483E+03 -0.88162517302E+02  0.45325973027E+03  0.17770000000E+01 0. -1.
        -16    1    5    5    0    0  0.12980749358E+03 -0.10093843431E+03 -0.47273640322E+02  0.17109456444E+03  0.00000000000E+00 0.  1.
          4    1    6    6  502    0  0.20716792133E+03  0.10130590450E+03 -0.14002916985E+02  0.23103574528E+03  0.00000000000E+00 0. -1.
         -3    1    6    6    0  502  0.12150393432E+03  0.59838617001E+02 -0.70651854436E+02  0.15275978095E+03  0.00000000000E+00 0.  1.
<mgrwt>
<rscale>  0 0.87790589E+03</rscale>
<asrwt>0</asrwt>
<pdfrwt beam="1">  1        1 0.11611718E+00 0.87790589E+03</pdfrwt>
<pdfrwt beam="2">  1       -2 0.15972174E+00 0.87790589E+03</pdfrwt>
<totfact> 0.54220642E+00</totfact>
</mgrwt>
</event>
<event>
12    3  0.1182097E-007  0.7515343E+03  0.7818608E-02  0.9632946E-01
         -2   -1    0    0    0  501 -0.00000000000E+00  0.00000000000E+00  0.54648281548E+03  0.54648281548E+03  0.00000000000E+00 0.  1.
          1   -1    0    0  501    0  0.00000000000E+00 -0.00000000000E+00 -0.21842619827E+04  0.21842619827E+04  0.00000000000E+00 0. -1.
        -24    2    1    2    0    0 -0.37562950191E+03 -0.63937938237E+03 -0.16121946822E+04  0.17763456181E+04  0.79552147351E+02 0.  0.
    5000000    2    1    2    0    0  0.37562950191E+03  0.63937938237E+03 -0.25584484954E+02  0.95439918007E+03  0.60026636732E+03 0.  0.
        -24    2    4    4    0    0  0.30416958035E+03  0.51612275920E+03 -0.26896200076E+03  0.66153358083E+03  0.79901718008E+02 0.  0.
         24    2    4    4    0    0  0.71459921565E+02  0.12325662318E+03  0.24337751580E+03  0.29286559924E+03  0.78986887980E+02 0.  0.
         11    1    3    3    0    0 -0.37007704741E+02 -0.42035005256E+02 -0.17094512214E+03  0.17988537089E+03  0.00000000000E+00 0. -1.
        -12    1    3    3    0    0 -0.33862179717E+03 -0.59734437712E+03 -0.14412495601E+04  0.15964602472E+04  0.00000000000E+00 0.  1.
         15    1    5    5    0    0  0.74164722802E+02  0.68392489692E+02 -0.39751523907E+02  0.10844943585E+03  0.17770000000E+01 0. -1.
        -16    1    5    5    0    0  0.23000485755E+03  0.44773026951E+03 -0.22921047685E+03  0.55308414498E+03  0.00000000000E+00 0.  1.
          4    1    6    6  502    0  0.32640096814E+02  0.67138425502E+01  0.92422308614E+02  0.98246296273E+02  0.00000000000E+00 0. -1.
         -3    1    6    6    0  502  0.38819824750E+02  0.11654278063E+03  0.15095520719E+03  0.19461930297E+03  0.00000000000E+00 0.  1.
<mgrwt>
<rscale>  0 0.75153429E+03</rscale>
<asrwt>0</asrwt>
<pdfrwt beam="1">  1        1 0.33604030E+00 0.75153429E+03</pdfrwt>
<pdfrwt beam="2">  1       -2 0.84074282E-01 0.75153429E+03</pdfrwt>
<totfact> 0.25389379E+00</totfact>
</mgrwt>
</event>
<event>
12    3  0.1182097E-007  0.6988811E+03  0.7818608E-02  0.9719148E-01
          3   -1    0    0  501    0  0.00000000000E+00  0.00000000000E+00  0.76630752529E+03  0.76630752529E+03  0.00000000000E+00 0. -1.
         -4   -1    0    0    0  501 -0.00000000000E+00 -0.00000000000E+00 -0.81138525002E+03  0.81138525002E+03  0.00000000000E+00 0.  1.
        -24    2    1    2    0    0 -0.64022724862E+03  0.12796255762E+03  0.13886398546E+03  0.67216975225E+03  0.79143056257E+02 0.  0.
    5000000    2    1    2    0    0  0.64022724862E+03 -0.12796255762E+03 -0.18394171020E+03  0.90552302305E+03  0.59989336260E+03 0.  0.
        -24    2    4    4    0    0  0.40294427464E+03 -0.25113825985E+03  0.11639236345E+03  0.49516683001E+03  0.78793992477E+02 0.  0.
         24    2    4    4    0    0  0.23728297399E+03  0.12317570224E+03 -0.30033407365E+03  0.41035619304E+03  0.81952339857E+02 0.  0.
         13    1    3    3    0    0 -0.14031709909E+03  0.25024959236E+02  0.64262620545E+02  0.15634839712E+03  0.00000000000E+00 0. -1.
        -14    1    3    3    0    0 -0.49991014953E+03  0.10293759838E+03  0.74601364917E+02  0.51582135514E+03  0.00000000000E+00 0.  1.
         15    1    5    5    0    0  0.10572776037E+03 -0.44446375526E+02  0.57769194997E+02  0.12843004800E+03  0.17770000000E+01 0. -1.
        -16    1    5    5    0    0  0.29721651427E+03 -0.20669188433E+03  0.58623168451E+02  0.36673678201E+03  0.00000000000E+00 0.  1.
          4    1    6    6  502    0  0.16406627520E+03  0.95488738297E+02 -0.15416010378E+03  0.24454279666E+03  0.00000000000E+00 0. -1.
         -3    1    6    6    0  502  0.73216698784E+02  0.27686963940E+02 -0.14617396987E+03  0.16581339638E+03  0.00000000000E+00 0.  1.
<mgrwt>
<rscale>  0 0.69888108E+03</rscale>
<asrwt>0</asrwt>
<pdfrwt beam="1">  1        3 0.11789347E+00 0.69888108E+03</pdfrwt>
<pdfrwt beam="2">  1       -4 0.12482850E+00 0.69888108E+03</pdfrwt>
<totfact> 0.63893762E-01</totfact>
</mgrwt>
</event>
<event>
12    3  0.1182097E-007  0.6979078E+03  0.7818608E-02  0.9720817E-01
         -2   -1    0    0    0  501 -0.00000000000E+00  0.00000000000E+00  0.60363569856E+03  0.60363569856E+03  0.00000000000E+00 0.  1.
          1   -1    0    0  501    0  0.00000000000E+00 -0.00000000000E+00 -0.95024732446E+03  0.95024732446E+03  0.00000000000E+00 0. -1.
        -24    2    1    2    0    0 -0.60051779836E+03 -0.20954066154E+03 -0.15027927912E+03  0.65771921327E+03  0.74039089626E+02 0.  0.
    5000000    2    1    2    0    0  0.60051779836E+03  0.20954066154E+03 -0.19633234678E+03  0.89616380974E+03  0.60002855641E+03 0.  0.
        -24    2    4    4    0    0 -0.31299241921E+02 -0.23706068708E+02 -0.20084440447E+03  0.21800250685E+03  0.75133201378E+02 0.  0.
         24    2    4    4    0    0  0.63181704028E+03  0.23324673025E+03  0.45120576849E+01  0.67816130289E+03  0.79281678257E+02 0.  0.
         13    1    3    3    0    0 -0.20938148506E+03 -0.10793633882E+03 -0.41219157199E+02  0.23914405375E+03  0.00000000000E+00 0. -1.
        -14    1    3    3    0    0 -0.39113631330E+03 -0.10160432271E+03 -0.10906012192E+03  0.41857515952E+03  0.00000000000E+00 0.  1.
         15    1    5    5    0    0  0.44644095056E+01  0.22107289793E+02 -0.90532549842E+02  0.93316469736E+02  0.17770000000E+01 0. -1.
        -16    1    5    5    0    0 -0.35763651427E+02 -0.45813358501E+02 -0.11031185463E+03  0.12468603712E+03  0.00000000000E+00 0.  1.
          2    1    6    6  502    0  0.42080118481E+03  0.12968947509E+03 -0.26172507944E+02  0.44110996051E+03  0.00000000000E+00 0. -1.
         -1    1    6    6    0  502  0.21101585547E+03  0.10355725516E+03  0.30684565629E+02  0.23705134238E+03  0.00000000000E+00 0.  1.
<mgrwt>
<rscale>  0 0.69790781E+03</rscale>
<asrwt>0</asrwt>
<pdfrwt beam="1">  1        1 0.14619190E+00 0.69790781E+03</pdfrwt>
<pdfrwt beam="2">  1       -2 0.92867031E-01 0.69790781E+03</pdfrwt>
<totfact> 0.14687872E+01</totfact>
</mgrwt>
</event>
<event>
12    3  0.1182097E-007  0.1180200E+04  0.7818608E-02  0.9130366E-01
         -2   -1    0    0    0  501 -0.00000000000E+00  0.00000000000E+00  0.23377807427E+04  0.23377807427E+04  0.00000000000E+00 0.  1.
          1   -1    0    0  501    0  0.00000000000E+00 -0.00000000000E+00 -0.19949777217E+04  0.19949777217E+04  0.00000000000E+00 0. -1.
        -24    2    1    2    0    0 -0.10943885258E+04  0.22848518892E+03  0.19716422287E+04  0.22680470225E+04  0.82295147514E+02 0.  0.
    5000000    2    1    2    0    0  0.10943885258E+04 -0.22848518892E+03 -0.16288392078E+04  0.20647114419E+04  0.60002037180E+03 0.  0.
        -24    2    4    4    0    0  0.11365243763E+04 -0.22177953194E+03 -0.13957779961E+04  0.18153363441E+04  0.79849914832E+02 0.  0.
         24    2    4    4    0    0 -0.42135850489E+02 -0.67056569763E+01 -0.23306121164E+03  0.24937509784E+03  0.77781844387E+02 0.  0.
         11    1    3    3    0    0 -0.98480639106E+03  0.18193247654E+03  0.17819372274E+04  0.20440751787E+04  0.00000000000E+00 0. -1.
        -12    1    3    3    0    0 -0.10958213476E+03  0.46552712376E+02  0.18970500135E+03  0.22397184382E+03  0.00000000000E+00 0.  1.
         15    1    5    5    0    0  0.59310811982E+03 -0.11682594962E+03 -0.66618000360E+03  0.89956906307E+03  0.17770000000E+01 0. -1.
        -16    1    5    5    0    0  0.54341625649E+03 -0.10495358232E+03 -0.72959799252E+03  0.91576728100E+03  0.00000000000E+00 0.  1.
          4    1    6    6  502    0 -0.55117713469E+02 -0.24136197304E+02 -0.11996156960E+03  0.13420617176E+03  0.00000000000E+00 0. -1.
         -3    1    6    6    0  502  0.12981862980E+02  0.17430540328E+02 -0.11309964204E+03  0.11516892607E+03  0.00000000000E+00 0.  1.
<mgrwt>
<rscale>  0 0.11802005E+04</rscale>
<asrwt>0</asrwt>
<pdfrwt beam="1">  1        1 0.30691965E+00 0.11802005E+04</pdfrwt>
<pdfrwt beam="2">  1       -2 0.35965858E+00 0.11802005E+04</pdfrwt>
<totfact> 0.35250640E-02</totfact>
</mgrwt>
</event>
<event>
12    3  0.1182097E-007  0.9354375E+03  0.7818608E-02  0.9382336E-01
          1   -1    0    0  501    0  0.00000000000E+00  0.00000000000E+00  0.18048428494E+04  0.18048428494E+04  0.00000000000E+00 0. -1.
         -2   -1    0    0    0  501 -0.00000000000E+00 -0.00000000000E+00 -0.69460423166E+03  0.69460423166E+03  0.00000000000E+00 0.  1.
        -24    2    1    2    0    0  0.45156967092E+03  0.79888372568E+03 -0.24583110913E+02  0.92150261808E+03  0.80202063164E+02 0.  0.
    5000000    2    1    2    0    0 -0.45156967092E+03 -0.79888372568E+03  0.11348217286E+04  0.15779444629E+04  0.59996499690E+03 0.  0.
        -24    2    4    4    0    0 -0.33445772515E+03 -0.39593537751E+03  0.22054201736E+03  0.56793182691E+03  0.72670389606E+02 0.  0.
         24    2    4    4    0    0 -0.11711194577E+03 -0.40294834817E+03  0.91427971125E+03  0.10100126360E+04  0.90197313537E+02 0.  0.
         11    1    3    3    0    0  0.39290328211E+03  0.74094635516E+03 -0.19710033277E+02  0.83890582054E+03  0.00000000000E+00 0. -1.
        -12    1    3    3    0    0  0.58666388812E+02  0.57937370517E+02 -0.48730776354E+01  0.82596797543E+02  0.00000000000E+00 0.  1.
         15    1    5    5    0    0 -0.15399086912E+02 -0.16654644328E+01  0.22358083647E+01  0.15749991033E+02  0.17770000000E+01 0. -1.
        -16    1    5    5    0    0 -0.31905863823E+03 -0.39426991308E+03  0.21830620899E+03  0.55218183588E+03  0.00000000000E+00 0.  1.
          2    1    6    6  502    0  0.10844353150E+02 -0.15389970022E+02  0.66378984501E+02  0.68997251800E+02  0.00000000000E+00 0. -1.
         -1    1    6    6    0  502 -0.12795629892E+03 -0.38755837815E+03  0.84790072675E+03  0.94101538422E+03  0.00000000000E+00 0.  1.
<mgrwt>
<rscale>  0 0.93543755E+03</rscale>
<asrwt>0</asrwt>
<pdfrwt beam="1">  1        1 0.27766813E+00 0.93543755E+03</pdfrwt>
<pdfrwt beam="2">  1       -2 0.10686219E+00 0.93543755E+03</pdfrwt>
<totfact> 0.25292004E+00</totfact>
</mgrwt>
</event>
<event>
12    3  0.1182097E-007  0.7221813E+03  0.7818608E-02  0.9680033E-01
         -2   -1    0    0    0  501 -0.00000000000E+00  0.00000000000E+00  0.77392539351E+03  0.77392539351E+03  0.00000000000E+00 0.  1.
          1   -1    0    0  501    0  0.00000000000E+00 -0.00000000000E+00 -0.90424262898E+03  0.90424262898E+03  0.00000000000E+00 0. -1.
        -24    2    1    2    0    0 -0.23903088260E+03  0.59887723279E+03 -0.39241025586E+03  0.75910810070E+03  0.80433804169E+02 0.  0.
    5000000    2    1    2    0    0  0.23903088260E+03 -0.59887723279E+03  0.26209302039E+03  0.91905992180E+03  0.60015721751E+03 0.  0.
        -24    2    4    4    0    0 -0.13583378454E+03 -0.15423702929E+03 -0.85276014540E+02  0.23667315921E+03  0.80636886140E+02 0.  0.
         24    2    4    4    0    0  0.37486466714E+03 -0.44464020350E+03  0.34736903493E+03  0.68238676259E+03  0.82207165685E+02 0.  0.
         13    1    3    3    0    0 -0.88696763866E+02  0.15641535475E+03 -0.78777401114E+02  0.19631290851E+03  0.00000000000E+00 0. -1.
        -14    1    3    3    0    0 -0.15033411873E+03  0.44246187804E+03 -0.31363285475E+03  0.56279519219E+03  0.00000000000E+00 0.  1.
         15    1    5    5    0    0 -0.34046766402E+02 -0.79075186624E+02 -0.66407829518E+02  0.10874385037E+03  0.17770000000E+01 0. -1.
        -16    1    5    5    0    0 -0.10178701814E+03 -0.75161842666E+02 -0.18868185022E+02  0.12792930884E+03  0.00000000000E+00 0.  1.
          2    1    6    6  502    0  0.21692752003E+03 -0.30166550615E+03  0.18857566691E+03  0.41667782362E+03  0.00000000000E+00 0. -1.
         -3    1    6    6    0  502  0.15793714711E+03 -0.14297469734E+03  0.15879336803E+03  0.26570893897E+03  0.00000000000E+00 0.  1.
<mgrwt>
<rscale>  0 0.72218133E+03</rscale>
<asrwt>0</asrwt>
<pdfrwt beam="1">  1        1 0.13911425E+00 0.72218133E+03</pdfrwt>
<pdfrwt beam="2">  1       -2 0.11906544E+00 0.72218133E+03</pdfrwt>
<totfact> 0.87927304E+00</totfact>
</mgrwt>
</event>
<event>
12    3  0.1182097E-007  0.8682376E+03  0.7818608E-02  0.9466181E-01
          1   -1    0    0  501    0  0.00000000000E+00  0.00000000000E+00  0.19042481401E+04  0.19042481401E+04  0.00000000000E+00 0. -1.
         -2   -1    0    0    0  501 -0.00000000000E+00 -0.00000000000E+00 -0.56987359793E+03  0.56987359793E+03  0.00000000000E+00 0.  1.
        -24    2    1    2    0    0 -0.55487544958E+03  0.61018713709E+03  0.11810707577E+04  0.14427020856E+04  0.79032058445E+02 0.  0.
    5000000    2    1    2    0    0  0.55487544958E+03 -0.61018713709E+03  0.15330378449E+03  0.10314196525E+04  0.60009111169E+03 0.  0.
        -24    2    4    4    0    0  0.48675589661E+03 -0.63208469259E+03  0.29411697566E+03  0.85400607374E+03  0.79744699663E+02 0.  0.
         24    2    4    4    0    0  0.68119552969E+02  0.21897555502E+02 -0.14081319117E+03  0.17741357872E+03  0.80792615212E+02 0.  0.
         13    1    3    3    0    0 -0.16531763649E+03  0.22776245397E+03  0.43904810006E+03  0.52150636673E+03  0.00000000000E+00 0. -1.
        -14    1    3    3    0    0 -0.38955781309E+03  0.38242468312E+03  0.74202265761E+03  0.92119571884E+03  0.00000000000E+00 0.  1.
         15    1    5    5    0    0  0.86519953835E+02 -0.70340214626E+02  0.51499854945E+02  0.12283664353E+03  0.17770000000E+01 0. -1.
        -16    1    5    5    0    0  0.40023594278E+03 -0.56174447796E+03  0.24261712071E+03  0.73116943021E+03  0.00000000000E+00 0.  1.
          4    1    6    6  502    0  0.70658395102E+02  0.45565506384E+02 -0.11177123784E+03  0.13986291066E+03  0.00000000000E+00 0. -1.
         -3    1    6    6    0  502 -0.25388421335E+01 -0.23667950882E+02 -0.29041953329E+02  0.37550668057E+02  0.00000000000E+00 0.  1.
<mgrwt>
<rscale>  0 0.86823755E+03</rscale>
<asrwt>0</asrwt>
<pdfrwt beam="1">  1        1 0.29296125E+00 0.86823755E+03</pdfrwt>
<pdfrwt beam="2">  1       -2 0.87672862E-01 0.86823755E+03</pdfrwt>
<totfact> 0.34891506E+00</totfact>
</mgrwt>
</event>
<event>
12    3  0.1182097E-007  0.4654708E+03  0.7818608E-02  0.1023206E+00
          1   -1    0    0  501    0  0.00000000000E+00  0.00000000000E+00  0.69347054694E+03  0.69347054694E+03  0.00000000000E+00 0. -1.
         -2   -1    0    0    0  501 -0.00000000000E+00 -0.00000000000E+00 -0.53668581988E+03  0.53668581988E+03  0.00000000000E+00 0.  1.
        -24    2    1    2    0    0  0.12930527846E+03  0.43576792691E+03  0.51847125050E+01  0.46218324654E+03  0.83504077593E+02 0.  0.
    5000000    2    1    2    0    0 -0.12930527846E+03 -0.43576792691E+03  0.15160001456E+03  0.76797312027E+03  0.60015548642E+03 0.  0.
        -24    2    4    4    0    0 -0.12465991255E+03 -0.30488203037E+03 -0.19507974346E+03  0.39051358842E+03  0.77146679722E+02 0.  0.
         24    2    4    4    0    0 -0.46453659053E+01 -0.13088589654E+03  0.34667975802E+03  0.37745953185E+03  0.71666911638E+02 0.  0.
         13    1    3    3    0    0  0.68143121666E+02  0.32130926642E+03  0.30826567520E+02  0.32989908606E+03  0.00000000000E+00 0. -1.
        -14    1    3    3    0    0  0.61162156792E+02  0.11445866050E+03 -0.25641855015E+02  0.13228416048E+03  0.00000000000E+00 0.  1.
         15    1    5    5    0    0 -0.59276844540E+02 -0.23158982583E+03 -0.12427141398E+03  0.26943298571E+03  0.17770000000E+01 0. -1.
        -16    1    5    5    0    0 -0.65383068013E+02 -0.73292204542E+02 -0.70808329484E+02  0.12108060271E+03  0.00000000000E+00 0.  1.
          2    1    6    6  502    0 -0.19607735784E+02 -0.66576313804E+02  0.97493163931E+02  0.11967366408E+03  0.00000000000E+00 0. -1.
         -1    1    6    6    0  502  0.14962369878E+02 -0.64309582738E+02  0.24918659409E+03  0.25778586777E+03  0.00000000000E+00 0.  1.
<mgrwt>
<rscale>  0 0.46547077E+03</rscale>
<asrwt>0</asrwt>
<pdfrwt beam="1">  1        1 0.10668778E+00 0.46547077E+03</pdfrwt>
<pdfrwt beam="2">  1       -2 0.82567049E-01 0.46547077E+03</pdfrwt>
<totfact> 0.32732034E+01</totfact>
</mgrwt>
</event>
<event>
12    3  0.1182097E-007  0.5797514E+03  0.7818608E-02  0.9948329E-01
         -2   -1    0    0    0  501 -0.00000000000E+00  0.00000000000E+00  0.69119769577E+03  0.69119769577E+03  0.00000000000E+00 0.  1.
          1   -1    0    0  501    0  0.00000000000E+00 -0.00000000000E+00 -0.58006619731E+03  0.58006619731E+03  0.00000000000E+00 0. -1.
        -24    2    1    2    0    0 -0.43163483284E+03  0.17014922950E+03  0.19332761946E+03  0.50847019552E+03  0.76856893446E+02 0.  0.
    5000000    2    1    2    0    0  0.43163483284E+03 -0.17014922950E+03 -0.82196121001E+02  0.76279369755E+03  0.59986551284E+03 0.  0.
        -24    2    4    4    0    0  0.25063342051E+03  0.16249231530E+03 -0.18767565650E+03  0.36178416304E+03  0.80279291057E+02 0.  0.
         24    2    4    4    0    0  0.18100141233E+03 -0.33264154480E+03  0.10547953550E+03  0.40100953452E+03  0.79188419425E+02 0.  0.
         13    1    3    3    0    0 -0.10997665185E+03  0.45855248835E+02  0.87260728213E+02  0.14768887056E+03  0.00000000000E+00 0. -1.
        -14    1    3    3    0    0 -0.32165818099E+03  0.12429398067E+03  0.10606689125E+03  0.36078132497E+03  0.00000000000E+00 0.  1.
         15    1    5    5    0    0  0.13862313609E+02  0.40420080787E+02 -0.29829183348E+02  0.52142924521E+02  0.17770000000E+01 0. -1.
        -16    1    5    5    0    0  0.23677110690E+03  0.12207223451E+03 -0.15784647315E+03  0.30964123852E+03  0.00000000000E+00 0.  1.
          2    1    6    6  502    0  0.64231341647E+02 -0.19787234361E+03  0.46302573007E+02  0.21312685866E+03  0.00000000000E+00 0. -1.
         -1    1    6    6    0  502  0.11677007068E+03 -0.13476920119E+03  0.59176962494E+02  0.18788267586E+03  0.00000000000E+00 0.  1.
<mgrwt>
<rscale>  0 0.57975137E+03</rscale>
<asrwt>0</asrwt>
<pdfrwt beam="1">  1        1 0.89240954E-01 0.57975137E+03</pdfrwt>
<pdfrwt beam="2">  1       -2 0.10633811E+00 0.57975137E+03</pdfrwt>
<totfact> 0.23246281E+01</totfact>
</mgrwt>
</event>
<event>
12    3  0.1182097E-007  0.7734221E+03  0.7818608E-02  0.9599305E-01
         -2   -1    0    0    0  501 -0.00000000000E+00  0.00000000000E+00  0.67930076436E+03  0.67930076436E+03  0.00000000000E+00 0.  1.
          1   -1    0    0  501    0  0.00000000000E+00 -0.00000000000E+00 -0.94089059962E+03  0.94089059962E+03  0.00000000000E+00 0. -1.
        -24    2    1    2    0    0  0.44024387739E+03 -0.52359445884E+03 -0.96744110781E+02  0.69534740491E+03  0.78630538818E+02 0.  0.
    5000000    2    1    2    0    0 -0.44024387739E+03  0.52359445884E+03 -0.16484572448E+03  0.92484395908E+03  0.60016365007E+03 0.  0.
        -24    2    4    4    0    0 -0.30448340661E+03 -0.10222290297E+02  0.65666455692E+02  0.32249564454E+03  0.82925974377E+02 0.  0.
         24    2    4    4    0    0 -0.13576047078E+03  0.53381674913E+03 -0.23051218017E+03  0.60234831454E+03  0.79349856559E+02 0.  0.
         11    1    3    3    0    0  0.74118135930E+02 -0.13545414063E+03 -0.96028968968E+01  0.15470467969E+03  0.00000000000E+00 0. -1.
        -12    1    3    3    0    0  0.36612574146E+03 -0.38814031821E+03 -0.87141213884E+02  0.54064272522E+03  0.00000000000E+00 0.  1.
         15    1    5    5    0    0 -0.20849845604E+03  0.12802513770E+02  0.78072475664E+02  0.22301116501E+03  0.17770000000E+01 0. -1.
        -16    1    5    5    0    0 -0.95984950565E+02 -0.23024804067E+02 -0.12406019971E+02  0.99484479537E+02  0.00000000000E+00 0.  1.
          4    1    6    6  502    0 -0.12778876389E+03  0.51819801026E+03 -0.20575267010E+03  0.57200813567E+03  0.00000000000E+00 0. -1.
         -3    1    6    6    0  502 -0.79717068909E+01  0.15618738869E+02 -0.24759510076E+02  0.30340178869E+02  0.00000000000E+00 0.  1.
<mgrwt>
<rscale>  0 0.77342210E+03</rscale>
<asrwt>0</asrwt>
<pdfrwt beam="1">  1        1 0.14475240E+00 0.77342210E+03</pdfrwt>
<pdfrwt beam="2">  1       -2 0.10450781E+00 0.77342210E+03</pdfrwt>
<totfact> 0.11210127E+01</totfact>
</mgrwt>
</event>
<event>
12    3  0.1182097E-007  0.6823786E+03  0.7818608E-02  0.9747851E-01
          1   -1    0    0  501    0  0.00000000000E+00  0.00000000000E+00  0.62982127062E+03  0.62982127062E+03  0.00000000000E+00 0. -1.
         -2   -1    0    0    0  501 -0.00000000000E+00 -0.00000000000E+00 -0.96419873906E+03  0.96419873906E+03  0.00000000000E+00 0.  1.
        -24    2    1    2    0    0 -0.12496178813E+03  0.61688591536E+03 -0.34927324778E+03  0.72423432190E+03  0.79748795224E+02 0.  0.
    5000000    2    1    2    0    0  0.12496178813E+03 -0.61688591536E+03  0.14895779342E+02  0.86978568778E+03  0.60011796953E+03 0.  0.
        -24    2    4    4    0    0  0.24630625564E+03 -0.40868185067E+03 -0.21225688602E+03  0.52845723640E+03  0.80786375148E+02 0.  0.
         24    2    4    4    0    0 -0.12134446750E+03 -0.20820406469E+03  0.22715266536E+03  0.34132845137E+03  0.82664175961E+02 0.  0.
         11    1    3    3    0    0 -0.13067735992E+03  0.52184315659E+03 -0.31270609510E+03  0.62223946708E+03  0.00000000000E+00 0. -1.
        -12    1    3    3    0    0  0.57155717833E+01  0.95042758771E+02 -0.36567152683E+02  0.10199485483E+03  0.00000000000E+00 0.  1.
         15    1    5    5    0    0  0.91078231430E+02 -0.13312817359E+03 -0.32094389911E+02  0.16447359191E+03  0.17770000000E+01 0. -1.
        -16    1    5    5    0    0  0.15522802421E+03 -0.27555367708E+03 -0.18016249611E+03  0.36398364449E+03  0.00000000000E+00 0.  1.
          2    1    6    6  502    0 -0.36226879898E+02 -0.14093421469E+03  0.14307915228E+03  0.20407470082E+03  0.00000000000E+00 0. -1.
         -1    1    6    6    0  502 -0.85117587605E+02 -0.67269850007E+02  0.84073513078E+02  0.13725375055E+03  0.00000000000E+00 0.  1.
<mgrwt>
<rscale>  0 0.68237859E+03</rscale>
<asrwt>0</asrwt>
<pdfrwt beam="1">  1        1 0.96895580E-01 0.68237859E+03</pdfrwt>
<pdfrwt beam="2">  1       -2 0.14833827E+00 0.68237859E+03</pdfrwt>
<totfact> 0.88708121E+00</totfact>
</mgrwt>
</event>
<event>
12    3  0.1182097E-007  0.5214290E+03  0.7818608E-02  0.1008332E+00
          1   -1    0    0  501    0  0.00000000000E+00  0.00000000000E+00  0.22345447979E+03  0.22345447979E+03  0.00000000000E+00 0. -1.
         -2   -1    0    0    0  501 -0.00000000000E+00 -0.00000000000E+00 -0.14466656555E+04  0.14466656555E+04  0.00000000000E+00 0.  1.
        -24    2    1    2    0    0  0.80629183013E+02  0.36330420436E+03 -0.68077329665E+03  0.77989630279E+03  0.79340731175E+02 0.  0.
    5000000    2    1    2    0    0 -0.80629183013E+02 -0.36330420436E+03 -0.54243787907E+03  0.89022383251E+03  0.59980714339E+03 0.  0.
        -24    2    4    4    0    0  0.16921111826E+03 -0.36942243490E+03 -0.45010314043E+03  0.61242031941E+03  0.85793196939E+02 0.  0.
         24    2    4    4    0    0 -0.24984030127E+03  0.61182305460E+01 -0.92334738639E+02  0.27780351311E+03  0.78685952064E+02 0.  0.
         11    1    3    3    0    0  0.15016525749E+02  0.17495616968E+03 -0.25367173360E+03  0.30851986287E+03  0.00000000000E+00 0. -1.
        -12    1    3    3    0    0  0.65612657264E+02  0.18834803467E+03 -0.42710156305E+03  0.47137643992E+03  0.00000000000E+00 0.  1.
         15    1    5    5    0    0  0.17444774992E+03 -0.31069935961E+03 -0.38500674438E+03  0.52459456770E+03  0.17770000000E+01 0. -1.
        -16    1    5    5    0    0 -0.52366316665E+01 -0.58723075295E+02 -0.65096396051E+02  0.87825751703E+02  0.00000000000E+00 0.  1.
          4    1    6    6  502    0 -0.20218616109E+03  0.19235719145E+02 -0.42270262813E+02  0.20745127560E+03  0.00000000000E+00 0. -1.
         -3    1    6    6    0  502 -0.47654140177E+02 -0.13117488599E+02 -0.50064475826E+02  0.70352237511E+02  0.00000000000E+00 0.  1.
<mgrwt>
<rscale>  0 0.52142897E+03</rscale>
<asrwt>0</asrwt>
<pdfrwt beam="1">  1        1 0.34377613E-01 0.52142897E+03</pdfrwt>
<pdfrwt beam="2">  1       -2 0.22256394E+00 0.52142897E+03</pdfrwt>
<totfact> 0.11248833E+01</totfact>
</mgrwt>
</event>
<event>
12    3  0.1182097E-007  0.1209573E+04  0.7818608E-02  0.9104518E-01
          1   -1    0    0  501    0  0.00000000000E+00  0.00000000000E+00  0.10791190410E+04  0.10791190410E+04  0.00000000000E+00 0. -1.
         -2   -1    0    0    0  501 -0.00000000000E+00 -0.00000000000E+00 -0.18260178220E+04  0.18260178220E+04  0.00000000000E+00 0.  1.
        -24    2    1    2    0    0  0.11207781448E+04  0.31154228937E+03 -0.10418188973E+04  0.15636009638E+04  0.79114544494E+02 0.  0.
    5000000    2    1    2    0    0 -0.11207781448E+04 -0.31154228937E+03  0.29492011623E+03  0.13415358992E+04  0.59961524831E+03 0.  0.
        -24    2    4    4    0    0 -0.91278256324E+03 -0.43446175682E+03  0.36558953208E+03  0.10779596070E+04  0.80076104728E+02 0.  0.
         24    2    4    4    0    0 -0.20799558159E+03  0.12291946746E+03 -0.70669415846E+02  0.26357629221E+03  0.78146900356E+02 0.  0.
         13    1    3    3    0    0  0.58051444042E+03  0.17402105637E+03 -0.59296890223E+03  0.84787526359E+03  0.00000000000E+00 0. -1.
        -14    1    3    3    0    0  0.54026370441E+03  0.13752123300E+03 -0.44884999505E+03  0.71572570017E+03  0.00000000000E+00 0.  1.
         15    1    5    5    0    0 -0.62968490427E+02 -0.10562069160E+02  0.31669536128E+02  0.71293094611E+02  0.17770000000E+01 0. -1.
        -16    1    5    5    0    0 -0.84981407281E+03 -0.42389968766E+03  0.33391999595E+03  0.10066665124E+04  0.00000000000E+00 0.  1.
          2    1    6    6  502    0 -0.26172208811E+02  0.21548898907E+02  0.16725198109E+02  0.37803066145E+02  0.00000000000E+00 0. -1.
         -1    1    6    6    0  502 -0.18182337278E+03  0.10137056855E+03 -0.87394613956E+02  0.22577322606E+03  0.00000000000E+00 0.  1.
<mgrwt>
<rscale>  0 0.12095732E+04</rscale>
<asrwt>0</asrwt>
<pdfrwt beam="1">  1        1 0.16601831E+00 0.12095732E+04</pdfrwt>
<pdfrwt beam="2">  1       -2 0.28092582E+00 0.12095732E+04</pdfrwt>
<totfact> 0.46853709E-01</totfact>
</mgrwt>
</event>
<event>
12    3  0.1182097E-007  0.4490075E+03  0.7818608E-02  0.1028018E+00
          1   -1    0    0  501    0  0.00000000000E+00  0.00000000000E+00  0.75402091695E+03  0.75402091695E+03  0.00000000000E+00 0. -1.
         -2   -1    0    0    0  501 -0.00000000000E+00 -0.00000000000E+00 -0.40963155316E+03  0.40963155316E+03  0.00000000000E+00 0.  1.
        -24    2    1    2    0    0 -0.25062302645E+03 -0.60298233031E+02 -0.18148786579E+03  0.32523198090E+03  0.79938837107E+02 0.  0.
    5000000    2    1    2    0    0  0.25062302645E+03  0.60298233031E+02  0.52587722958E+03  0.83842048922E+03  0.59996189700E+03 0.  0.
        -24    2    4    4    0    0  0.17666810123E+03  0.31256745440E+03  0.37272101074E+03  0.52371434460E+03  0.80285312149E+02 0.  0.
         24    2    4    4    0    0  0.73954925223E+02 -0.25226922137E+03  0.15315621884E+03  0.31470614462E+03  0.80461413595E+02 0.  0.
         13    1    3    3    0    0 -0.10168186912E+03  0.15322136337E+02 -0.67399341443E+02  0.12294975232E+03  0.00000000000E+00 0. -1.
        -14    1    3    3    0    0 -0.14894115733E+03 -0.75620369368E+02 -0.11408852434E+03  0.20228222857E+03  0.00000000000E+00 0.  1.
         15    1    5    5    0    0  0.15988960218E+03  0.27222900529E+03  0.28328497155E+03  0.42417785072E+03  0.17770000000E+01 0. -1.
        -16    1    5    5    0    0  0.16778499047E+02  0.40338449109E+02  0.89436039192E+02  0.99536493876E+02  0.00000000000E+00 0.  1.
          4    1    6    6  502    0  0.80591493608E+02 -0.19368339238E+03  0.89901200346E+02  0.22823336993E+03  0.00000000000E+00 0. -1.
         -3    1    6    6    0  502 -0.66365683846E+01 -0.58585828994E+02  0.63255018493E+02  0.86472774694E+02  0.00000000000E+00 0.  1.
<mgrwt>
<rscale>  0 0.44900749E+03</rscale>
<asrwt>0</asrwt>
<pdfrwt beam="1">  1        1 0.11600322E+00 0.44900749E+03</pdfrwt>
<pdfrwt beam="2">  1       -2 0.63020239E-01 0.44900749E+03</pdfrwt>
<totfact> 0.52132157E+01</totfact>
</mgrwt>
</event>
<event>
12    3  0.1182097E-007  0.3423178E+03  0.7818608E-02  0.1065813E+00
          1   -1    0    0  501    0  0.00000000000E+00  0.00000000000E+00  0.70507951496E+02  0.70507951496E+02  0.00000000000E+00 0. -1.
         -2   -1    0    0    0  501 -0.00000000000E+00 -0.00000000000E+00 -0.27568153273E+04  0.27568153273E+04  0.00000000000E+00 0.  1.
        -24    2    1    2    0    0  0.37346625434E+02  0.16789087425E+03 -0.25755115693E+03  0.31973326216E+03  0.79464736882E+02 0.  0.
    5000000    2    1    2    0    0 -0.37346625434E+02 -0.16789087425E+03 -0.24287562189E+04  0.25075900167E+04  0.59964056295E+03 0.  0.
        -24    2    4    4    0    0 -0.40059564476E+02  0.15015767746E+03 -0.25928526233E+03  0.31340343988E+03  0.82708959981E+02 0.  0.
         24    2    4    4    0    0  0.27129390417E+01 -0.31804855171E+03 -0.21694709566E+04  0.21941865768E+04  0.81781789194E+02 0.  0.
         13    1    3    3    0    0  0.59121279789E+02  0.96372329583E+02 -0.13400983054E+03  0.17533278734E+03  0.00000000000E+00 0. -1.
        -14    1    3    3    0    0 -0.21774654355E+02  0.71518544666E+02 -0.12354132639E+03  0.14440047483E+03  0.00000000000E+00 0.  1.
         15    1    5    5    0    0  0.15945505726E+02  0.92831987736E+02 -0.11826332829E+03  0.15119989963E+03  0.17770000000E+01 0. -1.
        -16    1    5    5    0    0 -0.56005070202E+02  0.57325689726E+02 -0.14102193403E+03  0.16220354025E+03  0.00000000000E+00 0.  1.
          4    1    6    6  502    0  0.27943257847E+02 -0.16900428939E+03 -0.94266499750E+03  0.95810259002E+03  0.00000000000E+00 0. -1.
         -3    1    6    6    0  502 -0.25230318805E+02 -0.14904426232E+03 -0.12268059591E+04  0.12360839868E+04  0.00000000000E+00 0.  1.
<mgrwt>
<rscale>  0 0.34231785E+03</rscale>
<asrwt>0</asrwt>
<pdfrwt beam="1">  1        1 0.10847379E-01 0.34231785E+03</pdfrwt>
<pdfrwt beam="2">  1       -2 0.42412536E+00 0.34231785E+03</pdfrwt>
<totfact> 0.31058987E+00</totfact>
</mgrwt>
</event>
<event>
12    3  0.1182097E-007  0.9607169E+03  0.7818608E-02  0.9352711E-01
          1   -1    0    0  501    0  0.00000000000E+00  0.00000000000E+00  0.14024211391E+04  0.14024211391E+04  0.00000000000E+00 0. -1.
         -2   -1    0    0    0  501 -0.00000000000E+00 -0.00000000000E+00 -0.73270673088E+03  0.73270673088E+03  0.00000000000E+00 0.  1.
        -24    2    1    2    0    0 -0.61988693606E+03  0.62846135136E+03  0.58969599701E+03  0.10644700156E+04  0.78304288218E+02 0.  0.
    5000000    2    1    2    0    0  0.61988693606E+03 -0.62846135136E+03  0.80018411255E+02  0.10706578544E+04  0.60056790746E+03 0.  0.
        -24    2    4    4    0    0  0.70748635519E+03 -0.46822195036E+03  0.13895277858E+03  0.86348669307E+03  0.80824852959E+02 0.  0.
         24    2    4    4    0    0 -0.87599419131E+02 -0.16023940100E+03 -0.58934367326E+02  0.20717116137E+03  0.78078848500E+02 0.  0.
         11    1    3    3    0    0 -0.51516316966E+03  0.51717528215E+03  0.45071181437E+03  0.85790704826E+03  0.00000000000E+00 0. -1.
        -12    1    3    3    0    0 -0.10472376640E+03  0.11128606921E+03  0.13898418264E+03  0.20656296734E+03  0.00000000000E+00 0.  1.
         15    1    5    5    0    0  0.59301559034E+03 -0.41895627882E+03  0.10010597741E+03  0.73295035193E+03  0.17770000000E+01 0. -1.
        -16    1    5    5    0    0  0.11447076485E+03 -0.49265671537E+02  0.38846801168E+02  0.13053634114E+03  0.00000000000E+00 0.  1.
          2    1    6    6  502    0 -0.32912796292E+02 -0.10570842517E+03 -0.11534994055E+01  0.11071970860E+03  0.00000000000E+00 0. -1.
         -1    1    6    6    0  502 -0.54686622838E+02 -0.54530975836E+02 -0.57780867921E+02  0.96451452766E+02  0.00000000000E+00 0.  1.
<mgrwt>
<rscale>  0 0.96071686E+03</rscale>
<asrwt>0</asrwt>
<pdfrwt beam="1">  1        1 0.21575710E+00 0.96071686E+03</pdfrwt>
<pdfrwt beam="2">  1       -2 0.11272411E+00 0.96071686E+03</pdfrwt>
<totfact> 0.41715647E+00</totfact>
</mgrwt>
</event>
<event>
12    3  0.1182097E-007  0.4383926E+03  0.7818608E-02  0.1031241E+00
          1   -1    0    0  501    0  0.00000000000E+00  0.00000000000E+00  0.46036110916E+03  0.46036110916E+03  0.00000000000E+00 0. -1.
         -2   -1    0    0    0  501 -0.00000000000E+00 -0.00000000000E+00 -0.67982698196E+03  0.67982698196E+03  0.00000000000E+00 0.  1.
        -24    2    1    2    0    0 -0.30328551199E+03 -0.24783476887E+03 -0.44559409902E+02  0.40249986852E+03  0.81341432855E+02 0.  0.
    5000000    2    1    2    0    0  0.30328551199E+03  0.24783476887E+03 -0.17490646290E+03  0.73768822260E+03  0.60015620346E+03 0.  0.
        -24    2    4    4    0    0  0.33489724016E+03  0.16458453642E+03 -0.35501350092E+03  0.52130033264E+03  0.80468750946E+02 0.  0.
         24    2    4    4    0    0 -0.31611728167E+02  0.83250232455E+02  0.18010703802E+03  0.21638788996E+03  0.80344702480E+02 0.  0.
         11    1    3    3    0    0 -0.17609783530E+03 -0.18658395352E+03 -0.49285525341E+02  0.26125290872E+03  0.00000000000E+00 0. -1.
        -12    1    3    3    0    0 -0.12718767670E+03 -0.61250815357E+02  0.47261154389E+01  0.14124695980E+03  0.00000000000E+00 0.  1.
         15    1    5    5    0    0  0.18019686933E+03  0.67717373217E+02 -0.13347148785E+03  0.23425274843E+03  0.17770000000E+01 0. -1.
        -16    1    5    5    0    0  0.15470037083E+03  0.96867163201E+02 -0.22154201307E+03  0.28704758420E+03  0.00000000000E+00 0.  1.
          4    1    6    6  502    0 -0.24002992300E+02  0.39128481522E+01  0.10176329148E+03  0.10462897072E+03  0.00000000000E+00 0. -1.
         -3    1    6    6    0  502 -0.76087358668E+01  0.79337384303E+02  0.78343746541E+02  0.11175891925E+03  0.00000000000E+00 0.  1.
<mgrwt>
<rscale>  0 0.43839261E+03</rscale>
<asrwt>0</asrwt>
<pdfrwt beam="1">  1        1 0.70824786E-01 0.43839261E+03</pdfrwt>
<pdfrwt beam="2">  1       -2 0.10458877E+00 0.43839261E+03</pdfrwt>
<totfact> 0.33760815E+01</totfact>
</mgrwt>
</event>
<event>
12    3  0.1182097E-007  0.1503281E+04  0.7818608E-02  0.8882274E-01
          1   -1    0    0  501    0  0.00000000000E+00  0.00000000000E+00  0.21250213069E+04  0.21250213069E+04  0.00000000000E+00 0. -1.
         -2   -1    0    0    0  501 -0.00000000000E+00 -0.00000000000E+00 -0.13303344151E+04  0.13303344151E+04  0.00000000000E+00 0.  1.
        -24    2    1    2    0    0  0.12803810579E+04 -0.70679554385E+03  0.11170013370E+04  0.18420003774E+04  0.79610358931E+02 0.  0.
    5000000    2    1    2    0    0 -0.12803810579E+04  0.70679554385E+03 -0.32231444526E+03  0.16133553446E+04  0.60007772175E+03 0.  0.
        -24    2    4    4    0    0 -0.59159192344E+03  0.63004838790E+02  0.35048188783E+02  0.60135255918E+03  0.80286432914E+02 0.  0.
         24    2    4    4    0    0 -0.68878913445E+03  0.64379070506E+03 -0.35736263404E+03  0.10120027854E+04  0.86859897762E+02 0.  0.
         13    1    3    3    0    0  0.86775187651E+03 -0.52087703438E+03  0.77571941604E+03  0.12751654075E+04  0.00000000000E+00 0. -1.
        -14    1    3    3    0    0  0.41262918138E+03 -0.18591850947E+03  0.34128192094E+03  0.56683496986E+03  0.00000000000E+00 0.  1.
         15    1    5    5    0    0 -0.81631582667E+01 -0.39556018323E+00  0.11234798726E+02  0.14006143372E+02  0.17770000000E+01 0. -1.
        -16    1    5    5    0    0 -0.58342876517E+03  0.63400398973E+02  0.23813390057E+02  0.58734641581E+03  0.00000000000E+00 0.  1.
          4    1    6    6  502    0 -0.30703522114E+03  0.34542736108E+03 -0.16607184705E+03  0.49109118011E+03  0.00000000000E+00 0. -1.
         -3    1    6    6    0  502 -0.38175391331E+03  0.29836334398E+03 -0.19129078699E+03  0.52091160531E+03  0.00000000000E+00 0.  1.
<mgrwt>
<rscale>  0 0.15032815E+04</rscale>
<asrwt>0</asrwt>
<pdfrwt beam="1">  1        1 0.32692636E+00 0.15032815E+04</pdfrwt>
<pdfrwt beam="2">  1       -2 0.20466683E+00 0.15032815E+04</pdfrwt>
<totfact> 0.25069039E-01</totfact>
</mgrwt>
</event>
<event>
12    3  0.1182097E-007  0.4991436E+03  0.7818608E-02  0.1014003E+00
         -2   -1    0    0    0  501 -0.00000000000E+00  0.00000000000E+00  0.19383946758E+03  0.19383946758E+03  0.00000000000E+00 0.  1.
          1   -1    0    0  501    0  0.00000000000E+00 -0.00000000000E+00 -0.21264877913E+04  0.21264877913E+04  0.00000000000E+00 0. -1.
        -24    2    1    2    0    0  0.43175980995E+03 -0.14682592735E+03 -0.39533529430E+03  0.60814019497E+03  0.74633205646E+02 0.  0.
    5000000    2    1    2    0    0 -0.43175980995E+03  0.14682592735E+03 -0.15373130294E+04  0.17121870639E+04  0.60023229250E+03 0.  0.
        -24    2    4    4    0    0 -0.34981274992E+03  0.20221741293E+03 -0.15304563172E+04  0.15850677457E+04  0.82960095728E+02 0.  0.
         24    2    4    4    0    0 -0.81947060031E+02 -0.55391485580E+02 -0.68567122176E+01  0.12711931821E+03  0.79553562071E+02 0.  0.
         11    1    3    3    0    0  0.28294987585E+03 -0.68222350057E+02 -0.21789707605E+03  0.36358500663E+03  0.00000000000E+00 0. -1.
        -12    1    3    3    0    0  0.14880993410E+03 -0.78603577292E+02 -0.17743821825E+03  0.24455518834E+03  0.00000000000E+00 0.  1.
         15    1    5    5    0    0  0.21753973364E+01  0.11594270834E+02 -0.54758146523E+02  0.56042589246E+02  0.17770000000E+01 0. -1.
        -16    1    5    5    0    0 -0.35198814726E+03  0.19062314209E+03 -0.14756981706E+04  0.15290251564E+04  0.00000000000E+00 0.  1.
          4    1    6    6  502    0  0.80964248744E+01 -0.32931035835E+02 -0.51544913267E+01  0.34301224435E+02  0.00000000000E+00 0. -1.
         -3    1    6    6    0  502 -0.90043484906E+02 -0.22460449744E+02 -0.17022208909E+01  0.92818093778E+02  0.00000000000E+00 0.  1.
<mgrwt>
<rscale>  0 0.49914363E+03</rscale>
<asrwt>0</asrwt>
<pdfrwt beam="1">  1        1 0.32715198E+00 0.49914363E+03</pdfrwt>
<pdfrwt beam="2">  1       -2 0.29821456E-01 0.49914363E+03</pdfrwt>
<totfact> 0.24087990E+01</totfact>
</mgrwt>
</event>
<event>
12    3  0.1182097E-007  0.7223297E+03  0.7818608E-02  0.9679789E-01
          1   -1    0    0  501    0  0.00000000000E+00  0.00000000000E+00  0.85099075367E+03  0.85099075367E+03  0.00000000000E+00 0. -1.
         -4   -1    0    0    0  501 -0.00000000000E+00 -0.00000000000E+00 -0.75370033332E+03  0.75370033332E+03  0.00000000000E+00 0.  1.
        -24    2    1    2    0    0 -0.35166007463E+03  0.56270612892E+03  0.21565859985E+03  0.70225334007E+03  0.79675129919E+02 0.  0.
    5000000    2    1    2    0    0  0.35166007463E+03 -0.56270612892E+03 -0.11836817950E+03  0.90243774693E+03  0.60006655093E+03 0.  0.
        -24    2    4    4    0    0 -0.14486856829E+02  0.31465324195E+02 -0.16335009628E+03  0.19849676897E+03  0.10732090984E+03 0.  0.
         24    2    4    4    0    0  0.36614693146E+03 -0.59417145311E+03  0.44981916785E+02  0.70394097795E+03  0.80038968569E+02 0.  0.
         11    1    3    3    0    0 -0.22859209882E+02  0.51420107772E+02  0.41476872883E+02  0.69906379851E+02  0.00000000000E+00 0. -1.
        -12    1    3    3    0    0 -0.32880086475E+03  0.51128602115E+03  0.17418172697E+03  0.63234696021E+03  0.00000000000E+00 0.  1.
         15    1    5    5    0    0  0.25505072824E+02 -0.40135654323E+01 -0.13600979960E+03  0.13845013818E+03  0.17770000000E+01 0. -1.
        -16    1    5    5    0    0 -0.39991929653E+02  0.35478889627E+02 -0.27340296686E+02  0.60046630791E+02  0.00000000000E+00 0.  1.
          4    1    6    6  502    0  0.13122563657E+03 -0.27653120362E+03  0.41207977295E+02  0.30884910824E+03  0.00000000000E+00 0. -1.
         -3    1    6    6    0  502  0.23492129490E+03 -0.31764024949E+03  0.37739394901E+01  0.39509186971E+03  0.00000000000E+00 0.  1.
<mgrwt>
<rscale>  0 0.72232973E+03</rscale>
<asrwt>0</asrwt>
<pdfrwt beam="1">  1        1 0.13092165E+00 0.72232973E+03</pdfrwt>
<pdfrwt beam="2">  1       -4 0.11595390E+00 0.72232973E+03</pdfrwt>
<totfact> 0.55885185E+00</totfact>
</mgrwt>
</event>
<event>
12    3  0.1182097E-007  0.7243865E+03  0.7818608E-02  0.9676413E-01
          1   -1    0    0  501    0  0.00000000000E+00  0.00000000000E+00  0.38005704088E+03  0.38005704088E+03  0.00000000000E+00 0. -1.
         -2   -1    0    0    0  501 -0.00000000000E+00 -0.00000000000E+00 -0.16992865953E+04  0.16992865953E+04  0.00000000000E+00 0.  1.
        -24    2    1    2    0    0 -0.68152277239E+03 -0.97801138348E+02 -0.60559071581E+03  0.92034234236E+03  0.79066808008E+02 0.  0.
    5000000    2    1    2    0    0  0.68152277239E+03  0.97801138348E+02 -0.71363883860E+03  0.11590012938E+04  0.59997104526E+03 0.  0.
        -24    2    4    4    0    0  0.47266656416E+03  0.18991447958E+03 -0.13837264270E+03  0.53376659017E+03  0.79237580100E+02 0.  0.
         24    2    4    4    0    0  0.20885620822E+03 -0.92113341233E+02 -0.57526619590E+03  0.62523470364E+03  0.88777559936E+02 0.  0.
         13    1    3    3    0    0 -0.32498837232E+03 -0.71705231277E+02 -0.33288081255E+03  0.47071086422E+03  0.00000000000E+00 0. -1.
        -14    1    3    3    0    0 -0.35653440007E+03 -0.26095907072E+02 -0.27270990326E+03  0.44963147814E+03  0.00000000000E+00 0.  1.
         15    1    5    5    0    0  0.35480574706E+03  0.17214068071E+03 -0.12564590049E+03  0.41389561745E+03  0.17770000000E+01 0. -1.
        -16    1    5    5    0    0  0.11786081710E+03  0.17773798873E+02 -0.12726742216E+02  0.11987097272E+03  0.00000000000E+00 0.  1.
          2    1    6    6  502    0  0.19682431790E+03 -0.52762360029E+02 -0.47854294176E+03  0.52012212591E+03  0.00000000000E+00 0. -1.
         -1    1    6    6    0  502  0.12031890326E+02 -0.39350981204E+02 -0.96723254134E+02  0.10511257773E+03  0.00000000000E+00 0.  1.
<mgrwt>
<rscale>  0 0.72438652E+03</rscale>
<asrwt>0</asrwt>
<pdfrwt beam="1">  1        1 0.58470313E-01 0.72438652E+03</pdfrwt>
<pdfrwt beam="2">  1       -2 0.26142871E+00 0.72438652E+03</pdfrwt>
<totfact> 0.31922624E+00</totfact>
</mgrwt>
</event>
<event>
12    3  0.1182097E-007  0.2351478E+03  0.7818608E-02  0.1123068E+00
          1   -1    0    0  501    0  0.00000000000E+00  0.00000000000E+00  0.17118411478E+04  0.17118411478E+04  0.00000000000E+00 0. -1.
         -2   -1    0    0    0  501 -0.00000000000E+00 -0.00000000000E+00 -0.88374400709E+02  0.88374400709E+02  0.00000000000E+00 0.  1.
        -24    2    1    2    0    0 -0.13944687131E+03  0.17350124868E+02  0.33770612978E+03  0.37441870001E+03  0.79984223913E+02 0.  0.
    5000000    2    1    2    0    0  0.13944687131E+03 -0.17350124868E+02  0.12857606173E+04  0.14257968485E+04  0.59997485898E+03 0.  0.
        -24    2    4    4    0    0  0.10491309848E+03  0.11964747936E+03  0.12465943977E+04  0.12593641712E+04  0.81720533971E+02 0.  0.
         24    2    4    4    0    0  0.34533772837E+02 -0.13699760423E+03  0.39166219578E+02  0.16643267731E+03  0.78771303710E+02 0.  0.
         11    1    3    3    0    0 -0.43573816042E+02  0.13111832326E+02  0.20886831050E+03  0.21376755770E+03  0.00000000000E+00 0. -1.
        -12    1    3    3    0    0 -0.95873055271E+02  0.42382925419E+01  0.12883781928E+03  0.16065114231E+03  0.00000000000E+00 0.  1.
         15    1    5    5    0    0  0.84401495110E+02  0.54305230747E+02  0.93267401734E+03  0.93806004649E+03  0.17770000000E+01 0. -1.
        -16    1    5    5    0    0  0.20511603366E+02  0.65342248615E+02  0.31392038039E+03  0.32130412470E+03  0.00000000000E+00 0.  1.
          4    1    6    6  502    0  0.54300814743E+02 -0.12631419903E+03  0.42052936320E+02  0.14377866605E+03  0.00000000000E+00 0. -1.
         -3    1    6    6    0  502 -0.19767041906E+02 -0.10683405199E+02 -0.28867167422E+01  0.22654011255E+02  0.00000000000E+00 0.  1.
<mgrwt>
<rscale>  0 0.23514779E+03</rscale>
<asrwt>0</asrwt>
<pdfrwt beam="1">  1        1 0.26336015E+00 0.23514779E+03</pdfrwt>
<pdfrwt beam="2">  1       -2 0.13596063E-01 0.23514779E+03</pdfrwt>
<totfact> 0.18615520E+02</totfact>
</mgrwt>
</event>
<event>
12    3  0.1182097E-007  0.6687579E+03  0.7818608E-02  0.9772204E-01
          1   -1    0    0  501    0  0.00000000000E+00  0.00000000000E+00  0.15230492371E+04  0.15230492371E+04  0.00000000000E+00 0. -1.
         -2   -1    0    0    0  501 -0.00000000000E+00 -0.00000000000E+00 -0.34573201854E+03  0.34573201854E+03  0.00000000000E+00 0.  1.
        -24    2    1    2    0    0  0.37030052874E+03 -0.46670326770E+03  0.56496708701E+03  0.82464525746E+03  0.76925740676E+02 0.  0.
    5000000    2    1    2    0    0 -0.37030052874E+03  0.46670326770E+03  0.61235013159E+03  0.10441359982E+04  0.60026067458E+03 0.  0.
        -24    2    4    4    0    0  0.83827037043E+02  0.61270426371E+02 -0.50576060539E+02  0.14023331292E+03  0.79538712993E+02 0.  0.
         24    2    4    4    0    0 -0.45412756579E+03  0.40543284133E+03  0.66292619213E+03  0.90390268530E+03  0.83434366116E+02 0.  0.
         11    1    3    3    0    0  0.17443442421E+03 -0.24940083176E+03  0.24161966395E+03  0.38859774220E+03  0.00000000000E+00 0. -1.
        -12    1    3    3    0    0  0.19586610453E+03 -0.21730243595E+03  0.32334742306E+03  0.43604751527E+03  0.00000000000E+00 0.  1.
         15    1    5    5    0    0  0.93109841242E+02  0.31042607120E+02 -0.30567027510E+02  0.10281335951E+03  0.17770000000E+01 0. -1.
        -16    1    5    5    0    0 -0.92828041992E+01  0.30227819251E+02 -0.20009033029E+02  0.37419953410E+02  0.00000000000E+00 0.  1.
          4    1    6    6  502    0 -0.18987188177E+03  0.20296283199E+03  0.35085337496E+03  0.44759728929E+03  0.00000000000E+00 0. -1.
         -3    1    6    6    0  502 -0.26425568401E+03  0.20247000934E+03  0.31207281717E+03  0.45630539601E+03  0.00000000000E+00 0.  1.
<mgrwt>
<rscale>  0 0.66875790E+03</rscale>
<asrwt>0</asrwt>
<pdfrwt beam="1">  1        1 0.23431526E+00 0.66875790E+03</pdfrwt>
<pdfrwt beam="2">  1       -2 0.53189542E-01 0.66875790E+03</pdfrwt>
<totfact> 0.19215469E+01</totfact>
</mgrwt>
</event>
<event>
12    3  0.1182097E-007  0.1622097E+04  0.7818608E-02  0.8807087E-01
         -2   -1    0    0    0  501 -0.00000000000E+00  0.00000000000E+00  0.17599334806E+04  0.17599334806E+04  0.00000000000E+00 0.  1.
          1   -1    0    0  501    0  0.00000000000E+00 -0.00000000000E+00 -0.16017061121E+04  0.16017061121E+04  0.00000000000E+00 0. -1.
        -24    2    1    2    0    0  0.15642988689E+04  0.36826624348E+03  0.31361946124E+03  0.16392170884E+04  0.77617775851E+02 0.  0.
    5000000    2    1    2    0    0 -0.15642988689E+04 -0.36826624348E+03 -0.15539209272E+03  0.17224225043E+04  0.59995133438E+03 0.  0.
        -24    2    4    4    0    0 -0.11641161432E+04 -0.14881347876E+03  0.12070132941E+03  0.11830217127E+04  0.87519800357E+02 0.  0.
         24    2    4    4    0    0 -0.40018272572E+03 -0.21945276471E+03 -0.27609342213E+03  0.53940079166E+03  0.80124318384E+02 0.  0.
         11    1    3    3    0    0  0.96394013077E+03  0.24470907167E+03  0.15983961250E+03  0.10072794087E+04  0.00000000000E+00 0. -1.
        -12    1    3    3    0    0  0.60035873813E+03  0.12355717181E+03  0.15377984874E+03  0.63193767971E+03  0.00000000000E+00 0.  1.
         15    1    5    5    0    0 -0.74946136190E+03 -0.56370629978E+02  0.61681349617E+02  0.75410723874E+03  0.17770000000E+01 0. -1.
        -16    1    5    5    0    0 -0.41465478128E+03 -0.92442848784E+02  0.59019979789E+02  0.42891447393E+03  0.00000000000E+00 0.  1.
          2    1    6    6  502    0 -0.26412945112E+02 -0.34055995648E+02 -0.45594093458E+02  0.62739747109E+02  0.00000000000E+00 0. -1.
         -1    1    6    6    0  502 -0.37376978060E+03 -0.18539676907E+03 -0.23049932867E+03  0.47666104455E+03  0.00000000000E+00 0.  1.
<mgrwt>
<rscale>  0 0.16220974E+04</rscale>
<asrwt>0</asrwt>
<pdfrwt beam="1">  1        1 0.24641633E+00 0.16220974E+04</pdfrwt>
<pdfrwt beam="2">  1       -2 0.27075900E+00 0.16220974E+04</pdfrwt>
<totfact> 0.21752548E-01</totfact>
</mgrwt>
</event>
<event>
12    3  0.1182097E-007  0.7310080E+03  0.7818608E-02  0.9665626E-01
          1   -1    0    0  501    0  0.00000000000E+00  0.00000000000E+00  0.11556998852E+04  0.11556998852E+04  0.00000000000E+00 0. -1.
         -2   -1    0    0    0  501 -0.00000000000E+00 -0.00000000000E+00 -0.50449238547E+03  0.50449238547E+03  0.00000000000E+00 0.  1.
        -24    2    1    2    0    0 -0.49431727988E+03 -0.39943341769E+03  0.38167055124E+03  0.74563062149E+03  0.79974906446E+02 0.  0.
    5000000    2    1    2    0    0  0.49431727988E+03  0.39943341769E+03  0.26953694852E+03  0.91456164921E+03  0.59989683717E+03 0.  0.
        -24    2    4    4    0    0  0.59751967515E+03  0.29449868549E+03  0.10315383856E+03  0.67876431588E+03  0.79504994574E+02 0.  0.
         24    2    4    4    0    0 -0.10320239527E+03  0.10493473219E+03  0.16638310996E+03  0.23579733333E+03  0.79088625709E+02 0.  0.
         13    1    3    3    0    0 -0.40751411231E+03 -0.29169855908E+03  0.31619444694E+03  0.59256622362E+03  0.00000000000E+00 0. -1.
        -14    1    3    3    0    0 -0.86803167571E+02 -0.10773485861E+03  0.65476104299E+02  0.15306439787E+03  0.00000000000E+00 0.  1.
         15    1    5    5    0    0  0.39697353417E+03  0.16933575937E+03  0.96655486010E+02  0.44227596243E+03  0.17770000000E+01 0. -1.
        -16    1    5    5    0    0  0.20054614097E+03  0.12516292612E+03  0.64983525507E+01  0.23648835345E+03  0.00000000000E+00 0.  1.
          2    1    6    6  502    0 -0.46132378126E+02  0.79777184077E+02  0.14103539109E+03  0.16847426199E+03  0.00000000000E+00 0. -1.
         -1    1    6    6    0  502 -0.57070017139E+02  0.25157548117E+02  0.25347718867E+02  0.67323071345E+02  0.00000000000E+00 0.  1.
<mgrwt>
<rscale>  0 0.73100803E+03</rscale>
<asrwt>0</asrwt>
<pdfrwt beam="1">  1        1 0.17779998E+00 0.73100803E+03</pdfrwt>
<pdfrwt beam="2">  1       -2 0.77614213E-01 0.73100803E+03</pdfrwt>
<totfact> 0.15368476E+01</totfact>
</mgrwt>
</event>
<event>
12    3  0.1182097E-007  0.6169502E+03  0.7818608E-02  0.9870851E-01
          1   -1    0    0  501    0  0.00000000000E+00  0.00000000000E+00  0.12374845215E+04  0.12374845215E+04  0.00000000000E+00 0. -1.
         -2   -1    0    0    0  501 -0.00000000000E+00 -0.00000000000E+00 -0.42549950484E+03  0.42549950484E+03  0.00000000000E+00 0.  1.
        -24    2    1    2    0    0  0.52343121612E+03  0.12109019351E+03  0.34805589915E+02  0.54384270801E+03  0.76879054332E+02 0.  0.
    5000000    2    1    2    0    0 -0.52343121612E+03 -0.12109019351E+03  0.77717942678E+03  0.11191413184E+04  0.59985527929E+03 0.  0.
        -24    2    4    4    0    0 -0.57169734907E+03 -0.45236491820E+02  0.80826713481E+03  0.99442866160E+03  0.81904839171E+02 0.  0.
         24    2    4    4    0    0  0.48266132954E+02 -0.75853701693E+02 -0.31087708028E+02  0.12471265676E+03  0.80643645227E+02 0.  0.
         11    1    3    3    0    0  0.35533056691E+03  0.99281906079E+02 -0.79450850767E+01  0.36902551813E+03  0.00000000000E+00 0. -1.
        -12    1    3    3    0    0  0.16810064921E+03  0.21808287433E+02  0.42750674991E+02  0.17481718988E+03  0.00000000000E+00 0.  1.
         15    1    5    5    0    0 -0.45861702177E+03 -0.94459968887E+01  0.60736801406E+03  0.76112933313E+03  0.17770000000E+01 0. -1.
        -16    1    5    5    0    0 -0.11308032730E+03 -0.35790494931E+02  0.20089912075E+03  0.23329932848E+03  0.00000000000E+00 0.  1.
          2    1    6    6  502    0 -0.14076910790E+01 -0.67784659581E+02 -0.30601358004E+02  0.74385380152E+02  0.00000000000E+00 0. -1.
         -1    1    6    6    0  502  0.49673824033E+02 -0.80690421121E+01 -0.48635002354E+00  0.50327276610E+02  0.00000000000E+00 0.  1.
<mgrwt>
<rscale>  0 0.61695020E+03</rscale>
<asrwt>0</asrwt>
<pdfrwt beam="1">  1        1 0.19038223E+00 0.61695020E+03</pdfrwt>
<pdfrwt beam="2">  1       -2 0.65461463E-01 0.61695020E+03</pdfrwt>
<totfact> 0.19758399E+01</totfact>
</mgrwt>
</event>
<event>
12    3  0.1182097E-007  0.6743830E+03  0.7818608E-02  0.9762072E-01
         -2   -1    0    0    0  501 -0.00000000000E+00  0.00000000000E+00  0.24765172418E+03  0.24765172418E+03  0.00000000000E+00 0.  1.
          1   -1    0    0  501    0  0.00000000000E+00 -0.00000000000E+00 -0.26398290903E+04  0.26398290903E+04  0.00000000000E+00 0. -1.
        -24    2    1    2    0    0  0.63257393354E+03  0.11246068280E+03 -0.15053826708E+04  0.16387843601E+04  0.81486237531E+02 0.  0.
    5000000    2    1    2    0    0 -0.63257393354E+03 -0.11246068280E+03 -0.88679469527E+03  0.12486964543E+04  0.60003401309E+03 0.  0.
        -24    2    4    4    0    0 -0.44568210006E+03  0.33950358460E+02 -0.88939456397E+03  0.99851878441E+03  0.78942455227E+02 0.  0.
         24    2    4    4    0    0 -0.18689183348E+03 -0.14641104126E+03  0.25998687067E+01  0.25017766989E+03  0.78850217324E+02 0.  0.
         11    1    3    3    0    0  0.39884416832E+03  0.30706773533E+02 -0.92973134423E+03  0.10121363292E+04  0.00000000000E+00 0. -1.
        -12    1    3    3    0    0  0.23372976522E+03  0.81753909264E+02 -0.57565132657E+03  0.62664803089E+03  0.00000000000E+00 0.  1.
         15    1    5    5    0    0 -0.19859379447E+03 -0.23669628297E+02 -0.37868614311E+03  0.42825938310E+03  0.17770000000E+01 0. -1.
        -16    1    5    5    0    0 -0.24708830559E+03  0.57619986756E+02 -0.51070842086E+03  0.57025940130E+03  0.00000000000E+00 0.  1.
          2    1    6    6  502    0 -0.14416774930E+03 -0.14526569709E+03 -0.12000083045E+02  0.20501332806E+03  0.00000000000E+00 0. -1.
         -1    1    6    6    0  502 -0.42724084176E+02 -0.11453441701E+01  0.14599951751E+02  0.45164341831E+02  0.00000000000E+00 0.  1.
<mgrwt>
<rscale>  0 0.67438298E+03</rscale>
<asrwt>0</asrwt>
<pdfrwt beam="1">  1        1 0.40612753E+00 0.67438298E+03</pdfrwt>
<pdfrwt beam="2">  1       -2 0.38100267E-01 0.67438298E+03</pdfrwt>
<totfact> 0.66126767E+00</totfact>
</mgrwt>
</event>
<event>
12    3  0.1182097E-007  0.4931554E+03  0.7818608E-02  0.1015581E+00
         -2   -1    0    0    0  501 -0.00000000000E+00  0.00000000000E+00  0.24612159802E+03  0.24612159802E+03  0.00000000000E+00 0.  1.
          1   -1    0    0  501    0  0.00000000000E+00 -0.00000000000E+00 -0.18371232906E+04  0.18371232906E+04  0.00000000000E+00 0. -1.
        -24    2    1    2    0    0 -0.86608464515E+02  0.47698430197E+03 -0.99124683910E+03  0.11061533177E+04  0.77393899518E+02 0.  0.
    5000000    2    1    2    0    0  0.86608464515E+02 -0.47698430197E+03 -0.59975485348E+03  0.97709157097E+03  0.59998916934E+03 0.  0.
        -24    2    4    4    0    0  0.57935205528E+02 -0.43897546208E+03 -0.89476220312E+02  0.45907415973E+03  0.81774970404E+02 0.  0.
         24    2    4    4    0    0  0.28673258986E+02 -0.38008839893E+02 -0.51027863317E+03  0.51801741124E+03  0.75438234221E+02 0.  0.
         13    1    3    3    0    0 -0.45821733818E+02  0.32247811343E+03 -0.73832317038E+03  0.80697761360E+03  0.00000000000E+00 0. -1.
        -14    1    3    3    0    0 -0.40786730696E+02  0.15450618854E+03 -0.25292366872E+03  0.29917570406E+03  0.00000000000E+00 0.  1.
         15    1    5    5    0    0  0.53232223212E+02 -0.25334869876E+03 -0.16005915178E+02  0.25938114774E+03  0.17770000000E+01 0. -1.
        -16    1    5    5    0    0  0.47029823159E+01 -0.18562676332E+03 -0.73470305135E+02  0.19969301200E+03  0.00000000000E+00 0.  1.
          4    1    6    6  502    0  0.24357900885E+02 -0.76117542746E+01 -0.44655255152E+03  0.44728115029E+03  0.00000000000E+00 0. -1.
         -3    1    6    6    0  502  0.43153581017E+01 -0.30397085619E+02 -0.63726081652E+02  0.70736260944E+02  0.00000000000E+00 0.  1.
<mgrwt>
<rscale>  0 0.49315543E+03</rscale>
<asrwt>0</asrwt>
<pdfrwt beam="1">  1        1 0.28263437E+00 0.49315543E+03</pdfrwt>
<pdfrwt beam="2">  1       -2 0.37864859E-01 0.49315543E+03</pdfrwt>
<totfact> 0.23925834E+01</totfact>
</mgrwt>
</event>
<event>
12    3  0.1182097E-007  0.5615268E+03  0.7818608E-02  0.9988606E-01
         -2   -1    0    0    0  501 -0.00000000000E+00  0.00000000000E+00  0.77896439807E+03  0.77896439807E+03  0.00000000000E+00 0.  1.
          1   -1    0    0  501    0  0.00000000000E+00 -0.00000000000E+00 -0.91646262729E+03  0.91646262729E+03  0.00000000000E+00 0. -1.
        -24    2    1    2    0    0 -0.90766178889E+02 -0.42809639159E+03  0.53356751607E+03  0.69444643157E+03  0.77823726362E+02 0.  0.
    5000000    2    1    2    0    0  0.90766178889E+02  0.42809639159E+03 -0.67106574529E+03  0.10009805938E+04  0.60010656964E+03 0.  0.
        -24    2    4    4    0    0  0.28873977767E+03  0.13108345314E+03 -0.49898117687E+03  0.59655565010E+03  0.79642312242E+02 0.  0.
         24    2    4    4    0    0 -0.19797359878E+03  0.29701293846E+03 -0.17208456842E+03  0.40442494369E+03  0.80846799367E+02 0.  0.
         13    1    3    3    0    0  0.84983828817E+01 -0.28972964494E+02  0.60332930262E+02  0.67466418737E+02  0.00000000000E+00 0. -1.
        -14    1    3    3    0    0 -0.99264561771E+02 -0.39912342710E+03  0.47323458581E+03  0.62698001283E+03  0.00000000000E+00 0.  1.
         15    1    5    5    0    0  0.14263731246E+03  0.93452791579E+02 -0.31884320544E+03  0.36158397993E+03  0.17770000000E+01 0. -1.
        -16    1    5    5    0    0  0.14610246521E+03  0.37630661557E+02 -0.18013797143E+03  0.23497167016E+03  0.00000000000E+00 0.  1.
          2    1    6    6  502    0 -0.53007199212E+02  0.45426766028E+02 -0.63664130710E+02  0.94480028467E+02  0.00000000000E+00 0. -1.
         -1    1    6    6    0  502 -0.14496639957E+03  0.25158617243E+03 -0.10842043771E+03  0.30994491523E+03  0.00000000000E+00 0.  1.
<mgrwt>
<rscale>  0 0.56152683E+03</rscale>
<asrwt>0</asrwt>
<pdfrwt beam="1">  1        1 0.14099425E+00 0.56152683E+03</pdfrwt>
<pdfrwt beam="2">  1       -2 0.11984068E+00 0.56152683E+03</pdfrwt>
<totfact> 0.86518281E+00</totfact>
</mgrwt>
</event>
<event>
12    3  0.1182097E-007  0.9411635E+03  0.7818608E-02  0.9375539E-01
         -2   -1    0    0    0  501 -0.00000000000E+00  0.00000000000E+00  0.80421967584E+03  0.80421967584E+03  0.00000000000E+00 0.  1.
          1   -1    0    0  501    0  0.00000000000E+00 -0.00000000000E+00 -0.18687950475E+04  0.18687950475E+04  0.00000000000E+00 0. -1.
        -24    2    1    2    0    0  0.51950785968E+03  0.67575580586E+03 -0.13444502360E+04  0.15937543264E+04  0.77279300326E+02 0.  0.
    5000000    2    1    2    0    0 -0.51950785968E+03 -0.67575580586E+03  0.27987486439E+03  0.10792603970E+04  0.59994894724E+03 0.  0.
        -24    2    4    4    0    0  0.11514549567E+03 -0.18594958286E+03  0.91524686878E+02  0.25123077458E+03  0.83092726829E+02 0.  0.
         24    2    4    4    0    0 -0.63465335534E+03 -0.48980622300E+03  0.18835017751E+03  0.82802962237E+03  0.86384307720E+02 0.  0.
         13    1    3    3    0    0  0.14207114531E+03  0.20881965230E+03 -0.45975789563E+03  0.52456379985E+03  0.00000000000E+00 0. -1.
        -14    1    3    3    0    0  0.37743671437E+03  0.46693615355E+03 -0.88469234040E+03  0.10691905265E+04  0.00000000000E+00 0.  1.
         15    1    5    5    0    0 -0.34159104778E+01 -0.22211165257E+02  0.34454022569E+02  0.41173313039E+02  0.17770000000E+01 0. -1.
        -16    1    5    5    0    0  0.11856140614E+03 -0.16373841760E+03  0.57070664310E+02  0.21005746154E+03  0.00000000000E+00 0.  1.
          2    1    6    6  502    0 -0.35660923171E+03 -0.23164505954E+03  0.12608740521E+03  0.44353986462E+03  0.00000000000E+00 0. -1.
         -1    1    6    6    0  502 -0.27804412363E+03 -0.25816116346E+03  0.62262772301E+02  0.38448975775E+03  0.00000000000E+00 0.  1.
<mgrwt>
<rscale>  0 0.94116352E+03</rscale>
<asrwt>0</asrwt>
<pdfrwt beam="1">  1        1 0.28750693E+00 0.94116352E+03</pdfrwt>
<pdfrwt beam="2">  1       -2 0.12372611E+00 0.94116352E+03</pdfrwt>
<totfact> 0.15966194E+00</totfact>
</mgrwt>
</event>
<event>
12    3  0.1182097E-007  0.9727295E+03  0.7818608E-02  0.9338971E-01
          1   -1    0    0  501    0  0.00000000000E+00  0.00000000000E+00  0.12275351234E+04  0.12275351234E+04  0.00000000000E+00 0. -1.
         -4   -1    0    0    0  501 -0.00000000000E+00 -0.00000000000E+00 -0.78588132948E+03  0.78588132948E+03  0.00000000000E+00 0.  1.
        -24    2    1    2    0    0  0.19414014093E+03 -0.86649781077E+03  0.23403299464E+03  0.92179474072E+03  0.80157663726E+02 0.  0.
    5000000    2    1    2    0    0 -0.19414014093E+03  0.86649781077E+03  0.20762079924E+03  0.10916217121E+04  0.60001892944E+03 0.  0.
        -24    2    4    4    0    0 -0.24784343568E+03  0.91482699271E+03  0.13287879708E+03  0.96042749707E+03  0.80183584504E+02 0.  0.
         24    2    4    4    0    0  0.53703294756E+02 -0.48329181935E+02  0.74742002163E+02  0.13119421504E+03  0.80036251028E+02 0.  0.
         11    1    3    3    0    0  0.16236191735E+03 -0.57121595494E+03  0.17389904040E+03  0.61878100782E+03  0.00000000000E+00 0. -1.
        -12    1    3    3    0    0  0.31778223575E+02 -0.29528185583E+03  0.60133954242E+02  0.30301373290E+03  0.00000000000E+00 0.  1.
         15    1    5    5    0    0 -0.23365232407E+03  0.85074121044E+03  0.14379693658E+03  0.89388742713E+03  0.17770000000E+01 0. -1.
        -16    1    5    5    0    0 -0.14191111608E+02  0.64085782269E+02 -0.10918139503E+02  0.66540069942E+02  0.00000000000E+00 0.  1.
          4    1    6    6  502    0  0.71023599848E+02 -0.53216760333E+02  0.68625156255E+02  0.11218639573E+03  0.00000000000E+00 0. -1.
         -3    1    6    6    0  502 -0.17320305093E+02  0.48875783982E+01  0.61168459087E+01  0.19007819311E+02  0.00000000000E+00 0.  1.
<mgrwt>
<rscale>  0 0.97272947E+03</rscale>
<asrwt>0</asrwt>
<pdfrwt beam="1">  1        1 0.18885156E+00 0.97272947E+03</pdfrwt>
<pdfrwt beam="2">  1       -4 0.12090482E+00 0.97272947E+03</pdfrwt>
<totfact> 0.25334935E+00</totfact>
</mgrwt>
</event>
<event>
12    3  0.1182097E-007  0.5344146E+03  0.7818608E-02  0.1005167E+00
         -2   -1    0    0    0  501 -0.00000000000E+00  0.00000000000E+00  0.17445934724E+03  0.17445934724E+03  0.00000000000E+00 0.  1.
          1   -1    0    0  501    0  0.00000000000E+00 -0.00000000000E+00 -0.20817290325E+04  0.20817290325E+04  0.00000000000E+00 0. -1.
        -24    2    1    2    0    0  0.85310012118E+02 -0.37510807890E+03 -0.11545634337E+04  0.12195881832E+04  0.79967150879E+02 0.  0.
    5000000    2    1    2    0    0 -0.85310012118E+02  0.37510807890E+03 -0.75270625163E+03  0.10366001966E+04  0.59999116433E+03 0.  0.
        -24    2    4    4    0    0 -0.25620192681E+03  0.38322667084E+01 -0.16180562191E+03  0.31341168325E+03  0.79948172869E+02 0.  0.
         24    2    4    4    0    0  0.17089191469E+03  0.37127581219E+03 -0.59090062972E+03  0.72318851333E+03  0.82391118374E+02 0.  0.
         13    1    3    3    0    0  0.69079306475E+02 -0.13008151075E+03 -0.42251135142E+03  0.44744719476E+03  0.00000000000E+00 0. -1.
        -14    1    3    3    0    0  0.16230705643E+02 -0.24502656815E+03 -0.73205208223E+03  0.77214098842E+03  0.00000000000E+00 0.  1.
         15    1    5    5    0    0 -0.50528596681E+02 -0.29290273177E+02 -0.21572668642E+02  0.62286410610E+02  0.17770000000E+01 0. -1.
        -16    1    5    5    0    0 -0.20567333012E+03  0.33122539886E+02 -0.14023295327E+03  0.25112527264E+03  0.00000000000E+00 0.  1.
          4    1    6    6  502    0  0.91326554379E+02  0.17406306736E+03 -0.35344125858E+03  0.40442454701E+03  0.00000000000E+00 0. -1.
         -3    1    6    6    0  502  0.79565360308E+02  0.19721274484E+03 -0.23745937114E+03  0.31876396633E+03  0.00000000000E+00 0.  1.
<mgrwt>
<rscale>  0 0.53441456E+03</rscale>
<asrwt>0</asrwt>
<pdfrwt beam="1">  1        1 0.32026600E+00 0.53441456E+03</pdfrwt>
<pdfrwt beam="2">  1       -2 0.26839900E-01 0.53441456E+03</pdfrwt>
<totfact> 0.31059692E+01</totfact>
</mgrwt>
</event>
<event>
12    3  0.1182097E-007  0.3872387E+03  0.7818608E-02  0.1048290E+00
         -2   -1    0    0    0  501 -0.00000000000E+00  0.00000000000E+00  0.71736971524E+03  0.71736971524E+03  0.00000000000E+00 0.  1.
          1   -1    0    0  501    0  0.00000000000E+00 -0.00000000000E+00 -0.44924029281E+03  0.44924029281E+03  0.00000000000E+00 0. -1.
        -24    2    1    2    0    0  0.35101630785E+03  0.10704288886E+03 -0.76737061584E+02  0.38334861545E+03  0.79980972171E+02 0.  0.
    5000000    2    1    2    0    0 -0.35101630785E+03 -0.10704288886E+03  0.34486648402E+03  0.78326139260E+03  0.59991240102E+03 0.  0.
        -24    2    4    4    0    0 -0.11013519849E+03 -0.10843322498E+03  0.46997275004E+03  0.50122372093E+03  0.80394691433E+02 0.  0.
         24    2    4    4    0    0 -0.24088110936E+03  0.13903361185E+01 -0.12510626603E+03  0.28203767167E+03  0.76603058428E+02 0.  0.
         11    1    3    3    0    0  0.68364141119E+02  0.25111585870E+02  0.16440105631E+02  0.74662739094E+02  0.00000000000E+00 0. -1.
        -12    1    3    3    0    0  0.28265216674E+03  0.81931302990E+02 -0.93177167214E+02  0.30868587635E+03  0.00000000000E+00 0.  1.
         15    1    5    5    0    0 -0.14851366318E+02 -0.30097414417E+02  0.32723701699E+02  0.46908590024E+02  0.17770000000E+01 0. -1.
        -16    1    5    5    0    0 -0.95283832175E+02 -0.78335810562E+02  0.43724904834E+03  0.45431513090E+03  0.00000000000E+00 0.  1.
          2    1    6    6  502    0 -0.18622301080E+03 -0.28039219815E+02 -0.76802190523E+02  0.20338088423E+03  0.00000000000E+00 0. -1.
         -1    1    6    6    0  502 -0.54658098558E+02  0.29429555933E+02 -0.48304075505E+02  0.78656787443E+02  0.00000000000E+00 0.  1.
<mgrwt>
<rscale>  0 0.38723867E+03</rscale>
<asrwt>0</asrwt>
<pdfrwt beam="1">  1        1 0.69113891E-01 0.38723867E+03</pdfrwt>
<pdfrwt beam="2">  1       -2 0.11036457E+00 0.38723867E+03</pdfrwt>
<totfact> 0.30884408E+01</totfact>
</mgrwt>
</event>
<event>
12    3  0.1182097E-007  0.7468214E+03  0.7818608E-02  0.9640350E-01
          1   -1    0    0  501    0  0.00000000000E+00  0.00000000000E+00  0.17928558534E+04  0.17928558534E+04  0.00000000000E+00 0. -1.
         -2   -1    0    0    0  501 -0.00000000000E+00 -0.00000000000E+00 -0.41485599060E+03  0.41485599060E+03  0.00000000000E+00 0.  1.
        -24    2    1    2    0    0 -0.51780286054E+03  0.35812549755E+03  0.72129278176E+02  0.63868277201E+03  0.79620199100E+02 0.  0.
    5000000    2    1    2    0    0  0.51780286054E+03 -0.35812549755E+03  0.13058705847E+04  0.15690290720E+04  0.60015045665E+03 0.  0.
        -24    2    4    4    0    0  0.12695306504E+03  0.15258520273E+03  0.41767535822E+03  0.46930949554E+03  0.79996080669E+02 0.  0.
         24    2    4    4    0    0  0.39084979550E+03 -0.51071070028E+03  0.88819522643E+03  0.10997195765E+04  0.83086729549E+02 0.  0.
         13    1    3    3    0    0 -0.36957267868E+03  0.29178730909E+03  0.35543269404E+02  0.47221512319E+03  0.00000000000E+00 0. -1.
        -14    1    3    3    0    0 -0.14823018186E+03  0.66338188462E+02  0.36586008772E+02  0.16646764881E+03  0.00000000000E+00 0.  1.
         15    1    5    5    0    0  0.35863484795E+02  0.10109568074E+03  0.24409406278E+03  0.26663007224E+03  0.17770000000E+01 0. -1.
        -16    1    5    5    0    0  0.91089580244E+02  0.51489521987E+02  0.17358129544E+03  0.20267942330E+03  0.00000000000E+00 0.  1.
          2    1    6    6  502    0  0.19624465290E+03 -0.32378327624E+03  0.52002378097E+03  0.64325135565E+03  0.00000000000E+00 0. -1.
         -1    1    6    6    0  502  0.19460514260E+03 -0.18692742404E+03  0.36817144546E+03  0.45646822084E+03  0.00000000000E+00 0.  1.
<mgrwt>
<rscale>  0 0.74682141E+03</rscale>
<asrwt>0</asrwt>
<pdfrwt beam="1">  1        1 0.27582397E+00 0.74682141E+03</pdfrwt>
<pdfrwt beam="2">  1       -2 0.63824000E-01 0.74682141E+03</pdfrwt>
<totfact> 0.85273314E+00</totfact>
</mgrwt>
</event>
<event>
12    3  0.1182097E-007  0.1558223E+04  0.7818608E-02  0.8846632E-01
         -2   -1    0    0    0  501 -0.00000000000E+00  0.00000000000E+00  0.11705567111E+04  0.11705567111E+04  0.00000000000E+00 0.  1.
          1   -1    0    0  501    0  0.00000000000E+00 -0.00000000000E+00 -0.21186967968E+04  0.21186967968E+04  0.00000000000E+00 0. -1.
        -24    2    1    2    0    0 -0.81136161080E+03  0.12707802865E+04 -0.28626633710E+03  0.15367234809E+04  0.79877663620E+02 0.  0.
    5000000    2    1    2    0    0  0.81136161080E+03 -0.12707802865E+04 -0.66187374859E+03  0.17525300270E+04  0.60007869190E+03 0.  0.
        -24    2    4    4    0    0  0.44905260663E+03 -0.11317607216E+04 -0.41271361313E+03  0.12883259742E+04  0.83190834800E+02 0.  0.
         24    2    4    4    0    0  0.36230900417E+03 -0.13901956488E+03 -0.24916013546E+03  0.46420405274E+03  0.53012975414E+02 0.  0.
         13    1    3    3    0    0 -0.51154248562E+03  0.86564515710E+03 -0.20561439012E+03  0.10263013836E+04  0.00000000000E+00 0. -1.
        -14    1    3    3    0    0 -0.29981912518E+03  0.40513512937E+03 -0.80651946984E+02  0.51042209731E+03  0.00000000000E+00 0.  1.
         15    1    5    5    0    0  0.46629809585E+02 -0.97664334565E+02 -0.61187289901E+02  0.12433705627E+03  0.17770000000E+01 0. -1.
        -16    1    5    5    0    0  0.40242279705E+03 -0.10340963870E+04 -0.35152632323E+03  0.11639889180E+04  0.00000000000E+00 0.  1.
          4    1    6    6  502    0  0.15867029946E+03 -0.75736785449E+02 -0.13935758434E+03  0.22434986275E+03  0.00000000000E+00 0. -1.
         -3    1    6    6    0  502  0.20363870471E+03 -0.63282779426E+02 -0.10980255112E+03  0.23985419000E+03  0.00000000000E+00 0.  1.
<mgrwt>
<rscale>  0 0.15582232E+04</rscale>
<asrwt>0</asrwt>
<pdfrwt beam="1">  1        1 0.32595335E+00 0.15582232E+04</pdfrwt>
<pdfrwt beam="2">  1       -2 0.18008565E+00 0.15582232E+04</pdfrwt>
<totfact> 0.36851726E-01</totfact>
</mgrwt>
</event>
<event>
12    3  0.1182097E-007  0.5921696E+03  0.7818608E-02  0.9921786E-01
         -2   -1    0    0    0  501 -0.00000000000E+00  0.00000000000E+00  0.27332109500E+03  0.27332109500E+03  0.00000000000E+00 0.  1.
          1   -1    0    0  501    0  0.00000000000E+00 -0.00000000000E+00 -0.18470945161E+04  0.18470945161E+04  0.00000000000E+00 0. -1.
        -24    2    1    2    0    0 -0.53819628688E+03 -0.21296504740E+03 -0.57873780122E+03  0.82226882356E+03  0.78608021214E+02 0.  0.
    5000000    2    1    2    0    0  0.53819628688E+03  0.21296504740E+03 -0.99503561989E+03  0.12981467876E+04  0.60006653179E+03 0.  0.
        -24    2    4    4    0    0  0.51455317278E+03  0.23125234673E+03 -0.39840025756E+03  0.69621251647E+03  0.88014131658E+02 0.  0.
         24    2    4    4    0    0  0.23643114106E+02 -0.18287299329E+02 -0.59663536233E+03  0.60193427110E+03  0.73876173294E+02 0.  0.
         13    1    3    3    0    0 -0.32294592094E+03 -0.12162888401E+03 -0.39771208192E+03  0.52655726506E+03  0.00000000000E+00 0. -1.
        -14    1    3    3    0    0 -0.21525036594E+03 -0.91336163397E+02 -0.18102571930E+03  0.29571155850E+03  0.00000000000E+00 0.  1.
         15    1    5    5    0    0  0.34656794272E+03  0.14632505215E+03 -0.21447543054E+03  0.43303952226E+03  0.17770000000E+01 0. -1.
        -16    1    5    5    0    0  0.16798523006E+03  0.84927294583E+02 -0.18392482702E+03  0.26317299420E+03  0.00000000000E+00 0.  1.
          2    1    6    6  502    0  0.18089706046E+02 -0.25886116219E+02 -0.93089834110E+02  0.98300791921E+02  0.00000000000E+00 0. -1.
         -1    1    6    6    0  502  0.55534080601E+01  0.75988168901E+01 -0.50354552822E+03  0.50363347918E+03  0.00000000000E+00 0.  1.
<mgrwt>
<rscale>  0 0.59216959E+03</rscale>
<asrwt>0</asrwt>
<pdfrwt beam="1">  1        1 0.28416839E+00 0.59216959E+03</pdfrwt>
<pdfrwt beam="2">  1       -2 0.42049398E-01 0.59216959E+03</pdfrwt>
<totfact> 0.18887782E+01</totfact>
</mgrwt>
</event>
<event>
12    3  0.1182097E-007  0.1097712E+04  0.7818608E-02  0.9207425E-01
          1   -1    0    0  501    0  0.00000000000E+00  0.00000000000E+00  0.10185209933E+04  0.10185209933E+04  0.00000000000E+00 0. -1.
         -2   -1    0    0    0  501 -0.00000000000E+00 -0.00000000000E+00 -0.13843128604E+04  0.13843128604E+04  0.00000000000E+00 0.  1.
        -24    2    1    2    0    0  0.81776808956E+03 -0.60671010558E+03 -0.61880142936E+03  0.11942317073E+04  0.80202003349E+02 0.  0.
    5000000    2    1    2    0    0 -0.81776808956E+03  0.60671010558E+03  0.25300956230E+03  0.12086021464E+04  0.59988624685E+03 0.  0.
        -24    2    4    4    0    0 -0.74368672881E+03  0.21954153285E+03  0.16749620253E+03  0.79743010821E+03  0.81063952357E+02 0.  0.
         24    2    4    4    0    0 -0.74081360754E+02  0.38716857273E+03  0.85513359768E+02  0.41117203819E+03  0.79764394130E+02 0.  0.
         13    1    3    3    0    0  0.17180843385E+03 -0.11476703983E+03 -0.16236879826E+03  0.26277982804E+03  0.00000000000E+00 0. -1.
        -14    1    3    3    0    0  0.64595965570E+03 -0.49194306575E+03 -0.45643263110E+03  0.93145187931E+03  0.00000000000E+00 0.  1.
         15    1    5    5    0    0 -0.28231913863E+03  0.12255562627E+03  0.53507364101E+02  0.31239425941E+03  0.17770000000E+01 0. -1.
        -16    1    5    5    0    0 -0.46136759017E+03  0.96985906576E+02  0.11398883843E+03  0.48503584880E+03  0.00000000000E+00 0.  1.
          2    1    6    6  502    0 -0.79356144490E+02  0.30069781393E+03  0.40726309888E+02  0.31364821901E+03  0.00000000000E+00 0. -1.
         -1    1    6    6    0  502  0.52747837360E+01  0.86470758797E+02  0.44787049880E+02  0.97523819179E+02  0.00000000000E+00 0.  1.
<mgrwt>
<rscale>  0 0.10977118E+04</rscale>
<asrwt>0</asrwt>
<pdfrwt beam="1">  1        1 0.15669554E+00 0.10977118E+04</pdfrwt>
<pdfrwt beam="2">  1       -2 0.21297121E+00 0.10977118E+04</pdfrwt>
<totfact> 0.13867865E+00</totfact>
</mgrwt>
</event>
<event>
12    3  0.1182097E-007  0.5448275E+03  0.7818608E-02  0.1002698E+00
          1   -1    0    0  501    0  0.00000000000E+00  0.00000000000E+00  0.13507431332E+04  0.13507431332E+04  0.00000000000E+00 0. -1.
         -2   -1    0    0    0  501 -0.00000000000E+00 -0.00000000000E+00 -0.28827389920E+03  0.28827389920E+03  0.00000000000E+00 0.  1.
        -24    2    1    2    0    0  0.23741140874E+03 -0.37862814507E+03  0.62439821753E+03  0.77208628493E+03  0.80750529955E+02 0.  0.
    5000000    2    1    2    0    0 -0.23741140874E+03  0.37862814507E+03  0.43807101651E+03  0.86693074751E+03  0.59994937806E+03 0.  0.
        -24    2    4    4    0    0 -0.25658045199E+03  0.10758175899E+02 -0.25210313914E+02  0.26931629068E+03  0.77113149368E+02 0.  0.
         24    2    4    4    0    0  0.19169043258E+02  0.36786996917E+03  0.46328133042E+03  0.59761445683E+03  0.82569252470E+02 0.  0.
         13    1    3    3    0    0  0.78143096084E+02 -0.19841708984E+03  0.30936889671E+03  0.37574565767E+03  0.00000000000E+00 0. -1.
        -14    1    3    3    0    0  0.15926831265E+03 -0.18021105523E+03  0.31502932082E+03  0.39634062726E+03  0.00000000000E+00 0.  1.
         15    1    5    5    0    0 -0.75439887487E+02  0.18182810238E+02  0.24387586754E+02  0.81361559283E+02  0.17770000000E+01 0. -1.
        -16    1    5    5    0    0 -0.18114056451E+03 -0.74246343392E+01 -0.49597900669E+02  0.18795473140E+03  0.00000000000E+00 0.  1.
          2    1    6    6  502    0 -0.30462109764E+02  0.18548179675E+03  0.24671196353E+03  0.31015839503E+03  0.00000000000E+00 0. -1.
         -1    1    6    6    0  502  0.49631153022E+02  0.18238817242E+03  0.21656936689E+03  0.28745606180E+03  0.00000000000E+00 0.  1.
<mgrwt>
<rscale>  0 0.54482748E+03</rscale>
<asrwt>0</asrwt>
<pdfrwt beam="1">  1        1 0.20780663E+00 0.54482748E+03</pdfrwt>
<pdfrwt beam="2">  1       -2 0.44349832E-01 0.54482748E+03</pdfrwt>
<totfact> 0.37054203E+01</totfact>
</mgrwt>
</event>
<event>
12    3  0.1182097E-007  0.4227990E+03  0.7818608E-02  0.1036159E+00
          1   -1    0    0  501    0  0.00000000000E+00  0.00000000000E+00  0.31136935025E+03  0.31136935025E+03  0.00000000000E+00 0. -1.
         -2   -1    0    0    0  501 -0.00000000000E+00 -0.00000000000E+00 -0.11826401504E+04  0.11826401504E+04  0.00000000000E+00 0.  1.
        -24    2    1    2    0    0 -0.29446959670E+03  0.26731548074E+03 -0.60158094413E+03  0.72529171651E+03  0.77320967860E+02 0.  0.
    5000000    2    1    2    0    0  0.29446959670E+03 -0.26731548074E+03 -0.26968985600E+03  0.76871778412E+03  0.60002041929E+03 0.  0.
        -24    2    4    4    0    0  0.11894758373E+03 -0.13203449350E+01 -0.39420397848E+03  0.41929592753E+03  0.79132971697E+02 0.  0.
         24    2    4    4    0    0  0.17552201297E+03 -0.26599513581E+03  0.12451412248E+03  0.34942185658E+03  0.70925861662E+02 0.  0.
         13    1    3    3    0    0 -0.39954572634E+02  0.41712078146E+02 -0.45849965705E+02  0.73746082559E+02  0.00000000000E+00 0. -1.
        -14    1    3    3    0    0 -0.25451502407E+03  0.22560340260E+03 -0.55573097842E+03  0.65154563395E+03  0.00000000000E+00 0.  1.
         15    1    5    5    0    0  0.57084291921E+02  0.13466001608E+02 -0.29963637182E+03  0.30532779537E+03  0.17770000000E+01 0. -1.
        -16    1    5    5    0    0  0.61863291810E+02 -0.14786346543E+02 -0.94567606664E+02  0.11396813216E+03  0.00000000000E+00 0.  1.
          4    1    6    6  502    0  0.89783207106E+02 -0.78445913110E+02  0.32288964483E+02  0.12352069782E+03  0.00000000000E+00 0. -1.
         -3    1    6    6    0  502  0.85738805864E+02 -0.18754922270E+03  0.92225157992E+02  0.22590115877E+03  0.00000000000E+00 0.  1.
<mgrwt>
<rscale>  0 0.42279899E+03</rscale>
<asrwt>0</asrwt>
<pdfrwt beam="1">  1        1 0.47902977E-01 0.42279899E+03</pdfrwt>
<pdfrwt beam="2">  1       -2 0.18194464E+00 0.42279899E+03</pdfrwt>
<totfact> 0.13601945E+01</totfact>
</mgrwt>
</event>
<event>
12    3  0.1182097E-007  0.7231482E+03  0.7818608E-02  0.9678445E-01
          1   -1    0    0  501    0  0.00000000000E+00  0.00000000000E+00  0.15106276343E+04  0.15106276343E+04  0.00000000000E+00 0. -1.
         -2   -1    0    0    0  501 -0.00000000000E+00 -0.00000000000E+00 -0.38055999372E+03  0.38055999372E+03  0.00000000000E+00 0.  1.
        -24    2    1    2    0    0 -0.19499181474E+03 -0.60296072023E+03  0.40490743373E+03  0.75618692924E+03  0.79279279151E+02 0.  0.
    5000000    2    1    2    0    0  0.19499181474E+03  0.60296072023E+03  0.72516020681E+03  0.11350006987E+04  0.60065449521E+03 0.  0.
        -24    2    4    4    0    0  0.21373387287E+03  0.25466695085E+02  0.35430909793E+02  0.23113245429E+03  0.76394640446E+02 0.  0.
         24    2    4    4    0    0 -0.18742058130E+02  0.57749402515E+03  0.68972929702E+03  0.90386824444E+03  0.86027241694E+02 0.  0.
         13    1    3    3    0    0  0.18934443120E+01 -0.77052131066E+02  0.47138109578E+02  0.90347204759E+02  0.00000000000E+00 0. -1.
        -14    1    3    3    0    0 -0.19688525905E+03 -0.52590858917E+03  0.35776932415E+03  0.66583972448E+03  0.00000000000E+00 0.  1.
         15    1    5    5    0    0  0.14282431451E+02  0.24887481952E+02  0.12830733251E+01  0.28778092574E+02  0.17770000000E+01 0. -1.
        -16    1    5    5    0    0  0.19945144142E+03  0.57921313360E+00  0.34147836468E+02  0.20235436172E+03  0.00000000000E+00 0.  1.
          2    1    6    6  502    0 -0.25020456905E+02  0.16180252461E+03  0.14565591686E+03  0.21913860078E+03  0.00000000000E+00 0. -1.
         -1    1    6    6    0  502  0.62783987744E+01  0.41569150053E+03  0.54407338016E+03  0.68472964366E+03  0.00000000000E+00 0.  1.
<mgrwt>
<rscale>  0 0.72314818E+03</rscale>
<asrwt>0</asrwt>
<pdfrwt beam="1">  1        1 0.23240425E+00 0.72314818E+03</pdfrwt>
<pdfrwt beam="2">  1       -2 0.58547692E-01 0.72314818E+03</pdfrwt>
<totfact> 0.15932201E+01</totfact>
</mgrwt>
</event>
<event>
12    3  0.1182097E-007  0.2152616E+04  0.7818608E-02  0.8538413E-01
         -2   -1    0    0    0  501 -0.00000000000E+00  0.00000000000E+00  0.25174415067E+04  0.25174415067E+04  0.00000000000E+00 0.  1.
          1   -1    0    0  501    0  0.00000000000E+00 -0.00000000000E+00 -0.21183629608E+04  0.21183629608E+04  0.00000000000E+00 0. -1.
        -24    2    1    2    0    0 -0.21313077161E+04 -0.39533776466E+02  0.97819995499E+03  0.23468012065E+04  0.81026234921E+02 0.  0.
    5000000    2    1    2    0    0  0.21313077161E+04  0.39533776466E+02 -0.57912140908E+03  0.22890032610E+04  0.60009901053E+03 0.  0.
        -24    2    4    4    0    0  0.10046531361E+04  0.22447695033E+03 -0.48482865859E+03  0.11405064570E+04  0.77319628823E+02 0.  0.
         24    2    4    4    0    0  0.11266545799E+04 -0.18494317387E+03 -0.94292750491E+02  0.11484968040E+04  0.81235867054E+02 0.  0.
         11    1    3    3    0    0 -0.99263466220E+03 -0.31655944069E+02  0.41373567304E+03  0.10758730773E+04  0.00000000000E+00 0. -1.
        -12    1    3    3    0    0 -0.11386730539E+04 -0.78778323966E+01  0.56446428195E+03  0.12709281291E+04  0.00000000000E+00 0.  1.
         15    1    5    5    0    0  0.78728668675E+03  0.15483365166E+03 -0.34977806300E+03  0.87529517187E+03  0.17770000000E+01 0. -1.
        -16    1    5    5    0    0  0.21736644940E+03  0.69643298674E+02 -0.13505059560E+03  0.26521128510E+03  0.00000000000E+00 0.  1.
          4    1    6    6  502    0  0.21856732023E+03 -0.16446074805E+02  0.75230713988E+01  0.21931425729E+03  0.00000000000E+00 0. -1.
         -3    1    6    6    0  502  0.90808725968E+03 -0.16849709906E+03 -0.10181582189E+03  0.92918254674E+03  0.00000000000E+00 0.  1.
<mgrwt>
<rscale>  0 0.21526162E+04</rscale>
<asrwt>0</asrwt>
<pdfrwt beam="1">  1        1 0.32590199E+00 0.21526162E+04</pdfrwt>
<pdfrwt beam="2">  1       -2 0.38729869E+00 0.21526162E+04</pdfrwt>
<totfact> 0.17003310E-02</totfact>
</mgrwt>
</event>
<event>
12    3  0.1182097E-007  0.5295036E+03  0.7818608E-02  0.1006353E+00
          1   -1    0    0  501    0  0.00000000000E+00  0.00000000000E+00  0.21526445603E+04  0.21526445603E+04  0.00000000000E+00 0. -1.
         -2   -1    0    0    0  501 -0.00000000000E+00 -0.00000000000E+00 -0.41865147132E+03  0.41865147132E+03  0.00000000000E+00 0.  1.
        -24    2    1    2    0    0  0.21197725093E+03 -0.47601337140E+03  0.16956886726E+04  0.17757533548E+04  0.80105043280E+02 0.  0.
    5000000    2    1    2    0    0 -0.21197725093E+03  0.47601337140E+03  0.38304416313E+02  0.79554267677E+03  0.59991485862E+03 0.  0.
        -24    2    4    4    0    0 -0.88710248113E+02  0.29166362693E+03  0.30704828602E+03  0.43963260895E+03  0.77852434175E+02 0.  0.
         24    2    4    4    0    0 -0.12326700282E+03  0.18434974447E+03 -0.26874386971E+03  0.35591006782E+03  0.72588749838E+02 0.  0.
         13    1    3    3    0    0  0.13466840662E+03 -0.24239586663E+03  0.79103451006E+03  0.83822844858E+03  0.00000000000E+00 0. -1.
        -14    1    3    3    0    0  0.77308844315E+02 -0.23361750477E+03  0.90465416257E+03  0.93752490623E+03  0.00000000000E+00 0.  1.
         15    1    5    5    0    0 -0.62185836644E+02  0.12318855175E+03  0.18073742600E+03  0.22740200625E+03  0.17770000000E+01 0. -1.
        -16    1    5    5    0    0 -0.26524411469E+02  0.16847507518E+03  0.12631086002E+03  0.21223060269E+03  0.00000000000E+00 0.  1.
          4    1    6    6  502    0 -0.66099000697E+02  0.56211476746E+02 -0.14422054432E+03  0.16831034851E+03  0.00000000000E+00 0. -1.
         -3    1    6    6    0  502 -0.57168002121E+02  0.12813826772E+03 -0.12452332539E+03  0.18759971932E+03  0.00000000000E+00 0.  1.
<mgrwt>
<rscale>  0 0.52950357E+03</rscale>
<asrwt>0</asrwt>
<pdfrwt beam="1">  1        1 0.33117608E+00 0.52950357E+03</pdfrwt>
<pdfrwt beam="2">  1       -2 0.64407920E-01 0.52950357E+03</pdfrwt>
<totfact> 0.50156835E+00</totfact>
</mgrwt>
</event>
<event>
12    3  0.1182097E-007  0.1386092E+04  0.7818608E-02  0.8963948E-01
         -2   -1    0    0    0  501 -0.00000000000E+00  0.00000000000E+00  0.14041710222E+04  0.14041710222E+04  0.00000000000E+00 0.  1.
          1   -1    0    0  501    0  0.00000000000E+00 -0.00000000000E+00 -0.16487820067E+04  0.16487820067E+04  0.00000000000E+00 0. -1.
        -24    2    1    2    0    0  0.12283859659E+04  0.51970156506E+03  0.48129653862E+03  0.14201717808E+04  0.78865270775E+02 0.  0.
    5000000    2    1    2    0    0 -0.12283859659E+04 -0.51970156506E+03 -0.72590752312E+03  0.16327812481E+04  0.60000922816E+03 0.  0.
        -24    2    4    4    0    0  0.10341858449E+02  0.51614637556E+02 -0.34827027446E+02  0.10148109953E+03  0.79463619815E+02 0.  0.
         24    2    4    4    0    0 -0.12387278244E+04 -0.57131620261E+03 -0.69108049567E+03  0.15313001485E+04  0.80243798102E+02 0.  0.
         11    1    3    3    0    0  0.50984290377E+03  0.20004551763E+03  0.15942732241E+03  0.57041657302E+03  0.00000000000E+00 0. -1.
        -12    1    3    3    0    0  0.71854306217E+03  0.31965604743E+03  0.32186921622E+03  0.84975520781E+03  0.00000000000E+00 0.  1.
         15    1    5    5    0    0  0.26793280358E+02  0.12504594461E+02 -0.48562969512E+02  0.56883780569E+02  0.17770000000E+01 0. -1.
        -16    1    5    5    0    0 -0.16451421910E+02  0.39110043095E+02  0.13735942066E+02  0.44597318957E+02  0.00000000000E+00 0.  1.
          4    1    6    6  502    0 -0.22726600389E+03 -0.13600879862E+03 -0.15010341125E+03  0.30443269190E+03  0.00000000000E+00 0. -1.
         -3    1    6    6    0  502 -0.10114618205E+04 -0.43530740399E+03 -0.54097708442E+03  0.12268674566E+04  0.00000000000E+00 0.  1.
<mgrwt>
<rscale>  0 0.13860923E+04</rscale>
<asrwt>0</asrwt>
<pdfrwt beam="1">  1        1 0.25365877E+00 0.13860923E+04</pdfrwt>
<pdfrwt beam="2">  1       -2 0.21602631E+00 0.13860923E+04</pdfrwt>
<totfact> 0.45253318E-01</totfact>
</mgrwt>
</event>
<event>
12    3  0.1182097E-007  0.9932409E+03  0.7818608E-02  0.9315989E-01
          1   -1    0    0  501    0  0.00000000000E+00  0.00000000000E+00  0.19956096919E+04  0.19956096919E+04  0.00000000000E+00 0. -1.
         -2   -1    0    0    0  501 -0.00000000000E+00 -0.00000000000E+00 -0.58461628556E+03  0.58461628556E+03  0.00000000000E+00 0.  1.
        -24    2    1    2    0    0  0.42016557038E+03  0.88531480464E+03  0.44596631814E+03  0.10794157286E+04  0.77012650964E+02 0.  0.
    5000000    2    1    2    0    0 -0.42016557038E+03 -0.88531480464E+03  0.96502708815E+03  0.15008102488E+04  0.60069352600E+03 0.  0.
        -24    2    4    4    0    0 -0.13237642526E+03 -0.48770612645E+03  0.84718186794E+03  0.98968079196E+03  0.79813337711E+02 0.  0.
         24    2    4    4    0    0 -0.28778914512E+03 -0.39760867819E+03  0.11784522021E+03  0.51112945683E+03  0.80315457365E+02 0.  0.
         11    1    3    3    0    0  0.24553600676E+03  0.45619991775E+03  0.26626589021E+03  0.58249791404E+03  0.00000000000E+00 0. -1.
        -12    1    3    3    0    0  0.17462956363E+03  0.42911488689E+03  0.17970042794E+03  0.49691781458E+03  0.00000000000E+00 0.  1.
         15    1    5    5    0    0 -0.13822360990E+03 -0.43487688751E+03  0.72812221295E+03  0.85929551864E+03  0.17770000000E+01 0. -1.
        -16    1    5    5    0    0  0.58471846385E+01 -0.52829238932E+02  0.11905965499E+03  0.13038527332E+03  0.00000000000E+00 0.  1.
          4    1    6    6  502    0 -0.15977008155E+03 -0.27692199878E+03  0.96192400453E+02  0.33386411947E+03  0.00000000000E+00 0. -1.
         -3    1    6    6    0  502 -0.12801906357E+03 -0.12068667941E+03  0.21652819760E+02  0.17726533736E+03  0.00000000000E+00 0.  1.
<mgrwt>
<rscale>  0 0.99324088E+03</rscale>
<asrwt>0</asrwt>
<pdfrwt beam="1">  1        1 0.30701687E+00 0.99324088E+03</pdfrwt>
<pdfrwt beam="2">  1       -2 0.89940968E-01 0.99324088E+03</pdfrwt>
<totfact> 0.28085924E+00</totfact>
</mgrwt>
</event>
<event>
12    3  0.1182097E-007  0.1527441E+04  0.7818608E-02  0.8866407E-01
         -2   -1    0    0    0  501 -0.00000000000E+00  0.00000000000E+00  0.81691612439E+03  0.81691612439E+03  0.00000000000E+00 0.  1.
          1   -1    0    0  501    0  0.00000000000E+00 -0.00000000000E+00 -0.31477438249E+04  0.31477438249E+04  0.00000000000E+00 0. -1.
        -24    2    1    2    0    0  0.12823159221E+04 -0.71838253506E+03 -0.53117834652E+03  0.15648313615E+04  0.78352813451E+02 0.  0.
    5000000    2    1    2    0    0 -0.12823159221E+04  0.71838253506E+03 -0.17996493540E+04  0.23998285877E+04  0.60002655154E+03 0.  0.
        -24    2    4    4    0    0 -0.59068455920E+03  0.15868505927E+02 -0.62037167086E+03  0.86057224740E+03  0.81015585099E+02 0.  0.
         24    2    4    4    0    0 -0.69163136291E+03  0.70251402914E+03 -0.11792776831E+04  0.15392563403E+04  0.82062927910E+02 0.  0.
         11    1    3    3    0    0  0.11634729894E+04 -0.67114518460E+03 -0.49985566716E+03  0.14331646604E+04  0.00000000000E+00 0. -1.
        -12    1    3    3    0    0  0.11884293275E+03 -0.47237350464E+02 -0.31322679361E+02  0.13166670113E+03  0.00000000000E+00 0.  1.
         15    1    5    5    0    0 -0.46070829373E+02 -0.18406789431E+02 -0.67118426697E+02  0.83482765572E+02  0.17770000000E+01 0. -1.
        -16    1    5    5    0    0 -0.54461372983E+03  0.34275295358E+02 -0.55325324416E+03  0.77708948183E+03  0.00000000000E+00 0.  1.
          4    1    6    6  502    0 -0.24611643818E+02  0.48215739197E+02 -0.79144984706E+02  0.95887533714E+02  0.00000000000E+00 0. -1.
         -3    1    6    6    0  502 -0.66701971909E+03  0.65429828994E+03 -0.11001326984E+04  0.14433688066E+04  0.00000000000E+00 0.  1.
<mgrwt>
<rscale>  0 0.15274408E+04</rscale>
<asrwt>0</asrwt>
<pdfrwt beam="1">  1        1 0.48426828E+00 0.15274408E+04</pdfrwt>
<pdfrwt beam="2">  1       -2 0.12567940E+00 0.15274408E+04</pdfrwt>
<totfact> 0.18345906E-01</totfact>
</mgrwt>
</event>
<event>
12    3  0.1182097E-007  0.1604416E+04  0.7818608E-02  0.8817839E-01
          1   -1    0    0  501    0  0.00000000000E+00  0.00000000000E+00  0.12408287692E+04  0.12408287692E+04  0.00000000000E+00 0. -1.
         -2   -1    0    0    0  501 -0.00000000000E+00 -0.00000000000E+00 -0.23332897197E+04  0.23332897197E+04  0.00000000000E+00 0.  1.
        -24    2    1    2    0    0 -0.58806610437E+03  0.14642916382E+04 -0.31264953241E+02  0.15802396729E+04  0.78792014390E+02 0.  0.
    5000000    2    1    2    0    0  0.58806610437E+03 -0.14642916382E+04 -0.10611959973E+04  0.19938788160E+04  0.59953652383E+03 0.  0.
        -24    2    4    4    0    0  0.91882007409E+02 -0.12061778153E+02 -0.19462913572E+03  0.22959359661E+03  0.79024865427E+02 0.  0.
         24    2    4    4    0    0  0.49618409697E+03 -0.14522298601E+04 -0.86656686157E+03  0.17642852194E+04  0.81203357564E+02 0.  0.
         11    1    3    3    0    0 -0.30433816690E+03  0.81049178894E+03 -0.51092331959E+02  0.86725376111E+03  0.00000000000E+00 0. -1.
        -12    1    3    3    0    0 -0.28372793748E+03  0.65379984930E+03  0.19827378718E+02  0.71298591178E+03  0.00000000000E+00 0.  1.
         15    1    5    5    0    0  0.64846515958E+02 -0.14993330877E+02 -0.52234389601E+02  0.84625408647E+02  0.17770000000E+01 0. -1.
        -16    1    5    5    0    0  0.27035491452E+02  0.29315527241E+01 -0.14239474612E+03  0.14496818796E+03  0.00000000000E+00 0.  1.
          4    1    6    6  502    0  0.12109283322E+03 -0.26123726194E+03 -0.17364726572E+03  0.33624656753E+03  0.00000000000E+00 0. -1.
         -3    1    6    6    0  502  0.37509126375E+03 -0.11909925981E+04 -0.69291959585E+03  0.14280386519E+04  0.00000000000E+00 0.  1.
<mgrwt>
<rscale>  0 0.16044164E+04</rscale>
<asrwt>0</asrwt>
<pdfrwt beam="1">  1        1 0.19089673E+00 0.16044164E+04</pdfrwt>
<pdfrwt beam="2">  1       -2 0.35896765E+00 0.16044164E+04</pdfrwt>
<totfact> 0.11177282E-01</totfact>
</mgrwt>
</event>
<event>
12    3  0.1182097E-007  0.1907416E+04  0.7818608E-02  0.8651174E-01
         -2   -1    0    0    0  501 -0.00000000000E+00  0.00000000000E+00  0.15935621018E+04  0.15935621018E+04  0.00000000000E+00 0.  1.
          1   -1    0    0  501    0  0.00000000000E+00 -0.00000000000E+00 -0.26946207931E+04  0.26946207931E+04  0.00000000000E+00 0. -1.
        -24    2    1    2    0    0 -0.18466135827E+04 -0.46739725866E+03  0.18088716221E+03  0.19150867433E+04  0.79969668153E+02 0.  0.
    5000000    2    1    2    0    0  0.18466135827E+04  0.46739725866E+03 -0.12819458535E+04  0.23730961516E+04  0.59979850969E+03 0.  0.
        -24    2    4    4    0    0  0.91794064021E+03  0.22990210045E+03 -0.29361774154E+03  0.99395475057E+03  0.79149689131E+02 0.  0.
         24    2    4    4    0    0  0.92867294246E+03  0.23749515821E+03 -0.98832811200E+03  0.13791414010E+04  0.80007267442E+02 0.  0.
         11    1    3    3    0    0 -0.14461954466E+04 -0.38042484033E+03  0.17180643146E+03  0.15052314702E+04  0.00000000000E+00 0. -1.
        -12    1    3    3    0    0 -0.40041813603E+03 -0.86972418327E+02  0.90807307524E+01  0.40985527309E+03  0.00000000000E+00 0.  1.
         15    1    5    5    0    0  0.30507128477E+02  0.20439936136E+02 -0.27505623686E+01  0.36867318854E+02  0.17770000000E+01 0. -1.
        -16    1    5    5    0    0  0.88743351173E+03  0.20946216431E+03 -0.29086717917E+03  0.95708743172E+03  0.00000000000E+00 0.  1.
          4    1    6    6  502    0  0.39106179042E+03  0.13569387808E+03 -0.39804104044E+03  0.57426372196E+03  0.00000000000E+00 0. -1.
         -3    1    6    6    0  502  0.53761115204E+03  0.10180128014E+03 -0.59028707156E+03  0.80487767908E+03  0.00000000000E+00 0.  1.
<mgrwt>
<rscale>  0 0.19074158E+04</rscale>
<asrwt>0</asrwt>
<pdfrwt beam="1">  1        1 0.41455704E+00 0.19074158E+04</pdfrwt>
<pdfrwt beam="2">  1       -2 0.24516340E+00 0.19074158E+04</pdfrwt>
<totfact> 0.53641349E-02</totfact>
</mgrwt>
</event>
<event>
12    3  0.1182097E-007  0.1150344E+04  0.7818608E-02  0.9157466E-01
         -2   -1    0    0    0  501 -0.00000000000E+00  0.00000000000E+00  0.14452678822E+04  0.14452678822E+04  0.00000000000E+00 0.  1.
          1   -1    0    0  501    0  0.00000000000E+00 -0.00000000000E+00 -0.95243105531E+03  0.95243105531E+03  0.00000000000E+00 0. -1.
        -24    2    1    2    0    0 -0.10705852417E+04 -0.22982815862E+03  0.23218516337E+03  0.11222133537E+04  0.80492973455E+02 0.  0.
    5000000    2    1    2    0    0  0.10705852417E+04  0.22982815862E+03  0.26065166353E+03  0.12754855838E+04  0.59995870076E+03 0.  0.
        -24    2    4    4    0    0 -0.47925551299E+02  0.44696049996E+02 -0.17178256905E+02  0.10575126300E+03  0.81201242374E+02 0.  0.
         24    2    4    4    0    0  0.11185107930E+04  0.18513210863E+03  0.27782992043E+03  0.11697343208E+04  0.75819687009E+02 0.  0.
         11    1    3    3    0    0 -0.71919540950E+03 -0.11599983938E+03  0.14789286910E+03  0.74335072510E+03  0.00000000000E+00 0. -1.
        -12    1    3    3    0    0 -0.35138983222E+03 -0.11382831924E+03  0.84292294264E+02  0.37886262856E+03  0.00000000000E+00 0.  1.
         15    1    5    5    0    0 -0.31465152818E+02  0.36967466916E+02 -0.49064361074E+02  0.69044324232E+02  0.17770000000E+01 0. -1.
        -16    1    5    5    0    0 -0.16460398481E+02  0.77285830805E+01  0.31886104169E+02  0.36706938767E+02  0.00000000000E+00 0.  1.
          2    1    6    6  502    0  0.41492914224E+03  0.33082204367E+02  0.91466347690E+02  0.42617686244E+03  0.00000000000E+00 0. -1.
         -1    1    6    6    0  502  0.70358165078E+03  0.15204990426E+03  0.18636357274E+03  0.74355745840E+03  0.00000000000E+00 0.  1.
<mgrwt>
<rscale>  0 0.11503444E+04</rscale>
<asrwt>0</asrwt>
<pdfrwt beam="1">  1        1 0.14652786E+00 0.11503444E+04</pdfrwt>
<pdfrwt beam="2">  1       -2 0.22234890E+00 0.11503444E+04</pdfrwt>
<totfact> 0.13557728E+00</totfact>
</mgrwt>
</event>
<event>
12    3  0.1182097E-007  0.4469697E+03  0.7818608E-02  0.1028630E+00
         -2   -1    0    0    0  501 -0.00000000000E+00  0.00000000000E+00  0.18362487005E+03  0.18362487005E+03  0.00000000000E+00 0.  1.
          1   -1    0    0  501    0  0.00000000000E+00 -0.00000000000E+00 -0.14430570966E+04  0.14430570966E+04  0.00000000000E+00 0. -1.
        -24    2    1    2    0    0 -0.88447196982E+02  0.31146834429E+03 -0.29332922507E+03  0.44406574112E+03  0.79479003531E+02 0.  0.
    5000000    2    1    2    0    0  0.88447196982E+02 -0.31146834429E+03 -0.96610300149E+03  0.11826162255E+04  0.60032548779E+03 0.  0.
        -24    2    4    4    0    0  0.17971886210E+03 -0.38065029950E+03 -0.35776505828E+03  0.55878432688E+03  0.83967655293E+02 0.  0.
         24    2    4    4    0    0 -0.91271665121E+02  0.69181955212E+02 -0.60833794321E+03  0.62383189867E+03  0.77295050689E+02 0.  0.
         13    1    3    3    0    0 -0.81121126169E+02  0.16537384687E+03 -0.13407645278E+03  0.22782809644E+03  0.00000000000E+00 0. -1.
        -14    1    3    3    0    0 -0.73260708137E+01  0.14609449742E+03 -0.15925277229E+03  0.21623764467E+03  0.00000000000E+00 0.  1.
         15    1    5    5    0    0  0.16230898835E+03 -0.28407119630E+03 -0.30534417260E+03  0.44752527720E+03  0.17770000000E+01 0. -1.
        -16    1    5    5    0    0  0.17409873753E+02 -0.96579103206E+02 -0.52420885678E+02  0.11125904968E+03  0.00000000000E+00 0.  1.
          4    1    6    6  502    0 -0.49782894530E+02 -0.80994969123E+01 -0.22715435632E+03  0.23268657038E+03  0.00000000000E+00 0. -1.
         -3    1    6    6    0  502 -0.41488770591E+02  0.77281452124E+02 -0.38118358689E+03  0.39114532829E+03  0.00000000000E+00 0.  1.
<mgrwt>
<rscale>  0 0.44696972E+03</rscale>
<asrwt>0</asrwt>
<pdfrwt beam="1">  1        1 0.22200878E+00 0.44696972E+03</pdfrwt>
<pdfrwt beam="2">  1       -2 0.28249981E-01 0.44696972E+03</pdfrwt>
<totfact> 0.76462140E+01</totfact>
</mgrwt>
</event>
<event>
12    3  0.1182097E-007  0.2121375E+04  0.7818608E-02  0.8551885E-01
          1   -1    0    0  501    0  0.00000000000E+00  0.00000000000E+00  0.14905281559E+04  0.14905281559E+04  0.00000000000E+00 0. -1.
         -2   -1    0    0    0  501 -0.00000000000E+00 -0.00000000000E+00 -0.31411461533E+04  0.31411461533E+04  0.00000000000E+00 0.  1.
        -24    2    1    2    0    0  0.11210919888E+04  0.17838332336E+04 -0.54424784646E+03  0.21774729407E+04  0.79211340307E+02 0.  0.
    5000000    2    1    2    0    0 -0.11210919888E+04 -0.17838332336E+04 -0.11063701509E+04  0.24542013685E+04  0.60011764977E+03 0.  0.
        -24    2    4    4    0    0 -0.76138640723E+03 -0.89902724609E+03 -0.87595780478E+03  0.14702856435E+04  0.80489424589E+02 0.  0.
         24    2    4    4    0    0 -0.35970558154E+03 -0.88480598752E+03 -0.23041234615E+03  0.98391572495E+03  0.52254795176E+02 0.  0.
         11    1    3    3    0    0  0.90106339225E+03  0.14849642903E+04 -0.43506521872E+03  0.17906188664E+04  0.00000000000E+00 0. -1.
        -12    1    3    3    0    0  0.22002859652E+03  0.29886894336E+03 -0.10918262774E+03  0.38685407428E+03  0.00000000000E+00 0.  1.
         15    1    5    5    0    0 -0.43481404911E+03 -0.49556470083E+03 -0.44226065980E+03  0.79387988950E+03  0.17770000000E+01 0. -1.
        -16    1    5    5    0    0 -0.32657235811E+03 -0.40346254526E+03 -0.43369714499E+03  0.67640575403E+03  0.00000000000E+00 0.  1.
          2    1    6    6  502    0 -0.17738877714E+03 -0.37372136959E+03 -0.11066437502E+03  0.42823013000E+03  0.00000000000E+00 0. -1.
         -1    1    6    6    0  502 -0.18231680440E+03 -0.51108461793E+03 -0.11974797113E+03  0.55568559495E+03  0.00000000000E+00 0.  1.
<mgrwt>
<rscale>  0 0.21213751E+04</rscale>
<asrwt>0</asrwt>
<pdfrwt beam="1">  1        1 0.22931203E+00 0.21213751E+04</pdfrwt>
<pdfrwt beam="2">  1       -2 0.48325325E+00 0.21213751E+04</pdfrwt>
<totfact> 0.10733445E-02</totfact>
</mgrwt>
</event>
<event>
12    3  0.1182097E-007  0.5802725E+03  0.7818608E-02  0.9947201E-01
          1   -1    0    0  501    0  0.00000000000E+00  0.00000000000E+00  0.11899050351E+04  0.11899050351E+04  0.00000000000E+00 0. -1.
         -2   -1    0    0    0  501 -0.00000000000E+00 -0.00000000000E+00 -0.32474498707E+03  0.32474498707E+03  0.00000000000E+00 0.  1.
        -24    2    1    2    0    0  0.22081410443E+03 -0.37930816950E+03  0.11981803487E+03  0.46182371901E+03  0.79317272993E+02 0.  0.
    5000000    2    1    2    0    0 -0.22081410443E+03  0.37930816950E+03  0.74534201318E+03  0.10528263032E+04  0.60022908285E+03 0.  0.
        -24    2    4    4    0    0  0.35722301208E+02 -0.12977684203E+03  0.23833557424E+03  0.28487428272E+03  0.78939213814E+02 0.  0.
         24    2    4    4    0    0 -0.25653640564E+03  0.50908501153E+03  0.50700643894E+03  0.76795202046E+03  0.87842473857E+02 0.  0.
         11    1    3    3    0    0  0.13913400353E+03 -0.16873382428E+03  0.40350769905E+02  0.22239055517E+03  0.00000000000E+00 0. -1.
        -12    1    3    3    0    0  0.81680100900E+02 -0.21057434522E+03  0.79467264962E+02  0.23943316384E+03  0.00000000000E+00 0.  1.
         15    1    5    5    0    0  0.40529888011E+02 -0.47656767790E+02  0.15777961161E+03  0.16973922030E+03  0.17770000000E+01 0. -1.
        -16    1    5    5    0    0 -0.48075868031E+01 -0.82120074244E+02  0.80555962628E+02  0.11513506242E+03  0.00000000000E+00 0.  1.
          2    1    6    6  502    0 -0.13941919740E+03  0.31465370777E+03  0.25196185447E+03  0.42653187985E+03  0.00000000000E+00 0. -1.
         -1    1    6    6    0  502 -0.11711720824E+03  0.19443130376E+03  0.25504458446E+03  0.34142014060E+03  0.00000000000E+00 0.  1.
<mgrwt>
<rscale>  0 0.58027245E+03</rscale>
<asrwt>0</asrwt>
<pdfrwt beam="1">  1        1 0.18306231E+00 0.58027245E+03</pdfrwt>
<pdfrwt beam="2">  1       -2 0.49960768E-01 0.58027245E+03</pdfrwt>
<totfact> 0.37729857E+01</totfact>
</mgrwt>
</event>
<event>
12    3  0.1182097E-007  0.1020077E+04  0.7818608E-02  0.9286795E-01
         -2   -1    0    0    0  501 -0.00000000000E+00  0.00000000000E+00  0.87709041584E+03  0.87709041584E+03  0.00000000000E+00 0.  1.
          1   -1    0    0  501    0  0.00000000000E+00 -0.00000000000E+00 -0.13808462506E+04  0.13808462506E+04  0.00000000000E+00 0. -1.
        -24    2    1    2    0    0  0.89236170959E+03 -0.42878580145E+03 -0.47323637577E+03  0.11002031320E+04  0.79546087020E+02 0.  0.
    5000000    2    1    2    0    0 -0.89236170959E+03  0.42878580145E+03 -0.30519458981E+02  0.11577335345E+04  0.59937368575E+03 0.  0.
        -24    2    4    4    0    0 -0.36626813681E+03  0.36256220424E+03 -0.24950048430E+03  0.57799666546E+03  0.78904712372E+02 0.  0.
         24    2    4    4    0    0 -0.52609357278E+03  0.66223597205E+02  0.21898102532E+03  0.57973686900E+03  0.83559174661E+02 0.  0.
         11    1    3    3    0    0  0.45392653162E+03 -0.19277403660E+03 -0.27155416712E+03  0.56298560459E+03  0.00000000000E+00 0. -1.
        -12    1    3    3    0    0  0.43843517797E+03 -0.23601176485E+03 -0.20168220865E+03  0.53721752738E+03  0.00000000000E+00 0.  1.
         15    1    5    5    0    0 -0.50037493256E+02  0.56058134711E+02 -0.69056086484E+02  0.10206941760E+03  0.17770000000E+01 0. -1.
        -16    1    5    5    0    0 -0.31623064355E+03  0.30650406953E+03 -0.18044439782E+03  0.47592724787E+03  0.00000000000E+00 0.  1.
          4    1    6    6  502    0 -0.42750778202E+03  0.30287804566E+02  0.14958400555E+03  0.45393350781E+03  0.00000000000E+00 0. -1.
         -3    1    6    6    0  502 -0.98585790762E+02  0.35935792639E+02  0.69397019771E+02  0.12580336119E+03  0.00000000000E+00 0.  1.
<mgrwt>
<rscale>  0 0.10200769E+04</rscale>
<asrwt>0</asrwt>
<pdfrwt beam="1">  1        1 0.21243788E+00 0.10200769E+04</pdfrwt>
<pdfrwt beam="2">  1       -2 0.13493699E+00 0.10200769E+04</pdfrwt>
<totfact> 0.27335731E+00</totfact>
</mgrwt>
</event>
<event>
12    3  0.1182097E-007  0.7554014E+03  0.7818608E-02  0.9626914E-01
          1   -1    0    0  501    0  0.00000000000E+00  0.00000000000E+00  0.16810482642E+04  0.16810482642E+04  0.00000000000E+00 0. -1.
         -2   -1    0    0    0  501 -0.00000000000E+00 -0.00000000000E+00 -0.41286109441E+03  0.41286109441E+03  0.00000000000E+00 0.  1.
        -24    2    1    2    0    0 -0.17014939639E+03  0.70097127320E+03  0.51941220229E+03  0.89350198015E+03  0.90803137029E+02 0.  0.
    5000000    2    1    2    0    0  0.17014939639E+03 -0.70097127320E+03  0.74877496751E+03  0.12004073785E+04  0.60000198280E+03 0.  0.
        -24    2    4    4    0    0 -0.85124276432E+02 -0.21361257614E+03 -0.28311682170E+02  0.24497571457E+03  0.79593179731E+02 0.  0.
         24    2    4    4    0    0  0.25527367282E+03 -0.48735869706E+03  0.77708664968E+03  0.95543166389E+03  0.79390526039E+02 0.  0.
         11    1    3    3    0    0 -0.28297954403E+02  0.22199458646E+03  0.20328564385E+03  0.30233660651E+03  0.00000000000E+00 0. -1.
        -12    1    3    3    0    0 -0.14185144198E+03  0.47897668675E+03  0.31612655844E+03  0.59116537364E+03  0.00000000000E+00 0.  1.
         15    1    5    5    0    0 -0.90023113221E+02 -0.20283321259E+03 -0.87291930033E+01  0.22209193948E+03  0.17770000000E+01 0. -1.
        -16    1    5    5    0    0  0.48988367892E+01 -0.10779363552E+02 -0.19582489167E+02  0.22883775092E+02  0.00000000000E+00 0.  1.
          2    1    6    6  502    0  0.12166782295E+03 -0.16710664593E+03  0.25020125388E+03  0.32454330636E+03  0.00000000000E+00 0. -1.
         -1    1    6    6    0  502  0.13360584986E+03 -0.32025205113E+03  0.52688539580E+03  0.63088835754E+03  0.00000000000E+00 0.  1.
<mgrwt>
<rscale>  0 0.75540140E+03</rscale>
<asrwt>0</asrwt>
<pdfrwt beam="1">  1        1 0.25862281E+00 0.75540140E+03</pdfrwt>
<pdfrwt beam="2">  1       -2 0.63517092E-01 0.75540140E+03</pdfrwt>
<totfact> 0.10230240E+01</totfact>
</mgrwt>
</event>
<event>
12    3  0.1182097E-007  0.9769934E+03  0.7818608E-02  0.9334144E-01
          1   -1    0    0  501    0  0.00000000000E+00  0.00000000000E+00  0.42398898902E+04  0.42398898902E+04  0.00000000000E+00 0. -1.
         -2   -1    0    0    0  501 -0.00000000000E+00 -0.00000000000E+00 -0.24227745198E+03  0.24227745198E+03  0.00000000000E+00 0.  1.
        -24    2    1    2    0    0 -0.75706815056E+02  0.88654524999E+03  0.12872092723E+04  0.15670388241E+04  0.83719552940E+02 0.  0.
    5000000    2    1    2    0    0  0.75706815056E+02 -0.88654524999E+03  0.27104031659E+04  0.29151285180E+04  0.59999579394E+03 0.  0.
        -24    2    4    4    0    0 -0.97714657652E+02 -0.86313368957E+03  0.23452005028E+04  0.25021673119E+04  0.79548339029E+02 0.  0.
         24    2    4    4    0    0  0.17342147271E+03 -0.23411560420E+02  0.36520266317E+03  0.41296120614E+03  0.80875609645E+02 0.  0.
         11    1    3    3    0    0 -0.12131096729E+02  0.20645551966E+03  0.24074909329E+03  0.31738174337E+03  0.00000000000E+00 0. -1.
        -12    1    3    3    0    0 -0.63575718327E+02  0.68008973033E+03  0.10464601790E+04  0.12496570808E+04  0.00000000000E+00 0.  1.
         15    1    5    5    0    0  0.22153258801E+01 -0.30839958991E+03  0.80352971359E+03  0.86068482796E+03  0.17770000000E+01 0. -1.
        -16    1    5    5    0    0 -0.99929983533E+02 -0.55473409966E+03  0.15416707892E+04  0.16414824839E+04  0.00000000000E+00 0.  1.
          2    1    6    6  502    0  0.53255433594E+02 -0.45282423814E+02  0.11597323034E+03  0.13541207210E+03  0.00000000000E+00 0. -1.
         -1    1    6    6    0  502  0.12016603912E+03  0.21870863394E+02  0.24922943283E+03  0.27754913405E+03  0.00000000000E+00 0.  1.
<mgrwt>
<rscale>  0 0.97699335E+03</rscale>
<asrwt>0</asrwt>
<pdfrwt beam="1">  1        1 0.65229070E+00 0.97699335E+03</pdfrwt>
<pdfrwt beam="2">  1       -2 0.37273457E-01 0.97699335E+03</pdfrwt>
<totfact> 0.36828583E-01</totfact>
</mgrwt>
</event>
<event>
12    3  0.1182097E-007  0.8249752E+03  0.7818608E-02  0.9524554E-01
          1   -1    0    0  501    0  0.00000000000E+00  0.00000000000E+00  0.13547342780E+04  0.13547342780E+04  0.00000000000E+00 0. -1.
         -2   -1    0    0    0  501 -0.00000000000E+00 -0.00000000000E+00 -0.66893942834E+03  0.66893942834E+03  0.00000000000E+00 0.  1.
        -24    2    1    2    0    0  0.31029267964E+03 -0.75152440979E+03  0.59220797158E+03  0.10089807992E+04  0.79129551503E+02 0.  0.
    5000000    2    1    2    0    0 -0.31029267964E+03  0.75152440979E+03  0.93586878085E+02  0.10146929072E+04  0.59981055893E+03 0.  0.
        -24    2    4    4    0    0 -0.30737839403E+03  0.57666318150E+03  0.30883908350E+03  0.72708615145E+03  0.79061938450E+02 0.  0.
         24    2    4    4    0    0 -0.29142856063E+01  0.17486122828E+03 -0.21525220541E+03  0.28760675574E+03  0.76152424753E+02 0.  0.
         11    1    3    3    0    0  0.16581156117E+02 -0.10684152866E+03  0.88566896686E+02  0.13976459556E+03  0.00000000000E+00 0. -1.
        -12    1    3    3    0    0  0.29371152352E+03 -0.64468288113E+03  0.50364107489E+03  0.86921620359E+03  0.00000000000E+00 0.  1.
         15    1    5    5    0    0 -0.11205711925E+03  0.28348315103E+03  0.12219053407E+03  0.32841007785E+03  0.17770000000E+01 0. -1.
        -16    1    5    5    0    0 -0.19532127478E+03  0.29318003048E+03  0.18664854943E+03  0.39867607359E+03  0.00000000000E+00 0.  1.
          4    1    6    6  502    0 -0.92379574885E+01  0.32859759748E+02 -0.96591752458E+02  0.10244545042E+03  0.00000000000E+00 0. -1.
         -3    1    6    6    0  502  0.63236718822E+01  0.14200146854E+03 -0.11866045295E+03  0.18516130532E+03  0.00000000000E+00 0.  1.
<mgrwt>
<rscale>  0 0.82497522E+03</rscale>
<asrwt>0</asrwt>
<pdfrwt beam="1">  1        1 0.20842066E+00 0.82497522E+03</pdfrwt>
<pdfrwt beam="2">  1       -2 0.10291376E+00 0.82497522E+03</pdfrwt>
<totfact> 0.57072099E+00</totfact>
</mgrwt>
</event>
<event>
12    3  0.1182097E-007  0.1010296E+04  0.7818608E-02  0.9297324E-01
          1   -1    0    0  501    0  0.00000000000E+00  0.00000000000E+00  0.82200147492E+03  0.82200147492E+03  0.00000000000E+00 0. -1.
         -2   -1    0    0    0  501 -0.00000000000E+00 -0.00000000000E+00 -0.13568465682E+04  0.13568465682E+04  0.00000000000E+00 0.  1.
        -24    2    1    2    0    0  0.71774959789E+03  0.65116313896E+03 -0.24794915802E+03  0.10034650780E+04  0.79280886887E+02 0.  0.
    5000000    2    1    2    0    0 -0.71774959789E+03 -0.65116313896E+03 -0.28689593531E+03  0.11753829652E+04  0.60003159773E+03 0.  0.
        -24    2    4    4    0    0 -0.32137447381E+03 -0.45920985040E+02 -0.29712495133E+03  0.44752566306E+03  0.81275415201E+02 0.  0.
         24    2    4    4    0    0 -0.39637512408E+03 -0.60524215392E+03  0.10229016020E+02  0.72785730209E+03  0.78995668020E+02 0.  0.
         11    1    3    3    0    0  0.60369270695E+03  0.51721595364E+03 -0.18156081800E+03  0.81542722407E+03  0.00000000000E+00 0. -1.
        -12    1    3    3    0    0  0.11405689094E+03  0.13394718532E+03 -0.66388340017E+02  0.18803785395E+03  0.00000000000E+00 0.  1.
         15    1    5    5    0    0 -0.18438248402E+03 -0.34195548967E+02 -0.11744425968E+03  0.22127482424E+03  0.17770000000E+01 0. -1.
        -16    1    5    5    0    0 -0.13699198979E+03 -0.11725436072E+02 -0.17968069164E+03  0.22625083882E+03  0.00000000000E+00 0.  1.
          4    1    6    6  502    0 -0.32477713784E+03 -0.46462802037E+03  0.35759066540E+02  0.56801240956E+03  0.00000000000E+00 0. -1.
         -3    1    6    6    0  502 -0.71597986237E+02 -0.14061413355E+03 -0.25530050520E+02  0.15984489253E+03  0.00000000000E+00 0.  1.
<mgrwt>
<rscale>  0 0.10102962E+04</rscale>
<asrwt>0</asrwt>
<pdfrwt beam="1">  1        1 0.12646177E+00 0.10102962E+04</pdfrwt>
<pdfrwt beam="2">  1       -2 0.20874562E+00 0.10102962E+04</pdfrwt>
<totfact> 0.21553959E+00</totfact>
</mgrwt>
</event>
<event>
12    3  0.1182097E-007  0.8704175E+03  0.7818608E-02  0.9463336E-01
          1   -1    0    0  501    0  0.00000000000E+00  0.00000000000E+00  0.43232968550E+04  0.43232968550E+04  0.00000000000E+00 0. -1.
         -2   -1    0    0    0  501 -0.00000000000E+00 -0.00000000000E+00 -0.19042378442E+03  0.19042378442E+03  0.00000000000E+00 0.  1.
        -24    2    1    2    0    0 -0.75799813676E+03  0.26728144865E+03  0.16959596214E+04  0.18784765589E+04  0.79966222506E+02 0.  0.
    5000000    2    1    2    0    0  0.75799813676E+03 -0.26728144865E+03  0.24369134491E+04  0.26352440805E+04  0.59996971351E+03 0.  0.
        -24    2    4    4    0    0  0.20381313367E+03 -0.30786524195E+03  0.14645274938E+04  0.15124300922E+04  0.79266658004E+02 0.  0.
         24    2    4    4    0    0  0.55418500308E+03  0.40583793306E+02  0.97238595538E+03  0.11228139883E+04  0.80054632957E+02 0.  0.
         11    1    3    3    0    0 -0.37944497618E+03  0.12424939015E+03  0.75173640024E+03  0.85118976518E+03  0.00000000000E+00 0. -1.
        -12    1    3    3    0    0 -0.37855316058E+03  0.14303205849E+03  0.94422322121E+03  0.10272867937E+04  0.00000000000E+00 0.  1.
         15    1    5    5    0    0  0.10690874149E+02  0.26171665541E+01  0.63718566998E+02  0.64686612681E+02  0.17770000000E+01 0. -1.
        -16    1    5    5    0    0  0.19312225952E+03 -0.31048240851E+03  0.14008089268E+04  0.14477434795E+04  0.00000000000E+00 0.  1.
          4    1    6    6  502    0  0.84749317054E+00 -0.48269397129E+01  0.18311205390E+02  0.18955680798E+02  0.00000000000E+00 0. -1.
         -3    1    6    6    0  502  0.55333750991E+03  0.45410733019E+02  0.95407474999E+03  0.11038583075E+04  0.00000000000E+00 0.  1.
<mgrwt>
<rscale>  0 0.87041748E+03</rscale>
<asrwt>0</asrwt>
<pdfrwt beam="1">  1        1 0.66512252E+00 0.87041748E+03</pdfrwt>
<pdfrwt beam="2">  1       -2 0.29295970E-01 0.87041748E+03</pdfrwt>
<totfact> 0.49541943E-01</totfact>
</mgrwt>
</event>
<event>
12    3  0.1182097E-007  0.2035595E+03  0.7818608E-02  0.1146770E+00
          1   -1    0    0  501    0  0.00000000000E+00  0.00000000000E+00  0.15811858291E+04  0.15811858291E+04  0.00000000000E+00 0. -1.
         -4   -1    0    0    0  501 -0.00000000000E+00 -0.00000000000E+00 -0.10700128633E+03  0.10700128633E+03  0.00000000000E+00 0.  1.
        -24    2    1    2    0    0  0.61292095599E+02  0.16783641077E+03  0.31905431774E+03  0.37423460919E+03  0.79561946191E+02 0.  0.
    5000000    2    1    2    0    0 -0.61292095599E+02 -0.16783641077E+03  0.11551302251E+04  0.13139525063E+04  0.60018294722E+03 0.  0.
        -24    2    4    4    0    0  0.39151280894E+02 -0.63130591525E+02 -0.37272693807E+02  0.11033565361E+03  0.72570023918E+02 0.  0.
         24    2    4    4    0    0 -0.10044337649E+03 -0.10470581924E+03  0.11924029189E+04  0.12036168527E+04  0.76266812167E+02 0.  0.
         13    1    3    3    0    0  0.41552252484E+02  0.39570194354E+02  0.15352431628E+03  0.16389663101E+03  0.00000000000E+00 0. -1.
        -14    1    3    3    0    0  0.19739843115E+02  0.12826621641E+03  0.16553000146E+03  0.21033797817E+03  0.00000000000E+00 0.  1.
         15    1    5    5    0    0  0.23725791176E+02 -0.36706418004E+02  0.17886608845E+02  0.47258467967E+02  0.17770000000E+01 0. -1.
        -16    1    5    5    0    0  0.15425489718E+02 -0.26424173521E+02 -0.55159302652E+02  0.63077185641E+02  0.00000000000E+00 0.  1.
          4    1    6    6  502    0 -0.28293754892E+02 -0.37884015654E+02  0.69375643187E+03  0.69536589072E+03  0.00000000000E+00 0. -1.
         -3    1    6    6    0  502 -0.72149621601E+02 -0.66821803587E+02  0.49864648700E+03  0.50825096196E+03  0.00000000000E+00 0.  1.
<mgrwt>
<rscale>  0 0.20355946E+03</rscale>
<asrwt>0</asrwt>
<pdfrwt beam="1">  1        1 0.24325934E+00 0.20355946E+03</pdfrwt>
<pdfrwt beam="2">  1       -4 0.16461738E-01 0.20355946E+03</pdfrwt>
<totfact> 0.96778106E+01</totfact>
</mgrwt>
</event>
<event>
12    3  0.1182097E-007  0.1239705E+04  0.7818608E-02  0.9078796E-01
         -2   -1    0    0    0  501 -0.00000000000E+00  0.00000000000E+00  0.52845082645E+03  0.52845082645E+03  0.00000000000E+00 0.  1.
          1   -1    0    0  501    0  0.00000000000E+00 -0.00000000000E+00 -0.35081019695E+04  0.35081019695E+04  0.00000000000E+00 0. -1.
        -24    2    1    2    0    0 -0.99259249148E+03  0.69843362548E+03 -0.20847710719E+04  0.24136199275E+04  0.79002209550E+02 0.  0.
    5000000    2    1    2    0    0  0.99259249148E+03 -0.69843362548E+03 -0.89488007113E+03  0.16229328684E+04  0.60004280700E+03 0.  0.
        -24    2    4    4    0    0  0.65647984236E+03 -0.25431171363E+03 -0.76918125279E+03  0.10463590818E+04  0.87105093833E+02 0.  0.
         24    2    4    4    0    0  0.33611264912E+03 -0.44412191185E+03 -0.12569881834E+03  0.57657378656E+03  0.80132096739E+02 0.  0.
         13    1    3    3    0    0 -0.70573850878E+03  0.49421832302E+03 -0.14070169189E+04  0.16498530855E+04  0.00000000000E+00 0. -1.
        -14    1    3    3    0    0 -0.28685398270E+03  0.20421530246E+03 -0.67775415300E+03  0.76376684208E+03  0.00000000000E+00 0.  1.
         15    1    5    5    0    0  0.46782035658E+03 -0.21906098094E+03 -0.58365385880E+03  0.77942195506E+03  0.17770000000E+01 0. -1.
        -16    1    5    5    0    0  0.18865948578E+03 -0.35250732690E+02 -0.18552739399E+03  0.26693712677E+03  0.00000000000E+00 0.  1.
          2    1    6    6  502    0  0.15223475527E+03 -0.21474882952E+03 -0.99570270056E+02  0.28143688311E+03  0.00000000000E+00 0. -1.
         -1    1    6    6    0  502  0.18387789384E+03 -0.22937308233E+03 -0.26128548288E+02  0.29513690345E+03  0.00000000000E+00 0.  1.
<mgrwt>
<rscale>  0 0.12397047E+04</rscale>
<asrwt>0</asrwt>
<pdfrwt beam="1">  1        1 0.53970800E+00 0.12397047E+04</pdfrwt>
<pdfrwt beam="2">  1       -2 0.81300127E-01 0.12397047E+04</pdfrwt>
<totfact> 0.28744268E-01</totfact>
</mgrwt>
</event>
<event>
12    3  0.1182097E-007  0.1091195E+04  0.7818608E-02  0.9213817E-01
          1   -1    0    0  501    0  0.00000000000E+00  0.00000000000E+00  0.13677673267E+04  0.13677673267E+04  0.00000000000E+00 0. -1.
         -2   -1    0    0    0  501 -0.00000000000E+00 -0.00000000000E+00 -0.96145162192E+03  0.96145162192E+03  0.00000000000E+00 0.  1.
        -24    2    1    2    0    0 -0.74688425942E+03  0.70909499269E+03 -0.93032453636E+02  0.10370633251E+04  0.78698775281E+02 0.  0.
    5000000    2    1    2    0    0  0.74688425942E+03 -0.70909499269E+03  0.49934815845E+03  0.12921556236E+04  0.59972140742E+03 0.  0.
        -24    2    4    4    0    0  0.79190987422E+03 -0.73907319423E+03  0.40966915148E+03  0.11609056521E+04  0.80763135558E+02 0.  0.
         24    2    4    4    0    0 -0.45025614799E+02  0.29978201548E+02  0.89679006972E+02  0.13124997146E+03  0.79108989130E+02 0.  0.
         11    1    3    3    0    0 -0.50156192973E+03  0.50759879214E+03 -0.92742924814E+02  0.71959860564E+03  0.00000000000E+00 0. -1.
        -12    1    3    3    0    0 -0.24532232969E+03  0.20149620054E+03 -0.28952882159E+00  0.31746471946E+03  0.00000000000E+00 0.  1.
         15    1    5    5    0    0  0.29490916845E+03 -0.32715536952E+03  0.17833639772E+03  0.47519373094E+03  0.17770000000E+01 0. -1.
        -16    1    5    5    0    0  0.49700070577E+03 -0.41191782471E+03  0.23133275376E+03  0.68571192115E+03  0.00000000000E+00 0.  1.
          4    1    6    6  502    0 -0.46882151456E+02  0.13519347442E+02  0.10032474029E+03  0.11156057724E+03  0.00000000000E+00 0. -1.
         -3    1    6    6    0  502  0.18565366561E+01  0.16458854106E+02 -0.10645733319E+02  0.19689394219E+02  0.00000000000E+00 0.  1.
<mgrwt>
<rscale>  0 0.10911950E+04</rscale>
<asrwt>0</asrwt>
<pdfrwt beam="1">  1        1 0.21042574E+00 0.10911950E+04</pdfrwt>
<pdfrwt beam="2">  1       -2 0.14791563E+00 0.10911950E+04</pdfrwt>
<totfact> 0.21791891E+00</totfact>
</mgrwt>
</event>
<event>
12    3  0.1182097E-007  0.5200177E+03  0.7818608E-02  0.1008682E+00
         -2   -1    0    0    0  501 -0.00000000000E+00  0.00000000000E+00  0.14129436672E+03  0.14129436672E+03  0.00000000000E+00 0.  1.
          1   -1    0    0  501    0  0.00000000000E+00 -0.00000000000E+00 -0.21580605433E+04  0.21580605433E+04  0.00000000000E+00 0. -1.
        -24    2    1    2    0    0 -0.37765871257E+02  0.35156326055E+03 -0.10293866187E+04  0.10912822528E+04  0.78975675972E+02 0.  0.
    5000000    2    1    2    0    0  0.37765871257E+02 -0.35156326055E+03 -0.98737955786E+03  0.12080726572E+04  0.59958165957E+03 0.  0.
        -24    2    4    4    0    0  0.25286028301E+03  0.23038713839E+01 -0.30217374304E+03  0.40196090470E+03  0.79498222461E+02 0.  0.
         24    2    4    4    0    0 -0.21509441176E+03 -0.35386713193E+03 -0.68520581482E+03  0.80611175246E+03  0.93923350434E+02 0.  0.
         11    1    3    3    0    0 -0.40786403032E+02  0.96109523165E+02 -0.35875681576E+03  0.37364023334E+03  0.00000000000E+00 0. -1.
        -12    1    3    3    0    0  0.30205317755E+01  0.25545373738E+03 -0.67062980292E+03  0.71764201948E+03  0.00000000000E+00 0.  1.
         15    1    5    5    0    0  0.11544094451E+03 -0.37476944574E+02 -0.15252383125E+03  0.19493026926E+03  0.17770000000E+01 0. -1.
        -16    1    5    5    0    0  0.13741933851E+03  0.39780815958E+02 -0.14964991179E+03  0.20703063544E+03  0.00000000000E+00 0.  1.
          2    1    6    6  502    0 -0.17565479724E+03 -0.25872643957E+03 -0.57970786040E+03  0.65867684165E+03  0.00000000000E+00 0. -1.
         -1    1    6    6    0  502 -0.39439614522E+02 -0.95140692358E+02 -0.10549795442E+03  0.14743491080E+03  0.00000000000E+00 0.  1.
<mgrwt>
<rscale>  0 0.52001774E+03</rscale>
<asrwt>0</asrwt>
<pdfrwt beam="1">  1        1 0.33200931E+00 0.52001774E+03</pdfrwt>
<pdfrwt beam="2">  1       -2 0.21737595E-01 0.52001774E+03</pdfrwt>
<totfact> 0.40372671E+01</totfact>
</mgrwt>
</event>
<event>
12    3  0.1182097E-007  0.3620898E+03  0.7818608E-02  0.1057759E+00
         -2   -1    0    0    0  501 -0.00000000000E+00  0.00000000000E+00  0.10079865799E+04  0.10079865799E+04  0.00000000000E+00 0.  1.
          1   -1    0    0  501    0  0.00000000000E+00 -0.00000000000E+00 -0.21136680894E+03  0.21136680894E+03  0.00000000000E+00 0. -1.
        -24    2    1    2    0    0 -0.18384819748E+03  0.17788527127E+02 -0.46353992195E+01  0.20137993726E+03  0.80098694055E+02 0.  0.
    5000000    2    1    2    0    0  0.18384819748E+03 -0.17788527127E+02  0.80125517023E+03  0.10179734516E+04  0.60011957891E+03 0.  0.
        -24    2    4    4    0    0  0.31813896958E+03  0.94238310732E+02  0.22085225113E+03  0.40663414017E+03  0.80513004821E+02 0.  0.
         24    2    4    4    0    0 -0.13429077210E+03 -0.11202683786E+03  0.58040291910E+03  0.61133931146E+03  0.79272828683E+02 0.  0.
         11    1    3    3    0    0 -0.91473035096E+02 -0.20365794302E+02 -0.29761963365E+02  0.98325257135E+02  0.00000000000E+00 0. -1.
        -12    1    3    3    0    0 -0.92375162385E+02  0.38154321429E+02  0.25126564146E+02  0.10305468012E+03  0.00000000000E+00 0.  1.
         15    1    5    5    0    0  0.12444429526E+03  0.75862211191E+02  0.78464380102E+02  0.16553330294E+03  0.17770000000E+01 0. -1.
        -16    1    5    5    0    0  0.19369467432E+03  0.18376099542E+02  0.14238787103E+03  0.24110083723E+03  0.00000000000E+00 0.  1.
          4    1    6    6  502    0 -0.25352310343E+02  0.94289590907E+01  0.11595499225E+03  0.11906806935E+03  0.00000000000E+00 0. -1.
         -3    1    6    6    0  502 -0.10893846176E+03 -0.12145579695E+03  0.46444792685E+03  0.49227124212E+03  0.00000000000E+00 0.  1.
<mgrwt>
<rscale>  0 0.36208982E+03</rscale>
<asrwt>0</asrwt>
<pdfrwt beam="1">  1        1 0.32517971E-01 0.36208982E+03</pdfrwt>
<pdfrwt beam="2">  1       -2 0.15507486E+00 0.36208982E+03</pdfrwt>
<totfact> 0.34759799E+01</totfact>
</mgrwt>
</event>
<event>
12    3  0.1182097E-007  0.6430550E+03  0.7818608E-02  0.9819899E-01
          1   -1    0    0  501    0  0.00000000000E+00  0.00000000000E+00  0.14291170844E+04  0.14291170844E+04  0.00000000000E+00 0. -1.
         -2   -1    0    0    0  501 -0.00000000000E+00 -0.00000000000E+00 -0.33224461316E+03  0.33224461316E+03  0.00000000000E+00 0.  1.
        -24    2    1    2    0    0 -0.30659170722E+03 -0.42895264249E+03  0.22530994940E+03  0.57890363058E+03  0.79787190487E+02 0.  0.
    5000000    2    1    2    0    0  0.30659170722E+03  0.42895264249E+03  0.87156252183E+03  0.11824580670E+04  0.60048897261E+03 0.  0.
        -24    2    4    4    0    0 -0.15073400523E+03  0.10129620579E+03  0.39008700957E+03  0.43772515677E+03  0.80335398138E+02 0.  0.
         24    2    4    4    0    0  0.45732571245E+03  0.32765643671E+03  0.48147551226E+03  0.74473291020E+03  0.79390747834E+02 0.  0.
         13    1    3    3    0    0 -0.14940077244E+03 -0.27084659630E+03  0.11347282243E+03  0.32947617662E+03  0.00000000000E+00 0. -1.
        -14    1    3    3    0    0 -0.15719093478E+03 -0.15810604620E+03  0.11183712696E+03  0.24942745396E+03  0.00000000000E+00 0.  1.
         15    1    5    5    0    0 -0.89380657675E+02  0.26619438509E+02  0.12796553637E+03  0.15835350549E+03  0.17770000000E+01 0. -1.
        -16    1    5    5    0    0 -0.61353347554E+02  0.74676767277E+02  0.26212147319E+03  0.27937165127E+03  0.00000000000E+00 0.  1.
          2    1    6    6  502    0  0.12533359467E+03  0.11153333826E+03  0.10308848715E+03  0.19691478278E+03  0.00000000000E+00 0. -1.
         -1    1    6    6    0  502  0.33199211778E+03  0.21612309845E+03  0.37838702512E+03  0.54781812742E+03  0.00000000000E+00 0.  1.
<mgrwt>
<rscale>  0 0.64305495E+03</rscale>
<asrwt>0</asrwt>
<pdfrwt beam="1">  1        1 0.21986416E+00 0.64305495E+03</pdfrwt>
<pdfrwt beam="2">  1       -2 0.51114557E-01 0.64305495E+03</pdfrwt>
<totfact> 0.24258250E+01</totfact>
</mgrwt>
</event>
<event>
12    3  0.1182097E-007  0.9500792E+03  0.7818608E-02  0.9365058E-01
         -2   -1    0    0    0  501 -0.00000000000E+00  0.00000000000E+00  0.11762063919E+04  0.11762063919E+04  0.00000000000E+00 0.  1.
          1   -1    0    0  501    0  0.00000000000E+00 -0.00000000000E+00 -0.82544963778E+03  0.82544963778E+03  0.00000000000E+00 0. -1.
        -24    2    1    2    0    0 -0.26614807547E+03 -0.83319054368E+03  0.33751116059E+03  0.94090434059E+03  0.79661248171E+02 0.  0.
    5000000    2    1    2    0    0  0.26614807547E+03  0.83319054368E+03  0.13245593525E+02  0.10607516891E+04  0.59998118305E+03 0.  0.
        -24    2    4    4    0    0  0.34307422111E+03  0.84417865864E+03 -0.77027138621E+02  0.91781117753E+03  0.78145048611E+02 0.  0.
         24    2    4    4    0    0 -0.76926145636E+02 -0.10988114966E+02  0.90272732146E+02  0.14294051156E+03  0.79021852190E+02 0.  0.
         11    1    3    3    0    0 -0.24815825339E+02 -0.15652682127E+03  0.40932814459E+02  0.16368251667E+03  0.00000000000E+00 0. -1.
        -12    1    3    3    0    0 -0.24133225013E+03 -0.67666372241E+03  0.29657834614E+03  0.77722182392E+03  0.00000000000E+00 0.  1.
         15    1    5    5    0    0  0.15153551565E+03  0.43515447199E+03 -0.75603406750E+01  0.46085002276E+03  0.17770000000E+01 0. -1.
        -16    1    5    5    0    0  0.19153870546E+03  0.40902418665E+03 -0.69466797946E+02  0.45696115477E+03  0.00000000000E+00 0.  1.
          2    1    6    6  502    0 -0.86225890618E+01  0.29969044682E+02  0.25672149079E+02  0.40392473551E+02  0.00000000000E+00 0. -1.
         -1    1    6    6    0  502 -0.68303556574E+02 -0.40957159648E+02  0.64600583067E+02  0.10254803801E+03  0.00000000000E+00 0.  1.
<mgrwt>
<rscale>  0 0.95007916E+03</rscale>
<asrwt>0</asrwt>
<pdfrwt beam="1">  1        1 0.12699225E+00 0.95007916E+03</pdfrwt>
<pdfrwt beam="2">  1       -2 0.18095483E+00 0.95007916E+03</pdfrwt>
<totfact> 0.32940117E+00</totfact>
</mgrwt>
</event>
<event>
12    3  0.1182097E-007  0.1414874E+04  0.7818608E-02  0.8943122E-01
          1   -1    0    0  501    0  0.00000000000E+00  0.00000000000E+00  0.25842040471E+04  0.25842040471E+04  0.00000000000E+00 0. -1.
         -2   -1    0    0    0  501 -0.00000000000E+00 -0.00000000000E+00 -0.78576561735E+03  0.78576561735E+03  0.00000000000E+00 0.  1.
        -24    2    1    2    0    0  0.11123661870E+04  0.78351943520E+03  0.88513575179E+03  0.16248823523E+04  0.74270589939E+02 0.  0.
    5000000    2    1    2    0    0 -0.11123661870E+04 -0.78351943520E+03  0.91330267791E+03  0.17450873121E+04  0.59995558680E+03 0.  0.
        -24    2    4    4    0    0  0.31800005679E+02 -0.11954318922E+03  0.94168164020E+02  0.18751952461E+03  0.10485282325E+03 0.  0.
         24    2    4    4    0    0 -0.11441661926E+04 -0.66397624598E+03  0.81913451389E+03  0.15575677875E+04  0.71100838039E+02 0.  0.
         13    1    3    3    0    0  0.41561206879E+03  0.24936555437E+03  0.31190957264E+03  0.57637154070E+03  0.00000000000E+00 0. -1.
        -14    1    3    3    0    0  0.69675411816E+03  0.53415388084E+03  0.57322617915E+03  0.10485108116E+04  0.00000000000E+00 0.  1.
         15    1    5    5    0    0  0.44850218475E+02 -0.35213169868E+02 -0.43107983596E+01  0.57212325078E+02  0.17770000000E+01 0. -1.
        -16    1    5    5    0    0 -0.13050212796E+02 -0.84330019355E+02  0.98478962380E+02  0.13030719953E+03  0.00000000000E+00 0.  1.
          4    1    6    6  502    0 -0.15016625978E+03 -0.11557896826E+03  0.12143555832E+03  0.22506665302E+03  0.00000000000E+00 0. -1.
         -3    1    6    6    0  502 -0.99399993286E+03 -0.54839727772E+03  0.69769895558E+03  0.13325011345E+04  0.00000000000E+00 0.  1.
<mgrwt>
<rscale>  0 0.14148738E+04</rscale>
<asrwt>0</asrwt>
<pdfrwt beam="1">  1        1 0.39756985E+00 0.14148738E+04</pdfrwt>
<pdfrwt beam="2">  1       -2 0.12088702E+00 0.14148738E+04</pdfrwt>
<totfact> 0.51984998E-01</totfact>
</mgrwt>
</event>
<event>
12    3  0.1182097E-007  0.5542461E+03  0.7818608E-02  0.1000516E+00
         -2   -1    0    0    0  501 -0.00000000000E+00  0.00000000000E+00  0.42132597929E+03  0.42132597929E+03  0.00000000000E+00 0.  1.
          1   -1    0    0  501    0  0.00000000000E+00 -0.00000000000E+00 -0.15928032150E+04  0.15928032150E+04  0.00000000000E+00 0. -1.
        -24    2    1    2    0    0 -0.31144212295E+03  0.25638049587E+03  0.20503446318E+03  0.45951463154E+03  0.79921279389E+02 0.  0.
    5000000    2    1    2    0    0  0.31144212295E+03 -0.25638049587E+03 -0.13765116989E+04  0.15546145627E+04  0.59942875047E+03 0.  0.
        -24    2    4    4    0    0 -0.16221310697E+03 -0.12150036718E+03 -0.35084244002E+03  0.41396173363E+03  0.84843785219E+02 0.  0.
         24    2    4    4    0    0  0.47365522992E+03 -0.13488012869E+03 -0.10256692588E+04  0.11406528291E+04  0.80929117295E+02 0.  0.
         13    1    3    3    0    0 -0.74924228811E+02  0.26985185397E+02  0.22084602898E+02  0.82641212352E+02  0.00000000000E+00 0. -1.
        -14    1    3    3    0    0 -0.23651789414E+03  0.22939531047E+03  0.18294986028E+03  0.37687341919E+03  0.00000000000E+00 0.  1.
         15    1    5    5    0    0 -0.70864640965E+02 -0.34697532291E+02 -0.67462267612E+02  0.10382692987E+03  0.17770000000E+01 0. -1.
        -16    1    5    5    0    0 -0.91348466005E+02 -0.86802834890E+02 -0.28338017241E+03  0.31013480375E+03  0.00000000000E+00 0.  1.
          2    1    6    6  502    0  0.37857671285E+03 -0.12575146759E+03 -0.75994715186E+03  0.85828516982E+03  0.00000000000E+00 0. -1.
         -1    1    6    6    0  502  0.95078517076E+02 -0.91286610986E+01 -0.26572210697E+03  0.28236765926E+03  0.00000000000E+00 0.  1.
<mgrwt>
<rscale>  0 0.55424612E+03</rscale>
<asrwt>0</asrwt>
<pdfrwt beam="1">  1        1 0.24504665E+00 0.55424612E+03</pdfrwt>
<pdfrwt beam="2">  1       -2 0.64819381E-01 0.55424612E+03</pdfrwt>
<totfact> 0.11597028E+01</totfact>
</mgrwt>
</event>
<event>
12    3  0.1182097E-007  0.8156913E+03  0.7818608E-02  0.9537578E-01
          1   -1    0    0  501    0  0.00000000000E+00  0.00000000000E+00  0.51225349413E+03  0.51225349413E+03  0.00000000000E+00 0. -1.
         -2   -1    0    0    0  501 -0.00000000000E+00 -0.00000000000E+00 -0.21750025740E+04  0.21750025740E+04  0.00000000000E+00 0.  1.
        -24    2    1    2    0    0 -0.76092622128E+03 -0.58956241069E+02 -0.56615568073E+01  0.76674044906E+03  0.73309688312E+02 0.  0.
    5000000    2    1    2    0    0  0.76092622128E+03  0.58956241069E+02 -0.16570875230E+04  0.19205156190E+04  0.59996385838E+03 0.  0.
        -24    2    4    4    0    0  0.13858877950E+02 -0.81234898836E+02 -0.62939460493E+03  0.63979449688E+03  0.80051559892E+02 0.  0.
         24    2    4    4    0    0  0.74706734334E+03  0.14019113990E+03 -0.10276929181E+04  0.12807211222E+04  0.79565618329E+02 0.  0.
         11    1    3    3    0    0 -0.61959445991E+03 -0.71345168433E+02  0.11771747105E+02  0.62379964879E+03  0.00000000000E+00 0. -1.
        -12    1    3    3    0    0 -0.14133176138E+03  0.12388927365E+02 -0.17433303913E+02  0.14294080027E+03  0.00000000000E+00 0.  1.
         15    1    5    5    0    0  0.30285116983E+02 -0.92494576708E+01 -0.32622897299E+03  0.32776705345E+03  0.17770000000E+01 0. -1.
        -16    1    5    5    0    0 -0.16426239033E+02 -0.71985441165E+02 -0.30316563194E+03  0.31202744343E+03  0.00000000000E+00 0.  1.
          4    1    6    6  502    0  0.52480799858E+03  0.91185981908E+02 -0.77781887285E+03  0.94273035255E+03  0.00000000000E+00 0. -1.
         -3    1    6    6    0  502  0.22225934475E+03  0.49005157996E+02 -0.24987404527E+03  0.33799076961E+03  0.00000000000E+00 0.  1.
<mgrwt>
<rscale>  0 0.81569132E+03</rscale>
<asrwt>0</asrwt>
<pdfrwt beam="1">  1        1 0.78808230E-01 0.81569132E+03</pdfrwt>
<pdfrwt beam="2">  1       -2 0.33461578E+00 0.81569132E+03</pdfrwt>
<totfact> 0.76106622E-01</totfact>
</mgrwt>
</event>
<event>
12    3  0.1182097E-007  0.6183578E+03  0.7818608E-02  0.9868035E-01
          1   -1    0    0  501    0  0.00000000000E+00  0.00000000000E+00  0.18278084063E+04  0.18278084063E+04  0.00000000000E+00 0. -1.
         -2   -1    0    0    0  501 -0.00000000000E+00 -0.00000000000E+00 -0.28617769601E+03  0.28617769601E+03  0.00000000000E+00 0.  1.
        -24    2    1    2    0    0  0.18416560817E+03  0.55677771035E+03  0.79180893588E+03  0.98868242945E+03  0.81321370995E+02 0.  0.
    5000000    2    1    2    0    0 -0.18416560817E+03 -0.55677771035E+03  0.74982177443E+03  0.11253036729E+04  0.60013104636E+03 0.  0.
        -24    2    4    4    0    0  0.10659880370E+02 -0.29887949480E+02  0.49735298412E+03  0.50465264867E+03  0.79419030658E+02 0.  0.
         24    2    4    4    0    0 -0.19482548854E+03 -0.52688976087E+03  0.25246879031E+03  0.62065102420E+03  0.76794613530E+02 0.  0.
         11    1    3    3    0    0  0.71749502601E+02  0.33065435001E+03  0.48407309198E+03  0.59059888984E+03  0.00000000000E+00 0. -1.
        -12    1    3    3    0    0  0.11241610557E+03  0.22612336034E+03  0.30773584390E+03  0.39808353960E+03  0.00000000000E+00 0.  1.
         15    1    5    5    0    0  0.29124370489E+02  0.16897758455E+02  0.15503995459E+03  0.15866413724E+03  0.17770000000E+01 0. -1.
        -16    1    5    5    0    0 -0.18464490119E+02 -0.46785707934E+02  0.34231302953E+03  0.34598851144E+03  0.00000000000E+00 0.  1.
          2    1    6    6  502    0 -0.57661552437E+01 -0.20431548075E+02 -0.50965476965E+01  0.21832807915E+02  0.00000000000E+00 0. -1.
         -1    1    6    6    0  502 -0.18905933329E+03 -0.50645821280E+03  0.25756533801E+03  0.59881821629E+03  0.00000000000E+00 0.  1.
<mgrwt>
<rscale>  0 0.61835784E+03</rscale>
<asrwt>0</asrwt>
<pdfrwt beam="1">  1        1 0.28120129E+00 0.61835784E+03</pdfrwt>
<pdfrwt beam="2">  1       -2 0.44027339E-01 0.61835784E+03</pdfrwt>
<totfact> 0.17693716E+01</totfact>
</mgrwt>
</event>
<event>
12    3  0.1364368E-007  0.7143092E+03  0.7818608E-02  0.9693070E-01
          1   -1    0    0  501    0  0.00000000000E+00  0.00000000000E+00  0.18148205585E+04  0.18148205585E+04  0.00000000000E+00 0. -1.
         -2   -1    0    0    0  501 -0.00000000000E+00 -0.00000000000E+00 -0.34168605326E+03  0.34168605326E+03  0.00000000000E+00 0.  1.
        -24    2    1    2    0    0  0.61956560145E+03  0.19972922780E+03  0.41299446411E+03  0.77532883529E+03  0.82565589116E+02 0.  0.
    5000000    2    1    2    0    0 -0.61956560145E+03 -0.19972922780E+03  0.10601400411E+04  0.13811777764E+04  0.60000153705E+03 0.  0.
        -24    2    4    4    0    0  0.48670642746E+02 -0.65086747195E+02  0.44600688463E+03  0.46020044180E+03  0.79102398000E+02 0.  0.
         24    2    4    4    0    0 -0.66823624420E+03 -0.13464248060E+03  0.61413315645E+03  0.92097733462E+03  0.79821309210E+02 0.  0.
         13    1    3    3    0    0  0.22785255425E+03  0.49428496883E+02  0.10998302704E+03  0.25779105690E+03  0.00000000000E+00 0. -1.
        -14    1    3    3    0    0  0.39171304720E+03  0.15030073091E+03  0.30301143707E+03  0.51753777839E+03  0.00000000000E+00 0.  1.
         15    1    5    5    0    0  0.53553855321E+02 -0.68951292372E+02  0.26360664442E+03  0.27769392656E+03  0.17770000000E+01 0. -1.
        -16    1    5    5    0    0 -0.48832125748E+01  0.38645451772E+01  0.18240024021E+03  0.18250651524E+03  0.00000000000E+00 0.  1.
          4    1    6    6  502    0 -0.20134777073E+03 -0.54992695378E+02  0.14362039400E+03  0.25336128137E+03  0.00000000000E+00 0. -1.
         -3    1    6    6    0  502 -0.46688847346E+03 -0.79649785224E+02  0.47051276245E+03  0.66761605326E+03  0.00000000000E+00 0.  1.
<mgrwt>
<rscale>  0 0.71430921E+03</rscale>
<asrwt>0</asrwt>
<pdfrwt beam="1">  1        1 0.27920316E+00 0.71430921E+03</pdfrwt>
<pdfrwt beam="2">  1       -2 0.52567086E-01 0.71430921E+03</pdfrwt>
<totfact> 0.12439960E+01</totfact>
</mgrwt>
</event>
<event>
12    3  0.1182097E-007  0.5876336E+03  0.7818608E-02  0.9931400E-01
         -4   -1    0    0    0  501 -0.00000000000E+00  0.00000000000E+00  0.13172456088E+04  0.13172456088E+04  0.00000000000E+00 0.  1.
          3   -1    0    0  501    0  0.00000000000E+00 -0.00000000000E+00 -0.66026999941E+03  0.66026999941E+03  0.00000000000E+00 0. -1.
        -24    2    1    2    0    0  0.32145280577E+03 -0.46029566275E+03  0.94921469961E+03  0.11053531570E+04  0.74786711437E+02 0.  0.
    5000000    2    1    2    0    0 -0.32145280577E+03  0.46029566275E+03 -0.29223909023E+03  0.87216245122E+03  0.60004970792E+03 0.  0.
        -24    2    4    4    0    0 -0.20343725710E+03  0.39769502044E+03  0.86956884187E+02  0.46201545968E+03  0.79678970988E+02 0.  0.
         24    2    4    4    0    0 -0.11801554867E+03  0.62600642312E+02 -0.37919597441E+03  0.41014699154E+03  0.81144670264E+02 0.  0.
         11    1    3    3    0    0  0.16445021020E+03 -0.17890372307E+03  0.37337932505E+03  0.44549134014E+03  0.00000000000E+00 0. -1.
        -12    1    3    3    0    0  0.15700259557E+03 -0.28139193968E+03  0.57583537456E+03  0.65986181684E+03  0.00000000000E+00 0.  1.
         15    1    5    5    0    0 -0.60300270927E+02  0.20503015878E+03  0.38740110068E+02  0.21720368906E+03  0.17770000000E+01 0. -1.
        -16    1    5    5    0    0 -0.14313698617E+03  0.19266486166E+03  0.48216774119E+02  0.24481177062E+03  0.00000000000E+00 0.  1.
          2    1    6    6  502    0 -0.18318100438E+02 -0.19786898329E+02 -0.66757468435E+02  0.71997456490E+02  0.00000000000E+00 0. -1.
         -1    1    6    6    0  502 -0.99697448231E+02  0.82387540641E+02 -0.31243850598E+03  0.33814953505E+03  0.00000000000E+00 0.  1.
<mgrwt>
<rscale>  0 0.58763365E+03</rscale>
<asrwt>0</asrwt>
<pdfrwt beam="1">  1        3 0.10158000E+00 0.58763365E+03</pdfrwt>
<pdfrwt beam="2">  1       -4 0.20265317E+00 0.58763365E+03</pdfrwt>
<totfact> 0.24369891E-01</totfact>
</mgrwt>
</event>
<event>
12    3  0.1182097E-007  0.7298043E+03  0.7818608E-02  0.9667578E-01
         -2   -1    0    0    0  501 -0.00000000000E+00  0.00000000000E+00  0.19649002709E+04  0.19649002709E+04  0.00000000000E+00 0.  1.
          1   -1    0    0  501    0  0.00000000000E+00 -0.00000000000E+00 -0.52167919966E+03  0.52167919966E+03  0.00000000000E+00 0. -1.
        -24    2    1    2    0    0 -0.59731858747E+03  0.16801149776E+03  0.14961550032E+04  0.16216402505E+04  0.78866660435E+02 0.  0.
    5000000    2    1    2    0    0  0.59731858747E+03 -0.16801149776E+03 -0.52933931935E+02  0.86493922008E+03  0.60025036024E+03 0.  0.
        -24    2    4    4    0    0  0.14810491009E+03 -0.32235021097E+03  0.63895442319E+02  0.36908821404E+03  0.79364723230E+02 0.  0.
         24    2    4    4    0    0  0.44921367738E+03  0.15433871321E+03 -0.11682937425E+03  0.49585100603E+03  0.81275772246E+02 0.  0.
         13    1    3    3    0    0 -0.36444223562E+03  0.13024937046E+03  0.85703264796E+03  0.94036588691E+03  0.00000000000E+00 0. -1.
        -14    1    3    3    0    0 -0.23287635185E+03  0.37762127300E+02  0.63912235521E+03  0.68127436356E+03  0.00000000000E+00 0.  1.
         15    1    5    5    0    0  0.11471845694E+03 -0.26288868854E+03  0.82387759920E+02  0.29843204861E+03  0.17770000000E+01 0. -1.
        -16    1    5    5    0    0  0.33386453147E+02 -0.59461522426E+02 -0.18492317601E+02  0.70656165430E+02  0.00000000000E+00 0.  1.
          2    1    6    6  502    0  0.39190970093E+03  0.10425725863E+03 -0.92541001782E+02  0.41596469402E+03  0.00000000000E+00 0. -1.
         -1    1    6    6    0  502  0.57303976453E+02  0.50081454578E+02 -0.24288372472E+02  0.79886312015E+02  0.00000000000E+00 0.  1.
<mgrwt>
<rscale>  0 0.72980430E+03</rscale>
<asrwt>0</asrwt>
<pdfrwt beam="1">  1        1 0.80258339E-01 0.72980430E+03</pdfrwt>
<pdfrwt beam="2">  1       -2 0.30229235E+00 0.72980430E+03</pdfrwt>
<totfact> 0.11836414E+00</totfact>
</mgrwt>
</event>
<event>
12    3  0.1182097E-007  0.4944782E+03  0.7818608E-02  0.1015230E+00
         -2   -1    0    0    0  501 -0.00000000000E+00  0.00000000000E+00  0.14320022332E+03  0.14320022332E+03  0.00000000000E+00 0.  1.
          1   -1    0    0  501    0  0.00000000000E+00 -0.00000000000E+00 -0.20096788326E+04  0.20096788326E+04  0.00000000000E+00 0. -1.
        -24    2    1    2    0    0  0.33839711489E+03 -0.73604928192E+02 -0.86357747101E+03  0.93395296547E+03  0.81066642081E+02 0.  0.
    5000000    2    1    2    0    0 -0.33839711489E+03  0.73604928192E+02 -0.10029011383E+04  0.12189260904E+04  0.60003318909E+03 0.  0.
        -24    2    4    4    0    0 -0.20735127163E+03 -0.22238494409E+03 -0.70415223460E+03  0.77120103688E+03  0.80442877803E+02 0.  0.
         24    2    4    4    0    0 -0.13104584326E+03  0.29598987228E+03 -0.29874890366E+03  0.44772505356E+03  0.80148603328E+02 0.  0.
         13    1    3    3    0    0  0.80506175487E+02  0.13630099373E+02 -0.24088751083E+03  0.25434979216E+03  0.00000000000E+00 0. -1.
        -14    1    3    3    0    0  0.25789093940E+03 -0.87235027565E+02 -0.62268996018E+03  0.67960317330E+03  0.00000000000E+00 0.  1.
         15    1    5    5    0    0 -0.71545420075E+02 -0.12495801781E+03 -0.38265395954E+03  0.40885261872E+03  0.17770000000E+01 0. -1.
        -16    1    5    5    0    0 -0.13580585156E+03 -0.97426926279E+02 -0.32149827505E+03  0.36234841816E+03  0.00000000000E+00 0.  1.
          4    1    6    6  502    0 -0.49135051209E+01  0.17885760256E+02 -0.51725223913E+02  0.54950357063E+02  0.00000000000E+00 0. -1.
         -3    1    6    6    0  502 -0.12613233814E+03  0.27810411203E+03 -0.24702367975E+03  0.39277469649E+03  0.00000000000E+00 0.  1.
<mgrwt>
<rscale>  0 0.49447819E+03</rscale>
<asrwt>0</asrwt>
<pdfrwt beam="1">  1        1 0.30918135E+00 0.49447819E+03</pdfrwt>
<pdfrwt beam="2">  1       -2 0.22030804E-01 0.49447819E+03</pdfrwt>
<totfact> 0.49668931E+01</totfact>
</mgrwt>
</event>
<event>
12    3  0.1182097E-007  0.6629752E+03  0.7818608E-02  0.9782732E-01
          1   -1    0    0  501    0  0.00000000000E+00  0.00000000000E+00  0.23391039986E+04  0.23391039986E+04  0.00000000000E+00 0. -1.
         -2   -1    0    0    0  501 -0.00000000000E+00 -0.00000000000E+00 -0.20471447017E+03  0.20471447017E+03  0.00000000000E+00 0.  1.
        -24    2    1    2    0    0 -0.49640844575E+03  0.19266170986E+03  0.56118062774E+03  0.77787909756E+03  0.81439020223E+02 0.  0.
    5000000    2    1    2    0    0  0.49640844575E+03 -0.19266170986E+03  0.15732089007E+04  0.17659393712E+04  0.60001311491E+03 0.  0.
        -24    2    4    4    0    0  0.61688501403E+03 -0.21465399935E+03  0.13029879615E+04  0.14597111873E+04  0.79722408476E+02 0.  0.
         24    2    4    4    0    0 -0.12047656828E+03  0.21992289487E+02  0.27022093912E+03  0.30622818388E+03  0.75882016061E+02 0.  0.
         13    1    3    3    0    0 -0.22747492128E+03  0.84510631651E+02  0.19793108160E+03  0.31315108132E+03  0.00000000000E+00 0. -1.
        -14    1    3    3    0    0 -0.26893352447E+03  0.10815107821E+03  0.36324954614E+03  0.46472801624E+03  0.00000000000E+00 0.  1.
         15    1    5    5    0    0  0.23709189719E+03 -0.12079583603E+03  0.56069344419E+03  0.62063233706E+03  0.17770000000E+01 0. -1.
        -16    1    5    5    0    0  0.37979311684E+03 -0.93858163314E+02  0.74229451735E+03  0.83907885023E+03  0.00000000000E+00 0.  1.
          2    1    6    6  502    0 -0.69571716579E+02 -0.17426061209E+02  0.19175849567E+03  0.20473204932E+03  0.00000000000E+00 0. -1.
         -1    1    6    6    0  502 -0.50904851699E+02  0.39418350696E+02  0.78462443449E+02  0.10149613456E+03  0.00000000000E+00 0.  1.
<mgrwt>
<rscale>  0 0.66297516E+03</rscale>
<asrwt>0</asrwt>
<pdfrwt beam="1">  1        1 0.35986214E+00 0.66297516E+03</pdfrwt>
<pdfrwt beam="2">  1       -2 0.31494535E-01 0.66297516E+03</pdfrwt>
<totfact> 0.15235765E+01</totfact>
</mgrwt>
</event>
<event>
12    3  0.1182097E-007  0.5854065E+03  0.7818608E-02  0.9936154E-01
          3   -1    0    0  501    0  0.00000000000E+00  0.00000000000E+00  0.61598120220E+03  0.61598120220E+03  0.00000000000E+00 0. -1.
         -4   -1    0    0    0  501 -0.00000000000E+00 -0.00000000000E+00 -0.62315216021E+03  0.62315216021E+03  0.00000000000E+00 0.  1.
        -24    2    1    2    0    0 -0.38230757856E+03 -0.20850666570E+03 -0.18254167091E+03  0.47724611885E+03  0.69341777240E+02 0.  0.
    5000000    2    1    2    0    0  0.38230757856E+03  0.20850666570E+03  0.17537071290E+03  0.76188724356E+03  0.60006930490E+03 0.  0.
        -24    2    4    4    0    0  0.53112202946E+03  0.20299657357E+03  0.94423513291E+02  0.58186748192E+03  0.79722942693E+02 0.  0.
         24    2    4    4    0    0 -0.14881445090E+03  0.55100921367E+01  0.80947199609E+02  0.18001976164E+03  0.60651162754E+02 0.  0.
         13    1    3    3    0    0 -0.31443303380E+03 -0.13899497178E+03 -0.14052209996E+03  0.37139493199E+03  0.00000000000E+00 0. -1.
        -14    1    3    3    0    0 -0.67874544758E+02 -0.69511693919E+02 -0.42019570949E+02  0.10585118686E+03  0.00000000000E+00 0.  1.
         15    1    5    5    0    0  0.33583477097E+03  0.14170196882E+03  0.96907119103E+02  0.37717182931E+03  0.17770000000E+01 0. -1.
        -16    1    5    5    0    0  0.19528725850E+03  0.61294604744E+02 -0.24836058124E+01  0.20469565261E+03  0.00000000000E+00 0.  1.
          4    1    6    6  502    0 -0.10846957159E+03  0.31184101102E+02  0.59871918351E+02  0.12776048971E+03  0.00000000000E+00 0. -1.
         -1    1    6    6    0  502 -0.40344879309E+02 -0.25674008965E+02  0.21075281258E+02  0.52259271932E+02  0.00000000000E+00 0.  1.
<mgrwt>
<rscale>  0 0.58540654E+03</rscale>
<asrwt>0</asrwt>
<pdfrwt beam="1">  1        3 0.94766339E-01 0.58540654E+03</pdfrwt>
<pdfrwt beam="2">  1       -4 0.95869563E-01 0.58540654E+03</pdfrwt>
<totfact> 0.20444507E+00</totfact>
</mgrwt>
</event>
<event>
12    3  0.1182097E-007  0.8170461E+03  0.7818608E-02  0.9535666E-01
          1   -1    0    0  501    0  0.00000000000E+00  0.00000000000E+00  0.78755411473E+03  0.78755411473E+03  0.00000000000E+00 0. -1.
         -2   -1    0    0    0  501 -0.00000000000E+00 -0.00000000000E+00 -0.91694444668E+03  0.91694444668E+03  0.00000000000E+00 0.  1.
        -24    2    1    2    0    0  0.28014418935E+03 -0.66156870225E+03  0.12650868528E+03  0.73410740067E+03  0.82190715003E+02 0.  0.
    5000000    2    1    2    0    0 -0.28014418935E+03  0.66156870225E+03 -0.25589901723E+03  0.97039116075E+03  0.60001731909E+03 0.  0.
        -24    2    4    4    0    0  0.11254851323E+03  0.44305105064E+03 -0.21872676018E+03  0.51281260282E+03  0.78574605822E+02 0.  0.
         24    2    4    4    0    0 -0.39269270259E+03  0.21851765161E+03 -0.37172257053E+02  0.45757855793E+03  0.77709955965E+02 0.  0.
         13    1    3    3    0    0  0.11521907104E+03 -0.32898269965E+03  0.26186712155E+02  0.34955799933E+03  0.00000000000E+00 0. -1.
        -14    1    3    3    0    0  0.16492511831E+03 -0.33258600260E+03  0.10032197312E+03  0.38454940134E+03  0.00000000000E+00 0.  1.
         15    1    5    5    0    0  0.24517825052E+02  0.24723917590E+03 -0.10348288310E+03  0.26914716916E+03  0.17770000000E+01 0. -1.
        -16    1    5    5    0    0  0.88030688183E+02  0.19581187474E+03 -0.11524387708E+03  0.24366543365E+03  0.00000000000E+00 0.  1.
          2    1    6    6  502    0 -0.26427037417E+03  0.16790948009E+03  0.53372134616E+01  0.31314678669E+03  0.00000000000E+00 0. -1.
         -1    1    6    6    0  502 -0.12842232842E+03  0.50608171522E+02 -0.42509470515E+02  0.14443177124E+03  0.00000000000E+00 0.  1.
<mgrwt>
<rscale>  0 0.81704606E+03</rscale>
<asrwt>0</asrwt>
<pdfrwt beam="1">  1        1 0.12116217E+00 0.81704606E+03</pdfrwt>
<pdfrwt beam="2">  1       -2 0.14106838E+00 0.81704606E+03</pdfrwt>
<totfact> 0.70969256E+00</totfact>
</mgrwt>
</event>
<event>
12    3  0.1182097E-007  0.8893919E+03  0.7818608E-02  0.9438940E-01
          1   -1    0    0  501    0  0.00000000000E+00  0.00000000000E+00  0.40208360377E+04  0.40208360377E+04  0.00000000000E+00 0. -1.
         -2   -1    0    0    0  501 -0.00000000000E+00 -0.00000000000E+00 -0.50135075803E+03  0.50135075803E+03  0.00000000000E+00 0.  1.
        -24    2    1    2    0    0  0.65946998680E+03  0.45700775650E+03 -0.56899364316E+02  0.80807585574E+03  0.77409934589E+02 0.  0.
    5000000    2    1    2    0    0 -0.65946998680E+03 -0.45700775650E+03  0.35763846440E+04  0.37141109400E+04  0.60028010116E+03 0.  0.
        -24    2    4    4    0    0 -0.52858121591E+03 -0.34531153576E+02  0.15958987980E+04  0.16833391901E+04  0.78405058677E+02 0.  0.
         24    2    4    4    0    0 -0.13088877090E+03 -0.42247660293E+03  0.19804858460E+04  0.20307717499E+04  0.78047187540E+02 0.  0.
         11    1    3    3    0    0  0.28337517659E+03  0.17053470775E+03 -0.55158101686E+02  0.33529985600E+03  0.00000000000E+00 0. -1.
        -12    1    3    3    0    0  0.37609481021E+03  0.28647304875E+03 -0.17412626297E+01  0.47277599974E+03  0.00000000000E+00 0.  1.
         15    1    5    5    0    0 -0.34444719155E+03  0.48846010568E+01  0.11100700205E+04  0.11622935667E+04  0.17770000000E+01 0. -1.
        -16    1    5    5    0    0 -0.18413402436E+03 -0.39415754633E+02  0.48582877749E+03  0.52104562341E+03  0.00000000000E+00 0.  1.
          2    1    6    6  502    0 -0.84123974436E+02 -0.24948300270E+03  0.13436901773E+04  0.13692413608E+04  0.00000000000E+00 0. -1.
         -1    1    6    6    0  502 -0.46764796460E+02 -0.17299360023E+03  0.63679566872E+03  0.66153038903E+03  0.00000000000E+00 0.  1.
<mgrwt>
<rscale>  0 0.88939193E+03</rscale>
<asrwt>0</asrwt>
<pdfrwt beam="1">  1        1 0.61859014E+00 0.88939193E+03</pdfrwt>
<pdfrwt beam="2">  1       -2 0.77130888E-01 0.88939193E+03</pdfrwt>
<totfact> 0.13030321E-01</totfact>
</mgrwt>
</event>
<event>
12    3  0.1182097E-007  0.5790563E+03  0.7818608E-02  0.9949836E-01
         -2   -1    0    0    0  501 -0.00000000000E+00  0.00000000000E+00  0.46097953460E+03  0.46097953460E+03  0.00000000000E+00 0.  1.
          1   -1    0    0  501    0  0.00000000000E+00 -0.00000000000E+00 -0.78257861368E+03  0.78257861368E+03  0.00000000000E+00 0. -1.
        -24    2    1    2    0    0  0.11336283898E+03  0.42080919137E+03 -0.21961612904E+03  0.49499158555E+03  0.82788385875E+02 0.  0.
    5000000    2    1    2    0    0 -0.11336283898E+03 -0.42080919137E+03 -0.10198295005E+03  0.74856656272E+03  0.60001655637E+03 0.  0.
        -24    2    4    4    0    0 -0.30512981768E+03 -0.71581158200E+02  0.20519610020E+02  0.32408377374E+03  0.79882226813E+02 0.  0.
         24    2    4    4    0    0  0.19176697870E+03 -0.34922803317E+03 -0.12250256007E+03  0.42448278898E+03  0.80274327424E+02 0.  0.
         11    1    3    3    0    0  0.67349536073E+02  0.31406927837E+03 -0.19629410286E+03  0.37643969828E+03  0.00000000000E+00 0. -1.
        -12    1    3    3    0    0  0.46013302908E+02  0.10673991300E+03 -0.23322026180E+02  0.11855188727E+03  0.00000000000E+00 0.  1.
         15    1    5    5    0    0 -0.18257359205E+02  0.12717656430E+02 -0.80312674275E+01  0.23721908348E+02  0.17770000000E+01 0. -1.
        -16    1    5    5    0    0 -0.28687245848E+03 -0.84298814629E+02  0.28550877447E+02  0.30036186540E+03  0.00000000000E+00 0.  1.
          2    1    6    6  502    0  0.22234807435E+02 -0.61376037719E+02 -0.51027010744E+02  0.82856264056E+02  0.00000000000E+00 0. -1.
         -1    1    6    6    0  502  0.16953217127E+03 -0.28785199545E+03 -0.71475549322E+02  0.34162652492E+03  0.00000000000E+00 0.  1.
<mgrwt>
<rscale>  0 0.57905634E+03</rscale>
<asrwt>0</asrwt>
<pdfrwt beam="1">  1        1 0.12039671E+00 0.57905634E+03</pdfrwt>
<pdfrwt beam="2">  1       -2 0.70919929E-01 0.57905634E+03</pdfrwt>
<totfact> 0.37594096E+01</totfact>
</mgrwt>
</event>
<event>
12    3  0.1182097E-007  0.7144557E+03  0.7818608E-02  0.9692825E-01
         -2   -1    0    0    0  501 -0.00000000000E+00  0.00000000000E+00  0.15164777462E+04  0.15164777462E+04  0.00000000000E+00 0.  1.
          1   -1    0    0  501    0  0.00000000000E+00 -0.00000000000E+00 -0.36432925680E+03  0.36432925680E+03  0.00000000000E+00 0. -1.
        -24    2    1    2    0    0  0.53891472423E+02 -0.60062749519E+03  0.66180089339E+03  0.89890161520E+03  0.79912530589E+02 0.  0.
    5000000    2    1    2    0    0 -0.53891472423E+02  0.60062749519E+03  0.49034759601E+03  0.98190538780E+03  0.60003312150E+03 0.  0.
        -24    2    4    4    0    0  0.16107159169E+03 -0.25795178884E+01  0.18281100300E+02  0.18220075932E+03  0.83139680706E+02 0.  0.
         24    2    4    4    0    0 -0.21496306411E+03  0.60320701308E+03  0.47206649571E+03  0.79970462847E+03  0.81319720089E+02 0.  0.
         11    1    3    3    0    0  0.32411562534E+02 -0.31362605241E+03  0.28708017256E+03  0.42641158006E+03  0.00000000000E+00 0. -1.
        -12    1    3    3    0    0  0.21479909890E+02 -0.28700144278E+03  0.37472072083E+03  0.47249003514E+03  0.00000000000E+00 0.  1.
         15    1    5    5    0    0  0.14958914963E+03  0.24743562896E+02  0.16046560629E+02  0.15247887535E+03  0.17770000000E+01 0. -1.
        -16    1    5    5    0    0  0.11482442060E+02 -0.27323080785E+02  0.22345396703E+01  0.29721883971E+02  0.00000000000E+00 0.  1.
          2    1    6    6  502    0 -0.18478890605E+03  0.41983401113E+03  0.31582905449E+03  0.55691608736E+03  0.00000000000E+00 0. -1.
         -3    1    6    6    0  502 -0.30174158063E+02  0.18337300195E+03  0.15623744122E+03  0.24278854112E+03  0.00000000000E+00 0.  1.
<mgrwt>
<rscale>  0 0.71445574E+03</rscale>
<asrwt>0</asrwt>
<pdfrwt beam="1">  1        1 0.56050656E-01 0.71445574E+03</pdfrwt>
<pdfrwt beam="2">  1       -2 0.23330427E+00 0.71445574E+03</pdfrwt>
<totfact> 0.50053190E+00</totfact>
</mgrwt>
</event>
<event>
12    3  0.1182097E-007  0.4813904E+03  0.7818608E-02  0.1018754E+00
          1   -1    0    0  501    0  0.00000000000E+00  0.00000000000E+00  0.49584445896E+03  0.49584445896E+03  0.00000000000E+00 0. -1.
         -2   -1    0    0    0  501 -0.00000000000E+00 -0.00000000000E+00 -0.13143715389E+04  0.13143715389E+04  0.00000000000E+00 0.  1.
        -24    2    1    2    0    0 -0.18957710653E+03  0.36722939571E+03  0.27027469235E+03  0.50016717009E+03  0.79510252897E+02 0.  0.
    5000000    2    1    2    0    0  0.18957710653E+03 -0.36722939571E+03 -0.10888017723E+04  0.13100488278E+04  0.59995143422E+03 0.  0.
        -24    2    4    4    0    0  0.18188348417E+03 -0.54416102992E+01 -0.46467856699E+02  0.20409296323E+03  0.79896576873E+02 0.  0.
         24    2    4    4    0    0  0.76936223646E+01 -0.36178778541E+03 -0.10423339156E+04  0.11059558646E+04  0.75688765588E+02 0.  0.
         11    1    3    3    0    0 -0.99908013513E+02  0.14618649327E+03  0.76683942945E+02  0.19295732452E+03  0.00000000000E+00 0. -1.
        -12    1    3    3    0    0 -0.89669093020E+02  0.22104290244E+03  0.19359074941E+03  0.30720984557E+03  0.00000000000E+00 0.  1.
         15    1    5    5    0    0  0.12060452899E+03  0.45785117454E+01 -0.67794095764E+02  0.13843992319E+03  0.17770000000E+01 0. -1.
        -16    1    5    5    0    0  0.61278955174E+02 -0.10020122045E+02  0.21326239065E+02  0.65653040034E+02  0.00000000000E+00 0.  1.
          4    1    6    6  502    0  0.15917454298E+02 -0.49759321621E+02 -0.22654774477E+03  0.23249351840E+03  0.00000000000E+00 0. -1.
         -3    1    6    6    0  502 -0.82238319331E+01 -0.31202846379E+03 -0.81578617086E+03  0.87346234618E+03  0.00000000000E+00 0.  1.
<mgrwt>
<rscale>  0 0.48139042E+03</rscale>
<asrwt>0</asrwt>
<pdfrwt beam="1">  1        1 0.76283764E-01 0.48139042E+03</pdfrwt>
<pdfrwt beam="2">  1       -2 0.20221100E+00 0.48139042E+03</pdfrwt>
<totfact> 0.53886938E+00</totfact>
</mgrwt>
</event>
<event>
12    3  0.1182097E-007  0.9463932E+03  0.7818608E-02  0.9369376E-01
         -2   -1    0    0    0  501 -0.00000000000E+00  0.00000000000E+00  0.10834969403E+04  0.10834969403E+04  0.00000000000E+00 0.  1.
          1   -1    0    0  501    0  0.00000000000E+00 -0.00000000000E+00 -0.17380121459E+04  0.17380121459E+04  0.00000000000E+00 0. -1.
        -24    2    1    2    0    0 -0.83315935795E+03  0.23478196275E+03 -0.13163518346E+04  0.15774690168E+04  0.79682249463E+02 0.  0.
    5000000    2    1    2    0    0  0.83315935795E+03 -0.23478196275E+03  0.66183662897E+03  0.12440400694E+04  0.60027567416E+03 0.  0.
        -24    2    4    4    0    0 -0.48889173633E+02  0.70261860213E+02  0.65322894526E+02  0.13326384261E+03  0.78519366400E+02 0.  0.
         24    2    4    4    0    0  0.88204853158E+03 -0.30504382296E+03  0.59651373444E+03  0.11107762268E+04  0.83269709725E+02 0.  0.
         13    1    3    3    0    0 -0.68818246419E+03  0.16968205182E+03 -0.10372770729E+04  0.12563163729E+04  0.00000000000E+00 0. -1.
        -14    1    3    3    0    0 -0.14497689376E+03  0.65099910924E+02 -0.27907476169E+03  0.32115264398E+03  0.00000000000E+00 0.  1.
         15    1    5    5    0    0 -0.33284730712E+02  0.19727492482E+02 -0.11130140539E+02  0.40299938159E+02  0.17770000000E+01 0. -1.
        -16    1    5    5    0    0 -0.15604442921E+02  0.50534367731E+02  0.76453035065E+02  0.92963904455E+02  0.00000000000E+00 0.  1.
          4    1    6    6  502    0  0.37472464519E+03 -0.13816179618E+03  0.20765916444E+03  0.45014394388E+03  0.00000000000E+00 0. -1.
         -3    1    6    6    0  502  0.50732388639E+03 -0.16688202678E+03  0.38885457000E+03  0.66063228287E+03  0.00000000000E+00 0.  1.
<mgrwt>
<rscale>  0 0.94639322E+03</rscale>
<asrwt>0</asrwt>
<pdfrwt beam="1">  1        1 0.26738648E+00 0.94639322E+03</pdfrwt>
<pdfrwt beam="2">  1       -2 0.16669184E+00 0.94639322E+03</pdfrwt>
<totfact> 0.89384549E-01</totfact>
</mgrwt>
</event>
<event>
12    3  0.1182097E-007  0.7161107E+03  0.7818608E-02  0.9690071E-01
          1   -1    0    0  501    0  0.00000000000E+00  0.00000000000E+00  0.74103332170E+03  0.74103332170E+03  0.00000000000E+00 0. -1.
         -2   -1    0    0    0  501 -0.00000000000E+00 -0.00000000000E+00 -0.74566079597E+03  0.74566079597E+03  0.00000000000E+00 0.  1.
        -24    2    1    2    0    0  0.79343512599E+02 -0.60819188981E+03 -0.88516919958E+02  0.62458289146E+03  0.77947260140E+02 0.  0.
    5000000    2    1    2    0    0 -0.79343512599E+02  0.60819188981E+03  0.83889445682E+02  0.86211122622E+03  0.60000463286E+03 0.  0.
        -24    2    4    4    0    0 -0.30779970022E+03  0.31727171072E+03  0.15695787256E+03  0.47610516509E+03  0.81476135064E+02 0.  0.
         24    2    4    4    0    0  0.22845618762E+03  0.29092017908E+03 -0.73068426881E+02  0.38600606112E+03  0.82673477955E+02 0.  0.
         13    1    3    3    0    0 -0.33335473285E-01 -0.22718914327E+03 -0.56345033462E+02  0.23407193494E+03  0.00000000000E+00 0. -1.
        -14    1    3    3    0    0  0.79376848072E+02 -0.38100274653E+03 -0.32171886496E+02  0.39051095651E+03  0.00000000000E+00 0.  1.
         15    1    5    5    0    0 -0.16431963259E+03  0.18335965702E+03  0.12867048851E+03  0.27781461053E+03  0.17770000000E+01 0. -1.
        -16    1    5    5    0    0 -0.14348006763E+03  0.13391205370E+03  0.28287384049E+02  0.19829055456E+03  0.00000000000E+00 0.  1.
          2    1    6    6  502    0  0.96143391587E+02  0.83522676574E+02 -0.56833648406E+02  0.13946201217E+03  0.00000000000E+00 0. -1.
         -1    1    6    6    0  502  0.13231279604E+03  0.20739750251E+03 -0.16234778475E+02  0.24654404895E+03  0.00000000000E+00 0.  1.
<mgrwt>
<rscale>  0 0.71611069E+03</rscale>
<asrwt>0</asrwt>
<pdfrwt beam="1">  1        1 0.11400513E+00 0.71611069E+03</pdfrwt>
<pdfrwt beam="2">  1       -2 0.11471705E+00 0.71611069E+03</pdfrwt>
<totfact> 0.13285468E+01</totfact>
</mgrwt>
</event>
<event>
12    3  0.1182097E-007  0.7280160E+03  0.7818608E-02  0.9670485E-01
         -2   -1    0    0    0  501 -0.00000000000E+00  0.00000000000E+00  0.50240201084E+03  0.50240201084E+03  0.00000000000E+00 0.  1.
          1   -1    0    0  501    0  0.00000000000E+00 -0.00000000000E+00 -0.15985539555E+04  0.15985539555E+04  0.00000000000E+00 0. -1.
        -24    2    1    2    0    0 -0.69163007884E+03  0.18674110035E+02 -0.32632266894E+02  0.69748542563E+03  0.81976617299E+02 0.  0.
    5000000    2    1    2    0    0  0.69163007884E+03 -0.18674110035E+02 -0.10635196777E+04  0.14034705407E+04  0.59996213658E+03 0.  0.
        -24    2    4    4    0    0  0.24633516267E+03 -0.15524474139E+03 -0.80260112838E+02  0.31254552645E+03  0.80380832863E+02 0.  0.
         24    2    4    4    0    0  0.44529491617E+03  0.13657063135E+03 -0.98325956490E+03  0.10909250142E+04  0.79868110245E+02 0.  0.
         11    1    3    3    0    0 -0.14122093051E+03 -0.22517345210E+02 -0.26868250236E+02  0.14550699269E+03  0.00000000000E+00 0. -1.
        -12    1    3    3    0    0 -0.55040914832E+03  0.41191455244E+02 -0.57640166584E+01  0.55197843294E+03  0.00000000000E+00 0.  1.
         15    1    5    5    0    0  0.30651307099E+02 -0.38898390875E+02 -0.41083046703E+02  0.64370504852E+02  0.17770000000E+01 0. -1.
        -16    1    5    5    0    0  0.21568385557E+03 -0.11634635051E+03 -0.39177066136E+02  0.24817502159E+03  0.00000000000E+00 0.  1.
          4    1    6    6  502    0  0.49813604054E+02  0.70509779018E+01 -0.17126936117E+03  0.17850575765E+03  0.00000000000E+00 0. -1.
         -3    1    6    6    0  502  0.39548131211E+03  0.12951965345E+03 -0.81199020373E+03  0.91241925660E+03  0.00000000000E+00 0.  1.
<mgrwt>
<rscale>  0 0.72801602E+03</rscale>
<asrwt>0</asrwt>
<pdfrwt beam="1">  1        1 0.24593138E+00 0.72801602E+03</pdfrwt>
<pdfrwt beam="2">  1       -2 0.77292617E-01 0.72801602E+03</pdfrwt>
<totfact> 0.76060880E+00</totfact>
</mgrwt>
</event>
<event>
12    3  0.1182097E-007  0.1127088E+04  0.7818608E-02  0.9179185E-01
          1   -1    0    0  501    0  0.00000000000E+00  0.00000000000E+00  0.16889600920E+04  0.16889600920E+04  0.00000000000E+00 0. -1.
         -2   -1    0    0    0  501 -0.00000000000E+00 -0.00000000000E+00 -0.99229259049E+03  0.99229259049E+03  0.00000000000E+00 0.  1.
        -24    2    1    2    0    0  0.64110300838E+03  0.86754712023E+03  0.92827667821E+03  0.14253707762E+04  0.79581312089E+02 0.  0.
    5000000    2    1    2    0    0 -0.64110300838E+03 -0.86754712023E+03 -0.23160917668E+03  0.12558819063E+04  0.59995456381E+03 0.  0.
        -24    2    4    4    0    0 -0.44919320864E+03 -0.22634841573E+03  0.77444324890E+02  0.51533404183E+03  0.81014857984E+02 0.  0.
         24    2    4    4    0    0 -0.19190979974E+03 -0.64119870450E+03 -0.30905350157E+03  0.74054786446E+03  0.70227650062E+02 0.  0.
         11    1    3    3    0    0  0.26124980507E+03  0.41943805709E+03  0.41609487686E+03  0.64599898679E+03  0.00000000000E+00 0. -1.
        -12    1    3    3    0    0  0.37985320331E+03  0.44810906314E+03  0.51218180134E+03  0.77937178943E+03  0.00000000000E+00 0.  1.
         15    1    5    5    0    0 -0.12770778779E+03 -0.65371175963E+02  0.59572667632E+02  0.15535356503E+03  0.17770000000E+01 0. -1.
        -16    1    5    5    0    0 -0.32148542085E+03 -0.16097723977E+03  0.17871657258E+02  0.35998047680E+03  0.00000000000E+00 0.  1.
          4    1    6    6  502    0 -0.13219574481E+03 -0.47107884746E+03 -0.19206914324E+03  0.52562491499E+03  0.00000000000E+00 0. -1.
         -3    1    6    6    0  502 -0.59714054928E+02 -0.17011985704E+03 -0.11698435833E+03  0.21492294947E+03  0.00000000000E+00 0.  1.
<mgrwt>
<rscale>  0 0.11270876E+04</rscale>
<asrwt>0</asrwt>
<pdfrwt beam="1">  1        1 0.25984001E+00 0.11270876E+04</pdfrwt>
<pdfrwt beam="2">  1       -2 0.15266040E+00 0.11270876E+04</pdfrwt>
<totfact> 0.11969849E+00</totfact>
</mgrwt>
</event>
<event>
12    3  0.1182097E-007  0.1859326E+04  0.7818608E-02  0.8675372E-01
         -2   -1    0    0    0  501 -0.00000000000E+00  0.00000000000E+00  0.14175504890E+04  0.14175504890E+04  0.00000000000E+00 0.  1.
          1   -1    0    0  501    0  0.00000000000E+00 -0.00000000000E+00 -0.25914801180E+04  0.25914801180E+04  0.00000000000E+00 0. -1.
        -24    2    1    2    0    0 -0.18322089391E+04  0.96117396928E+02 -0.20178571498E+03  0.18475918884E+04  0.81548518696E+02 0.  0.
    5000000    2    1    2    0    0  0.18322089391E+04 -0.96117396928E+02 -0.97214391401E+03  0.21614387185E+04  0.60043766860E+03 0.  0.
        -24    2    4    4    0    0  0.13607323906E+04 -0.24698908356E+03 -0.90734656274E+03  0.16560098199E+04  0.80588413849E+02 0.  0.
         24    2    4    4    0    0  0.47147654850E+03  0.15087168663E+03 -0.64797351271E+02  0.50542889863E+03  0.78786250229E+02 0.  0.
         11    1    3    3    0    0 -0.73384885339E+03  0.76508705038E+02 -0.68456787354E+02  0.74099531261E+03  0.00000000000E+00 0. -1.
        -12    1    3    3    0    0 -0.10983600857E+04  0.19608691890E+02 -0.13332892762E+03  0.11065965758E+04  0.00000000000E+00 0.  1.
         15    1    5    5    0    0  0.56377432470E+03 -0.78098753634E+02 -0.33551926892E+03  0.66069451493E+03  0.17770000000E+01 0. -1.
        -16    1    5    5    0    0  0.79695806592E+03 -0.16889032993E+03 -0.57182729382E+03  0.99531530499E+03  0.00000000000E+00 0.  1.
          4    1    6    6  502    0  0.16561533539E+03  0.82658048680E+02 -0.49874368395E+02  0.19169831755E+03  0.00000000000E+00 0. -1.
         -3    1    6    6    0  502  0.30586121311E+03  0.68213637954E+02 -0.14922982876E+02  0.31373058108E+03  0.00000000000E+00 0.  1.
<mgrwt>
<rscale>  0 0.18593258E+04</rscale>
<asrwt>0</asrwt>
<pdfrwt beam="1">  1        1 0.39868925E+00 0.18593258E+04</pdfrwt>
<pdfrwt beam="2">  1       -2 0.21808469E+00 0.18593258E+04</pdfrwt>
<totfact> 0.94345857E-02</totfact>
</mgrwt>
</event>
<event>
12    3  0.1182097E-007  0.1731568E+04  0.7818608E-02  0.8743562E-01
         -2   -1    0    0    0  501 -0.00000000000E+00  0.00000000000E+00  0.13276435745E+04  0.13276435745E+04  0.00000000000E+00 0.  1.
          1   -1    0    0  501    0  0.00000000000E+00 -0.00000000000E+00 -0.24264552570E+04  0.24264552570E+04  0.00000000000E+00 0. -1.
        -24    2    1    2    0    0  0.12898250836E+03  0.17230245695E+04 -0.77922501937E+03  0.18972987269E+04  0.84265495201E+02 0.  0.
    5000000    2    1    2    0    0 -0.12898250836E+03 -0.17230245695E+04 -0.31958666316E+03  0.18568001045E+04  0.60010069007E+03 0.  0.
        -24    2    4    4    0    0 -0.10146332060E+02 -0.81589416057E+03 -0.44102478925E+03  0.93044784251E+03  0.73784101239E+02 0.  0.
         24    2    4    4    0    0 -0.11883617630E+03 -0.90713040898E+03  0.12143812609E+03  0.92635226203E+03  0.79835325523E+02 0.  0.
         13    1    3    3    0    0  0.14955867896E+02  0.50544228854E+03 -0.19440676368E+03  0.54174678106E+03  0.00000000000E+00 0. -1.
        -14    1    3    3    0    0  0.11402664046E+03  0.12175822810E+04 -0.58481825569E+03  0.13555519459E+04  0.00000000000E+00 0.  1.
         15    1    5    5    0    0 -0.16207554775E+02 -0.39394453040E+03 -0.17325187634E+03  0.43066732898E+03  0.17770000000E+01 0. -1.
        -16    1    5    5    0    0  0.60612227159E+01 -0.42194963017E+03 -0.26777291291E+03  0.49978051353E+03  0.00000000000E+00 0.  1.
          4    1    6    6  502    0 -0.10608094960E+03 -0.50816907346E+03  0.63001310421E+02  0.52293225202E+03  0.00000000000E+00 0. -1.
         -3    1    6    6    0  502 -0.12755226701E+02 -0.39896133552E+03  0.58436815672E+02  0.40342001001E+03  0.00000000000E+00 0.  1.
<mgrwt>
<rscale>  0 0.17315684E+04</rscale>
<asrwt>0</asrwt>
<pdfrwt beam="1">  1        1 0.37330081E+00 0.17315684E+04</pdfrwt>
<pdfrwt beam="2">  1       -2 0.20425286E+00 0.17315684E+04</pdfrwt>
<totfact> 0.15304056E-01</totfact>
</mgrwt>
</event>
<event>
12    3  0.1182097E-007  0.5052883E+03  0.7818608E-02  0.1012408E+00
          1   -1    0    0  501    0  0.00000000000E+00  0.00000000000E+00  0.83354710413E+03  0.83354710413E+03  0.00000000000E+00 0. -1.
         -2   -1    0    0    0  501 -0.00000000000E+00 -0.00000000000E+00 -0.41932143955E+03  0.41932143955E+03  0.00000000000E+00 0.  1.
        -24    2    1    2    0    0  0.12276746185E+01 -0.42457198811E+03  0.56563385040E+02  0.43547521906E+03  0.78589882403E+02 0.  0.
    5000000    2    1    2    0    0 -0.12276746185E+01  0.42457198811E+03  0.35766227955E+03  0.81739332462E+03  0.59995554890E+03 0.  0.
        -24    2    4    4    0    0 -0.17156611444E+03  0.36104830375E+03  0.44241727043E+03  0.60112617676E+03  0.76346774339E+02 0.  0.
         24    2    4    4    0    0  0.17033843982E+03  0.63523684351E+02 -0.84754990877E+02  0.21626714786E+03  0.80855600998E+02 0.  0.
         13    1    3    3    0    0  0.12437735686E+02 -0.14181635587E+03 -0.16235015856E+02  0.14328346660E+03  0.00000000000E+00 0. -1.
        -14    1    3    3    0    0 -0.11210061068E+02 -0.28275563223E+03  0.72798400896E+02  0.29219175245E+03  0.00000000000E+00 0.  1.
         15    1    5    5    0    0 -0.71947019408E+02  0.17600526280E+03  0.26459549385E+03  0.32583455807E+03  0.17770000000E+01 0. -1.
        -16    1    5    5    0    0 -0.99619095027E+02  0.18504304096E+03  0.17782177657E+03  0.27529161870E+03  0.00000000000E+00 0.  1.
          2    1    6    6  502    0  0.70188575226E+01 -0.41428295254E+01 -0.30166877283E+02  0.31248486082E+02  0.00000000000E+00 0. -1.
         -1    1    6    6    0  502  0.16331958229E+03  0.67666513876E+02 -0.54588113594E+02  0.18501866178E+03  0.00000000000E+00 0.  1.
<mgrwt>
<rscale>  0 0.50528833E+03</rscale>
<asrwt>0</asrwt>
<pdfrwt beam="1">  1        1 0.12823802E+00 0.50528833E+03</pdfrwt>
<pdfrwt beam="2">  1       -2 0.64510991E-01 0.50528833E+03</pdfrwt>
<totfact> 0.42083689E+01</totfact>
</mgrwt>
</event>
<event>
12    3  0.1182097E-007  0.5614733E+03  0.7818608E-02  0.9988727E-01
          1   -1    0    0  501    0  0.00000000000E+00  0.00000000000E+00  0.98771968548E+03  0.98771968548E+03  0.00000000000E+00 0. -1.
         -2   -1    0    0    0  501 -0.00000000000E+00 -0.00000000000E+00 -0.42712387199E+03  0.42712387199E+03  0.00000000000E+00 0.  1.
        -24    2    1    2    0    0 -0.15096761547E+02 -0.42054274116E+03  0.52957431186E+03  0.68123579398E+03  0.80926793228E+02 0.  0.
    5000000    2    1    2    0    0  0.15096761547E+02  0.42054274116E+03  0.31021501631E+02  0.73360776349E+03  0.60011157940E+03 0.  0.
        -24    2    4    4    0    0  0.27479392454E+03  0.13026073977E+03 -0.73327224366E+02  0.32257769409E+03  0.78739606320E+02 0.  0.
         24    2    4    4    0    0 -0.25969716299E+03  0.29028200140E+03  0.10434872600E+03  0.41103006939E+03  0.79691935128E+02 0.  0.
         13    1    3    3    0    0 -0.23242420110E+02 -0.38062211209E+03  0.50780117947E+03  0.63503971543E+03  0.00000000000E+00 0. -1.
        -14    1    3    3    0    0  0.81456585625E+01 -0.39920629073E+02  0.21773132387E+02  0.46196078546E+02  0.00000000000E+00 0.  1.
         15    1    5    5    0    0  0.16963483873E+03  0.66459228158E+02 -0.58660677597E+01  0.18229200750E+03  0.17770000000E+01 0. -1.
        -16    1    5    5    0    0  0.10515908581E+03  0.63801511607E+02 -0.67461156607E+02  0.14028568659E+03  0.00000000000E+00 0.  1.
          4    1    6    6  502    0 -0.15649148666E+03  0.12268716529E+03  0.72452027725E+02  0.21163889587E+03  0.00000000000E+00 0. -1.
         -1    1    6    6    0  502 -0.10320567633E+03  0.16759483611E+03  0.31896698272E+02  0.19939117352E+03  0.00000000000E+00 0.  1.
<mgrwt>
<rscale>  0 0.56147328E+03</rscale>
<asrwt>0</asrwt>
<pdfrwt beam="1">  1        1 0.15195687E+00 0.56147328E+03</pdfrwt>
<pdfrwt beam="2">  1       -2 0.65711365E-01 0.56147328E+03</pdfrwt>
<totfact> 0.30210942E+01</totfact>
</mgrwt>
</event>
<event>
12    3  0.1182097E-007  0.5154196E+03  0.7818608E-02  0.1009831E+00
          1   -1    0    0  501    0  0.00000000000E+00  0.00000000000E+00  0.12378594831E+04  0.12378594831E+04  0.00000000000E+00 0. -1.
         -2   -1    0    0    0  501 -0.00000000000E+00 -0.00000000000E+00 -0.29877893531E+03  0.29877893531E+03  0.00000000000E+00 0.  1.
        -24    2    1    2    0    0  0.40315917547E+03  0.12627909057E+03  0.57536280676E+03  0.71766954998E+03  0.74320213190E+02 0.  0.
    5000000    2    1    2    0    0 -0.40315917547E+03 -0.12627909057E+03  0.36371774106E+03  0.81896886846E+03  0.59994640000E+03 0.  0.
        -24    2    4    4    0    0 -0.45565516470E+03 -0.18839202636E+03  0.70524949680E+02  0.50461525457E+03  0.80929610789E+02 0.  0.
         24    2    4    4    0    0  0.52495989234E+02  0.62112935790E+02  0.29319279138E+03  0.31435361389E+03  0.79008455066E+02 0.  0.
         11    1    3    3    0    0  0.58270534020E+02  0.70080738766E+01  0.12438508618E+03  0.13753624212E+03  0.00000000000E+00 0. -1.
        -12    1    3    3    0    0  0.34488864145E+03  0.11927101669E+03  0.45097772058E+03  0.58013330785E+03  0.00000000000E+00 0.  1.
         15    1    5    5    0    0 -0.23514403493E+03 -0.13204104079E+03  0.62722424421E+02  0.27688411632E+03  0.17770000000E+01 0. -1.
        -16    1    5    5    0    0 -0.22051112978E+03 -0.56350985565E+02  0.78025252593E+01  0.22773113825E+03  0.00000000000E+00 0.  1.
          2    1    6    6  502    0  0.29125866715E+01  0.60246272981E+02  0.19831265132E+03  0.20728242628E+03  0.00000000000E+00 0. -1.
         -1    1    6    6    0  502  0.49583402563E+02  0.18666628082E+01  0.94880140055E+02  0.10707118761E+03  0.00000000000E+00 0.  1.
<mgrwt>
<rscale>  0 0.51541957E+03</rscale>
<asrwt>0</asrwt>
<pdfrwt beam="1">  1        1 0.19043992E+00 0.51541957E+03</pdfrwt>
<pdfrwt beam="2">  1       -2 0.45965991E-01 0.51541957E+03</pdfrwt>
<totfact> 0.41588699E+01</totfact>
</mgrwt>
</event>
<event>
12    3  0.1182097E-007  0.9691214E+03  0.7818608E-02  0.9343076E-01
         -2   -1    0    0    0  501 -0.00000000000E+00  0.00000000000E+00  0.13721022647E+04  0.13721022647E+04  0.00000000000E+00 0.  1.
          1   -1    0    0  501    0  0.00000000000E+00 -0.00000000000E+00 -0.81695900375E+03  0.81695900375E+03  0.00000000000E+00 0. -1.
        -24    2    1    2    0    0  0.57243159217E+03 -0.68549699825E+03 -0.14089883970E+03  0.90766452983E+03  0.80114626367E+02 0.  0.
    5000000    2    1    2    0    0 -0.57243159217E+03  0.68549699825E+03  0.69604210064E+03  0.12813967386E+04  0.59993244083E+03 0.  0.
        -24    2    4    4    0    0 -0.65636538336E+03  0.69483459519E+03  0.62513828837E+03  0.11448167733E+04  0.78720606000E+02 0.  0.
         24    2    4    4    0    0  0.83933791196E+02 -0.93375969370E+01  0.70903812274E+02  0.13657996527E+03  0.80589480071E+02 0.  0.
         11    1    3    3    0    0  0.50598429389E+03 -0.56051544613E+03 -0.11887597872E+03  0.76441426552E+03  0.00000000000E+00 0. -1.
        -12    1    3    3    0    0  0.66447298276E+02 -0.12498155212E+03 -0.22022860981E+02  0.14325026430E+03  0.00000000000E+00 0.  1.
         15    1    5    5    0    0 -0.30085080205E+03  0.31903069259E+03  0.33376897170E+03  0.55108680996E+03  0.17770000000E+01 0. -1.
        -16    1    5    5    0    0 -0.35551458131E+03  0.37580390260E+03  0.29136931667E+03  0.59372996339E+03  0.00000000000E+00 0.  1.
          4    1    6    6  502    0  0.26816643523E+02 -0.10016330943E+02  0.74031409760E+02  0.79373225249E+02  0.00000000000E+00 0. -1.
         -3    1    6    6    0  502  0.57117147673E+02  0.67873400626E+00 -0.31275974864E+01  0.57206740024E+02  0.00000000000E+00 0.  1.
<mgrwt>
<rscale>  0 0.96912136E+03</rscale>
<asrwt>0</asrwt>
<pdfrwt beam="1">  1        1 0.12568600E+00 0.96912136E+03</pdfrwt>
<pdfrwt beam="2">  1       -2 0.21109266E+00 0.96912136E+03</pdfrwt>
<totfact> 0.21128936E+00</totfact>
</mgrwt>
</event>
<event>
12    3  0.1182097E-007  0.5581320E+03  0.7818608E-02  0.9996290E-01
          1   -1    0    0  501    0  0.00000000000E+00  0.00000000000E+00  0.60340544139E+03  0.60340544139E+03  0.00000000000E+00 0. -1.
         -2   -1    0    0    0  501 -0.00000000000E+00 -0.00000000000E+00 -0.11892965243E+04  0.11892965243E+04  0.00000000000E+00 0.  1.
        -24    2    1    2    0    0  0.38945155457E+02 -0.40304565437E+03  0.39696105584E+03  0.57186168490E+03  0.74062015705E+02 0.  0.
    5000000    2    1    2    0    0 -0.38945155457E+02  0.40304565437E+03 -0.98285213875E+03  0.12208402808E+04  0.60040831100E+03 0.  0.
        -24    2    4    4    0    0 -0.29728700283E+03  0.29877273948E+03 -0.51338270137E+03  0.66887290799E+03  0.78641319115E+02 0.  0.
         24    2    4    4    0    0  0.25834184738E+03  0.10427291489E+03 -0.46946943738E+03  0.55196737280E+03  0.81566396947E+02 0.  0.
         11    1    3    3    0    0  0.23395282192E+01 -0.32849033410E+03  0.32145389325E+03  0.45961285717E+03  0.00000000000E+00 0. -1.
        -12    1    3    3    0    0  0.36605627238E+02 -0.74555320267E+02  0.75507162588E+02  0.11224882773E+03  0.00000000000E+00 0.  1.
         15    1    5    5    0    0 -0.93174295038E+02  0.13403094381E+03 -0.15810674428E+03  0.22725897885E+03  0.17770000000E+01 0. -1.
        -16    1    5    5    0    0 -0.20411270780E+03  0.16474179568E+03 -0.35527595709E+03  0.44161392914E+03  0.00000000000E+00 0.  1.
          4    1    6    6  502    0  0.16681574233E+03  0.76458625449E+02 -0.23092364609E+03  0.29495617236E+03  0.00000000000E+00 0. -1.
         -3    1    6    6    0  502  0.91526105048E+02  0.27814289436E+02 -0.23854579130E+03  0.25701120043E+03  0.00000000000E+00 0.  1.
<mgrwt>
<rscale>  0 0.55813197E+03</rscale>
<asrwt>0</asrwt>
<pdfrwt beam="1">  1        1 0.92831607E-01 0.55813197E+03</pdfrwt>
<pdfrwt beam="2">  1       -2 0.18296869E+00 0.55813197E+03</pdfrwt>
<totfact> 0.54136292E+00</totfact>
</mgrwt>
</event>
<event>
12    3  0.1182097E-007  0.4978367E+03  0.7818608E-02  0.1014345E+00
         -2   -1    0    0    0  501 -0.00000000000E+00  0.00000000000E+00  0.42852532732E+03  0.42852532732E+03  0.00000000000E+00 0.  1.
          1   -1    0    0  501    0  0.00000000000E+00 -0.00000000000E+00 -0.63362808989E+03  0.63362808989E+03  0.00000000000E+00 0. -1.
        -24    2    1    2    0    0  0.29292887415E+03 -0.17324833917E+03 -0.30142976467E+02  0.35054688666E+03  0.78436014553E+02 0.  0.
    5000000    2    1    2    0    0 -0.29292887415E+03  0.17324833917E+03 -0.17495978611E+03  0.71160653055E+03  0.59995884461E+03 0.  0.
        -24    2    4    4    0    0 -0.83669227843E+02  0.35465856446E+03  0.63624023418E+01  0.37125369932E+03  0.70750208913E+02 0.  0.
         24    2    4    4    0    0 -0.20925964631E+03 -0.18141022529E+03 -0.18132218845E+03  0.34035283123E+03  0.79139397827E+02 0.  0.
         13    1    3    3    0    0  0.38005169061E+02 -0.57823212747E+02 -0.10687270156E+01  0.69203027283E+02  0.00000000000E+00 0. -1.
        -14    1    3    3    0    0  0.25492370509E+03 -0.11542512642E+03 -0.29074249451E+02  0.28134385938E+03  0.00000000000E+00 0.  1.
         15    1    5    5    0    0 -0.70793662330E+02  0.24486721137E+03  0.34392986427E+02  0.25721144818E+03  0.17770000000E+01 0. -1.
        -16    1    5    5    0    0 -0.12875565512E+02  0.10979135309E+03 -0.28030584085E+02  0.11404225114E+03  0.00000000000E+00 0.  1.
          4    1    6    6  502    0 -0.60091398789E+02 -0.83079363130E+02 -0.31722484929E+02  0.10732880711E+03  0.00000000000E+00 0. -1.
         -3    1    6    6    0  502 -0.14916824752E+03 -0.98330862161E+02 -0.14959970352E+03  0.23302402412E+03  0.00000000000E+00 0.  1.
<mgrwt>
<rscale>  0 0.49783673E+03</rscale>
<asrwt>0</asrwt>
<pdfrwt beam="1">  1        1 0.97481244E-01 0.49783673E+03</pdfrwt>
<pdfrwt beam="2">  1       -2 0.65926974E-01 0.49783673E+03</pdfrwt>
<totfact> 0.60983550E+01</totfact>
</mgrwt>
</event>
<event>
12    3  0.1182097E-007  0.4174094E+03  0.7818608E-02  0.1037913E+00
          1   -1    0    0  501    0  0.00000000000E+00  0.00000000000E+00  0.37485868452E+03  0.37485868452E+03  0.00000000000E+00 0. -1.
         -2   -1    0    0    0  501 -0.00000000000E+00 -0.00000000000E+00 -0.49680691088E+03  0.49680691088E+03  0.00000000000E+00 0.  1.
        -24    2    1    2    0    0  0.17874906944E+03  0.11360986600E+03 -0.11353142286E+02  0.22596860807E+03  0.77938992259E+02 0.  0.
    5000000    2    1    2    0    0 -0.17874906944E+03 -0.11360986600E+03 -0.11059508408E+03  0.64569698733E+03  0.59986239701E+03 0.  0.
        -24    2    4    4    0    0 -0.19101377432E+03 -0.33174216377E+03 -0.10615891124E+02  0.39240032081E+03  0.85593162253E+02 0.  0.
         24    2    4    4    0    0  0.12264704879E+02  0.21813229777E+03 -0.99979192952E+02  0.25329666652E+03  0.80195011887E+02 0.  0.
         13    1    3    3    0    0  0.81350851347E+02  0.75840369519E+01 -0.50125620126E+01  0.81857219652E+02  0.00000000000E+00 0. -1.
        -14    1    3    3    0    0  0.97398218095E+02  0.10602582905E+03 -0.63405802732E+01  0.14411138842E+03  0.00000000000E+00 0.  1.
         15    1    5    5    0    0 -0.92035822898E+02 -0.12611817616E+03 -0.42891407507E+02  0.16192349311E+03  0.17770000000E+01 0. -1.
        -16    1    5    5    0    0 -0.98977951423E+02 -0.20562398761E+03  0.32275516383E+02  0.23047682770E+03  0.00000000000E+00 0.  1.
          4    1    6    6  502    0 -0.20832314817E+02  0.98014991603E+02 -0.77532127285E+02  0.12669709816E+03  0.00000000000E+00 0. -1.
         -3    1    6    6    0  502  0.33097019696E+02  0.12011730617E+03 -0.22447065667E+02  0.12659956837E+03  0.00000000000E+00 0.  1.
<mgrwt>
<rscale>  0 0.41740938E+03</rscale>
<asrwt>0</asrwt>
<pdfrwt beam="1">  1        1 0.57670567E-01 0.41740938E+03</pdfrwt>
<pdfrwt beam="2">  1       -2 0.76431832E-01 0.41740938E+03</pdfrwt>
<totfact> 0.90811239E+01</totfact>
</mgrwt>
</event>
<event>
12    3  0.1182097E-007  0.3679786E+03  0.7818608E-02  0.1055469E+00
         -2   -1    0    0    0  501 -0.00000000000E+00  0.00000000000E+00  0.71646504842E+02  0.71646504842E+02  0.00000000000E+00 0.  1.
          1   -1    0    0  501    0  0.00000000000E+00 -0.00000000000E+00 -0.24456521526E+04  0.24456521526E+04  0.00000000000E+00 0. -1.
        -24    2    1    2    0    0 -0.99277366106E+02 -0.89931565198E+02 -0.99855541390E+03  0.10107324147E+04  0.80767677673E+02 0.  0.
    5000000    2    1    2    0    0  0.99277366106E+02  0.89931565198E+02 -0.13754502339E+04  0.15065662427E+04  0.59994567752E+03 0.  0.
        -24    2    4    4    0    0 -0.49818753742E+02  0.30931176030E+03 -0.57995952379E+03  0.66401532582E+03  0.80047675853E+02 0.  0.
         24    2    4    4    0    0  0.14909611985E+03 -0.21938019510E+03 -0.79549071011E+03  0.84255091691E+03  0.82032034990E+02 0.  0.
         13    1    3    3    0    0 -0.63368066315E+02 -0.89347742128E+02 -0.88182302104E+03  0.88860023143E+03  0.00000000000E+00 0. -1.
        -14    1    3    3    0    0 -0.35909299792E+02 -0.58382307038E+00 -0.11673239286E+03  0.12213218332E+03  0.00000000000E+00 0.  1.
         15    1    5    5    0    0 -0.60124509876E+02  0.17076192283E+03 -0.37484652647E+03  0.41627835292E+03  0.17770000000E+01 0. -1.
        -16    1    5    5    0    0  0.10305756134E+02  0.13854983747E+03 -0.20511299732E+03  0.24773697290E+03  0.00000000000E+00 0.  1.
          4    1    6    6  502    0  0.13751478070E+03 -0.16435767845E+03 -0.69630687246E+03  0.72853759135E+03  0.00000000000E+00 0. -1.
         -3    1    6    6    0  502  0.11581339151E+02 -0.55022516648E+02 -0.99183837649E+02  0.11401332556E+03  0.00000000000E+00 0.  1.
<mgrwt>
<rscale>  0 0.36797858E+03</rscale>
<asrwt>0</asrwt>
<pdfrwt beam="1">  1        1 0.37625411E+00 0.36797858E+03</pdfrwt>
<pdfrwt beam="2">  1       -2 0.11022541E-01 0.36797858E+03</pdfrwt>
<totfact> 0.84005054E+01</totfact>
</mgrwt>
</event>
<event>
12    3  0.1182097E-007  0.1007603E+04  0.7818608E-02  0.9300245E-01
         -2   -1    0    0    0  501 -0.00000000000E+00  0.00000000000E+00  0.12556519900E+04  0.12556519900E+04  0.00000000000E+00 0.  1.
          1   -1    0    0  501    0  0.00000000000E+00 -0.00000000000E+00 -0.85940965750E+03  0.85940965750E+03  0.00000000000E+00 0. -1.
        -24    2    1    2    0    0  0.17573139890E+03 -0.91456617482E+03 -0.10650138041E+02  0.93474860879E+03  0.79553274630E+02 0.  0.
    5000000    2    1    2    0    0 -0.17573139890E+03  0.91456617482E+03  0.40689247054E+03  0.11803130387E+04  0.60022043792E+03 0.  0.
        -24    2    4    4    0    0 -0.54413251397E+02  0.94269882463E+03  0.28593740762E+03  0.99018361831E+03  0.84032856758E+02 0.  0.
         24    2    4    4    0    0 -0.12131814750E+03 -0.28132649807E+02  0.12095506292E+03  0.19012942040E+03  0.77521160730E+02 0.  0.
         11    1    3    3    0    0  0.14249949915E+03 -0.79294604791E+03  0.16336583647E+02  0.80581413869E+03  0.00000000000E+00 0. -1.
        -12    1    3    3    0    0  0.33231899751E+02 -0.12162012691E+03 -0.26986721688E+02  0.12893447010E+03  0.00000000000E+00 0.  1.
         15    1    5    5    0    0 -0.34257166268E+02  0.11669612975E+03  0.31500409300E+02  0.12564622420E+03  0.17770000000E+01 0. -1.
        -16    1    5    5    0    0 -0.20156085129E+02  0.82600269488E+03  0.25443699832E+03  0.86453739412E+03  0.00000000000E+00 0.  1.
          2    1    6    6  502    0 -0.10032358457E+03  0.21207407011E+00  0.52757836000E+02  0.11335014714E+03  0.00000000000E+00 0. -1.
         -1    1    6    6    0  502 -0.20994562924E+02 -0.28344723877E+02  0.68197226916E+02  0.76779273265E+02  0.00000000000E+00 0.  1.
<mgrwt>
<rscale>  0 0.10076031E+04</rscale>
<asrwt>0</asrwt>
<pdfrwt beam="1">  1        1 0.13221687E+00 0.10076031E+04</pdfrwt>
<pdfrwt beam="2">  1       -2 0.19317723E+00 0.10076031E+04</pdfrwt>
<totfact> 0.25328142E+00</totfact>
</mgrwt>
</event>
<event>
12    3  0.1182097E-007  0.1055535E+04  0.7818608E-02  0.9249648E-01
          1   -1    0    0  501    0  0.00000000000E+00  0.00000000000E+00  0.13048353464E+04  0.13048353464E+04  0.00000000000E+00 0. -1.
         -2   -1    0    0    0  501 -0.00000000000E+00 -0.00000000000E+00 -0.98137440956E+03  0.98137440956E+03  0.00000000000E+00 0.  1.
        -24    2    1    2    0    0  0.10224216715E+04  0.21883215148E+03  0.25175666938E+03  0.10785605342E+04  0.81717932852E+02 0.  0.
    5000000    2    1    2    0    0 -0.10224216715E+04 -0.21883215148E+03  0.71704267482E+02  0.12076492218E+04  0.60003462903E+03 0.  0.
        -24    2    4    4    0    0 -0.71637280132E+03 -0.68378207297E+02 -0.21464255267E+03  0.75528691018E+03  0.80754700024E+02 0.  0.
         24    2    4    4    0    0 -0.30604887017E+03 -0.15045394419E+03  0.28634682015E+03  0.45236231159E+03  0.79591829281E+02 0.  0.
         11    1    3    3    0    0  0.92425412613E+03  0.20236903918E+03  0.20282421269E+03  0.96764486200E+03  0.00000000000E+00 0. -1.
        -12    1    3    3    0    0  0.98167545351E+02  0.16463112300E+02  0.48932456682E+02  0.11091567222E+03  0.00000000000E+00 0.  1.
         15    1    5    5    0    0 -0.30555145910E+03 -0.50026992673E+02 -0.12793164381E+03  0.33501351819E+03  0.17770000000E+01 0. -1.
        -16    1    5    5    0    0 -0.41082134222E+03 -0.18351214624E+02 -0.86710908852E+02  0.42027339199E+03  0.00000000000E+00 0.  1.
          4    1    6    6  502    0 -0.13245656113E+03 -0.92330653105E+02  0.94024181193E+02  0.18684281291E+03  0.00000000000E+00 0. -1.
         -3    1    6    6    0  502 -0.17359230904E+03 -0.58123291083E+02  0.19232263896E+03  0.26551949868E+03  0.00000000000E+00 0.  1.
<mgrwt>
<rscale>  0 0.10555347E+04</rscale>
<asrwt>0</asrwt>
<pdfrwt beam="1">  1        1 0.20074390E+00 0.10555347E+04</pdfrwt>
<pdfrwt beam="2">  1       -2 0.15098068E+00 0.10555347E+04</pdfrwt>
<totfact> 0.22958513E+00</totfact>
</mgrwt>
</event>
<event>
12    3  0.1182097E-007  0.7097464E+03  0.7818608E-02  0.9700708E-01
          1   -1    0    0  501    0  0.00000000000E+00  0.00000000000E+00  0.11305134260E+04  0.11305134260E+04  0.00000000000E+00 0. -1.
         -2   -1    0    0    0  501 -0.00000000000E+00 -0.00000000000E+00 -0.49203942920E+03  0.49203942920E+03  0.00000000000E+00 0.  1.
        -24    2    1    2    0    0 -0.59874709280E+03  0.22247154611E+02  0.45053824676E+03  0.75401545209E+03  0.81003538030E+02 0.  0.
    5000000    2    1    2    0    0  0.59874709280E+03 -0.22247154611E+02  0.18793575002E+03  0.86853740309E+03  0.60003696336E+03 0.  0.
        -24    2    4    4    0    0  0.24680934285E+03 -0.27857417958E+03  0.19087577489E+03  0.42576598811E+03  0.79527919294E+02 0.  0.
         24    2    4    4    0    0  0.35193774996E+03  0.25632702497E+03 -0.29400248708E+01  0.44277141497E+03  0.80462156288E+02 0.  0.
         11    1    3    3    0    0 -0.12011010966E+03  0.20850893203E+02  0.58009343246E+02  0.13500474841E+03  0.00000000000E+00 0. -1.
        -12    1    3    3    0    0 -0.47863698314E+03  0.13962614077E+01  0.39252890352E+03  0.61901070368E+03  0.00000000000E+00 0.  1.
         15    1    5    5    0    0  0.82811945870E+02 -0.14852696808E+03  0.10255601483E+03  0.19859247854E+03  0.17770000000E+01 0. -1.
        -16    1    5    5    0    0  0.16399739698E+03 -0.13004721151E+03  0.88319760058E+02  0.22717350957E+03  0.00000000000E+00 0.  1.
          2    1    6    6  502    0  0.87271732182E+02  0.33065128502E+02  0.21099037968E+02  0.95680862058E+02  0.00000000000E+00 0. -1.
         -1    1    6    6    0  502  0.26466601777E+03  0.22326189647E+03 -0.24039062839E+02  0.34709055291E+03  0.00000000000E+00 0.  1.
<mgrwt>
<rscale>  0 0.70974643E+03</rscale>
<asrwt>0</asrwt>
<pdfrwt beam="1">  1        1 0.17392514E+00 0.70974643E+03</pdfrwt>
<pdfrwt beam="2">  1       -2 0.75698374E-01 0.70974643E+03</pdfrwt>
<totfact> 0.16998421E+01</totfact>
</mgrwt>
</event>
<event>
12    3  0.1182097E-007  0.3462454E+03  0.7818608E-02  0.1064167E+00
          1   -1    0    0  501    0  0.00000000000E+00  0.00000000000E+00  0.40449820478E+03  0.40449820478E+03  0.00000000000E+00 0. -1.
         -2   -1    0    0    0  501 -0.00000000000E+00 -0.00000000000E+00 -0.65863092037E+03  0.65863092037E+03  0.00000000000E+00 0.  1.
        -24    2    1    2    0    0  0.22703299221E+03  0.20074437259E+03 -0.23342167580E+03  0.39077229985E+03  0.79843778199E+02 0.  0.
    5000000    2    1    2    0    0 -0.22703299221E+03 -0.20074437259E+03 -0.20711039796E+02  0.67235682530E+03  0.59982703397E+03 0.  0.
        -24    2    4    4    0    0 -0.20762357614E+03 -0.51192210604E+02  0.25909781382E+03  0.34510887976E+03  0.78995379425E+02 0.  0.
         24    2    4    4    0    0 -0.19409416075E+02 -0.14955216198E+03 -0.27980885361E+03  0.32724794554E+03  0.77818048786E+02 0.  0.
         13    1    3    3    0    0  0.55188603129E+02  0.94134409740E+01 -0.36011504824E+02  0.66567433975E+02  0.00000000000E+00 0. -1.
        -14    1    3    3    0    0  0.17184438908E+03  0.19133093161E+03 -0.19741017098E+03  0.32420486587E+03  0.00000000000E+00 0.  1.
         15    1    5    5    0    0 -0.14083310214E+03 -0.34497228892E+02  0.22648717984E+03  0.26893051485E+03  0.17770000000E+01 0. -1.
        -16    1    5    5    0    0 -0.66790474002E+02 -0.16694981713E+02  0.32610633979E+02  0.76178364910E+02  0.00000000000E+00 0.  1.
          2    1    6    6  502    0 -0.44408135925E+02 -0.78959140770E+02 -0.11641470868E+03  0.14750936528E+03  0.00000000000E+00 0. -1.
         -1    1    6    6    0  502  0.24998719850E+02 -0.70593021211E+02 -0.16339414493E+03  0.17973858026E+03  0.00000000000E+00 0.  1.
<mgrwt>
<rscale>  0 0.34624541E+03</rscale>
<asrwt>0</asrwt>
<pdfrwt beam="1">  1        1 0.62230493E-01 0.34624541E+03</pdfrwt>
<pdfrwt beam="2">  1       -2 0.10132783E+00 0.34624541E+03</pdfrwt>
<totfact> 0.43665949E+01</totfact>
</mgrwt>
</event>
<event>
12    3  0.1182097E-007  0.3465888E+03  0.7818608E-02  0.1064024E+00
         -2   -1    0    0    0  501 -0.00000000000E+00  0.00000000000E+00  0.73238461910E+03  0.73238461910E+03  0.00000000000E+00 0.  1.
          1   -1    0    0  501    0  0.00000000000E+00 -0.00000000000E+00 -0.30268469569E+03  0.30268469569E+03  0.00000000000E+00 0. -1.
        -24    2    1    2    0    0 -0.25074097096E+03 -0.43151620591E+02  0.23665796726E+03  0.35548705972E+03  0.75039718029E+02 0.  0.
    5000000    2    1    2    0    0  0.25074097096E+03  0.43151620591E+02  0.19304195614E+03  0.67958225507E+03  0.59986144041E+03 0.  0.
        -24    2    4    4    0    0  0.17305142756E+02 -0.12407687340E+03  0.32175695053E+03  0.35484106806E+03  0.81793091948E+02 0.  0.
         24    2    4    4    0    0  0.23343582821E+03  0.16722849400E+03 -0.12871499438E+03  0.32474118701E+03  0.80197466701E+02 0.  0.
         13    1    3    3    0    0 -0.24221492014E+03 -0.24087332255E+02  0.20897137632E+03  0.32080726805E+03  0.00000000000E+00 0. -1.
        -14    1    3    3    0    0 -0.85260508269E+01 -0.19064288337E+02  0.27686590943E+02  0.34679791674E+02  0.00000000000E+00 0.  1.
         15    1    5    5    0    0 -0.94397600869E+01 -0.11176918507E+03  0.19742567125E+03  0.22707160368E+03  0.17770000000E+01 0. -1.
        -16    1    5    5    0    0  0.26744902843E+02 -0.12307688331E+02  0.12433127928E+03  0.12776946438E+03  0.00000000000E+00 0.  1.
          2    1    6    6  502    0  0.10616712336E+03  0.71252285470E+02 -0.10101958921E+03  0.16295184464E+03  0.00000000000E+00 0. -1.
         -1    1    6    6    0  502  0.12726870485E+03  0.95976208526E+02 -0.27695405177E+02  0.16178934237E+03  0.00000000000E+00 0.  1.
<mgrwt>
<rscale>  0 0.34658883E+03</rscale>
<asrwt>0</asrwt>
<pdfrwt beam="1">  1        1 0.46566876E-01 0.34658883E+03</pdfrwt>
<pdfrwt beam="2">  1       -2 0.11267456E+00 0.34658883E+03</pdfrwt>
<totfact> 0.49228886E+01</totfact>
</mgrwt>
</event>
<event>
12    3  0.1182097E-007  0.9592449E+03  0.7818608E-02  0.9354409E-01
         -2   -1    0    0    0  501 -0.00000000000E+00  0.00000000000E+00  0.51470055193E+03  0.51470055193E+03  0.00000000000E+00 0.  1.
          1   -1    0    0  501    0  0.00000000000E+00 -0.00000000000E+00 -0.19763861852E+04  0.19763861852E+04  0.00000000000E+00 0. -1.
        -24    2    1    2    0    0 -0.11177642024E+02 -0.89136910333E+03 -0.40056751471E+03  0.98087213082E+03  0.83618090935E+02 0.  0.
    5000000    2    1    2    0    0  0.11177642024E+02  0.89136910333E+03 -0.10611181185E+04  0.15102146063E+04  0.60009389058E+03 0.  0.
        -24    2    4    4    0    0 -0.16709838501E+02 -0.64116250721E+02 -0.15260679134E+03  0.18903850658E+03  0.89758631322E+02 0.  0.
         24    2    4    4    0    0  0.27887480525E+02  0.95548535405E+03 -0.90851132719E+03  0.13211760997E+04  0.79896692273E+02 0.  0.
         11    1    3    3    0    0 -0.30536739122E+02 -0.44516958586E+03 -0.23694452173E+03  0.50522387017E+03  0.00000000000E+00 0. -1.
        -12    1    3    3    0    0  0.19359097098E+02 -0.44619951747E+03 -0.16362299298E+03  0.47564826065E+03  0.00000000000E+00 0.  1.
         15    1    5    5    0    0 -0.52075183431E+01 -0.30449722456E+02  0.14012102824E+01  0.30974585779E+02  0.17770000000E+01 0. -1.
        -16    1    5    5    0    0 -0.11502320158E+02 -0.33666528264E+02 -0.15400800162E+03  0.15806392080E+03  0.00000000000E+00 0.  1.
          4    1    6    6  502    0  0.54265257786E+02  0.51252721765E+03 -0.49723974473E+03  0.71615377593E+03  0.00000000000E+00 0. -1.
         -3    1    6    6    0  502 -0.26377777261E+02  0.44295813640E+03 -0.41127158246E+03  0.60502232378E+03  0.00000000000E+00 0.  1.
<mgrwt>
<rscale>  0 0.95924493E+03</rscale>
<asrwt>0</asrwt>
<pdfrwt beam="1">  1        1 0.30405942E+00 0.95924493E+03</pdfrwt>
<pdfrwt beam="2">  1       -2 0.79184699E-01 0.95924493E+03</pdfrwt>
<totfact> 0.38868277E+00</totfact>
</mgrwt>
</event>
<event>
12    3  0.1182097E-007  0.7509977E+03  0.7818608E-02  0.9633786E-01
          1   -1    0    0  501    0  0.00000000000E+00  0.00000000000E+00  0.14002830644E+04  0.14002830644E+04  0.00000000000E+00 0. -1.
         -2   -1    0    0    0  501 -0.00000000000E+00 -0.00000000000E+00 -0.64090925031E+03  0.64090925031E+03  0.00000000000E+00 0.  1.
        -24    2    1    2    0    0 -0.45155753148E+03 -0.46927138741E+03  0.93062190452E+03  0.11391586958E+04  0.86634667832E+02 0.  0.
    5000000    2    1    2    0    0  0.45155753148E+03  0.46927138741E+03 -0.17124809041E+03  0.90203361896E+03  0.60018239060E+03 0.  0.
        -24    2    4    4    0    0  0.48161073998E+03  0.12440126156E+03  0.99668193121E+01  0.50315891187E+03  0.75133044380E+02 0.  0.
         24    2    4    4    0    0 -0.30053208501E+02  0.34487012585E+03 -0.18121490973E+03  0.39887470709E+03  0.80147298181E+02 0.  0.
         13    1    3    3    0    0 -0.19728257215E+03 -0.23202726051E+03  0.50247596140E+03  0.58757055294E+03  0.00000000000E+00 0. -1.
        -14    1    3    3    0    0 -0.25427495933E+03 -0.23724412690E+03  0.42814594312E+03  0.55158814282E+03  0.00000000000E+00 0.  1.
         15    1    5    5    0    0  0.17050078483E+03  0.58080497959E+02  0.37071968437E+02  0.18390581949E+03  0.17770000000E+01 0. -1.
        -16    1    5    5    0    0  0.31110995515E+03  0.66320763600E+02 -0.27105149125E+02  0.31925309237E+03  0.00000000000E+00 0.  1.
          4    1    6    6  502    0 -0.14937021821E+02  0.14815808054E+02  0.19000147836E+01  0.21124224136E+02  0.00000000000E+00 0. -1.
         -3    1    6    6    0  502 -0.15116186681E+02  0.33005431780E+03 -0.18311492451E+03  0.37775048296E+03  0.00000000000E+00 0.  1.
<mgrwt>
<rscale>  0 0.75099766E+03</rscale>
<asrwt>0</asrwt>
<pdfrwt beam="1">  1        1 0.21542816E+00 0.75099766E+03</pdfrwt>
<pdfrwt beam="2">  1       -2 0.98601424E-01 0.75099766E+03</pdfrwt>
<totfact> 0.59313446E+00</totfact>
</mgrwt>
</event>
<event>
12    3  0.1182097E-007  0.4197970E+03  0.7818608E-02  0.1037132E+00
          1   -1    0    0  501    0  0.00000000000E+00  0.00000000000E+00  0.12094816624E+04  0.12094816624E+04  0.00000000000E+00 0. -1.
         -2   -1    0    0    0  501 -0.00000000000E+00 -0.00000000000E+00 -0.21428972455E+03  0.21428972455E+03  0.00000000000E+00 0.  1.
        -24    2    1    2    0    0 -0.29454170246E+03  0.76170887814E+02  0.16495791061E+03  0.35515745016E+03  0.79805284874E+02 0.  0.
    5000000    2    1    2    0    0  0.29454170246E+03 -0.76170887814E+02  0.83023402720E+03  0.10686139367E+04  0.60007531798E+03 0.  0.
        -24    2    4    4    0    0  0.35999582390E+03  0.50925519111E+02  0.20806164934E+03  0.42662630980E+03  0.80808146655E+02 0.  0.
         24    2    4    4    0    0 -0.65454121442E+02 -0.12709640693E+03  0.62217237786E+03  0.64198762695E+03  0.67911020564E+02 0.  0.
         11    1    3    3    0    0 -0.29325810609E+03  0.63353820739E+02  0.16473525336E+03  0.34227434477E+03  0.00000000000E+00 0. -1.
        -12    1    3    3    0    0 -0.12835963641E+01  0.12817067075E+02  0.22265724556E+00  0.12883105382E+02  0.00000000000E+00 0.  1.
         15    1    5    5    0    0  0.15715009479E+02  0.21789279878E+02  0.14008910378E+02  0.30350313664E+02  0.17770000000E+01 0. -1.
        -16    1    5    5    0    0  0.34428081442E+03  0.29136239233E+02  0.19405273896E+03  0.39627599613E+03  0.00000000000E+00 0.  1.
          2    1    6    6  502    0 -0.29248410151E+02 -0.88035967650E+01  0.19070408739E+03  0.19313472438E+03  0.00000000000E+00 0. -1.
         -1    1    6    6    0  502 -0.36205711291E+02 -0.11829281016E+03  0.43146829047E+03  0.44885290257E+03  0.00000000000E+00 0.  1.
<mgrwt>
<rscale>  0 0.41979699E+03</rscale>
<asrwt>0</asrwt>
<pdfrwt beam="1">  1        1 0.18607410E+00 0.41979699E+03</pdfrwt>
<pdfrwt beam="2">  1       -2 0.32967651E-01 0.41979699E+03</pdfrwt>
<totfact> 0.83825346E+01</totfact>
</mgrwt>
</event>
<event>
12    3  0.1182097E-007  0.6565795E+03  0.7818608E-02  0.9794511E-01
         -2   -1    0    0    0  501 -0.00000000000E+00  0.00000000000E+00  0.29735640202E+03  0.29735640202E+03  0.00000000000E+00 0.  1.
          1   -1    0    0  501    0  0.00000000000E+00 -0.00000000000E+00 -0.24635183290E+04  0.24635183290E+04  0.00000000000E+00 0. -1.
        -24    2    1    2    0    0 -0.49904177450E+03  0.39715046184E+03 -0.15832934957E+04  0.17089173579E+04  0.82517032137E+02 0.  0.
    5000000    2    1    2    0    0  0.49904177450E+03 -0.39715046184E+03 -0.58286843122E+03  0.10519573730E+04  0.60008959712E+03 0.  0.
        -24    2    4    4    0    0  0.64146313427E+02 -0.19445972016E+02 -0.43686746475E+03  0.45230087498E+03  0.96072911854E+02 0.  0.
         24    2    4    4    0    0  0.43489546107E+03 -0.37770448982E+03 -0.14600096646E+03  0.59965649807E+03  0.80479126334E+02 0.  0.
         13    1    3    3    0    0 -0.48928936698E+03  0.37792676321E+03 -0.14901739323E+04  0.16133353872E+04  0.00000000000E+00 0. -1.
        -14    1    3    3    0    0 -0.97524075204E+01  0.19223698625E+02 -0.93119563456E+02  0.95581970786E+02  0.00000000000E+00 0.  1.
         15    1    5    5    0    0  0.23201159891E+02 -0.39859230985E+02 -0.78795054928E+02  0.91317416330E+02  0.17770000000E+01 0. -1.
        -16    1    5    5    0    0  0.40945153536E+02  0.20413258969E+02 -0.35807240983E+03  0.36098345865E+03  0.00000000000E+00 0.  1.
          2    1    6    6  502    0  0.81030649341E+02 -0.33158794898E+02 -0.27103804752E+02  0.91651994216E+02  0.00000000000E+00 0. -1.
         -1    1    6    6    0  502  0.35386481173E+03 -0.34454569492E+03 -0.11889716171E+03  0.50800450385E+03  0.00000000000E+00 0.  1.
<mgrwt>
<rscale>  0 0.65657946E+03</rscale>
<asrwt>0</asrwt>
<pdfrwt beam="1">  1        1 0.37900283E+00 0.65657946E+03</pdfrwt>
<pdfrwt beam="2">  1       -2 0.45747138E-01 0.65657946E+03</pdfrwt>
<totfact> 0.61160125E+00</totfact>
</mgrwt>
</event>
<event>
12    3  0.1182097E-007  0.9495352E+03  0.7818608E-02  0.9365694E-01
         -2   -1    0    0    0  501 -0.00000000000E+00  0.00000000000E+00  0.20006343787E+04  0.20006343787E+04  0.00000000000E+00 0.  1.
          1   -1    0    0  501    0  0.00000000000E+00 -0.00000000000E+00 -0.52587950615E+03  0.52587950615E+03  0.00000000000E+00 0. -1.
        -24    2    1    2    0    0  0.79060643320E+03  0.46153817085E+03  0.91715213787E+03  0.12981071551E+04  0.76407635437E+02 0.  0.
    5000000    2    1    2    0    0 -0.79060643320E+03 -0.46153817085E+03  0.55760273470E+03  0.12284067298E+04  0.59998855708E+03 0.  0.
        -24    2    4    4    0    0 -0.36158597773E+03 -0.21659477002E+02 -0.34235396921E+02  0.37205300894E+03  0.77703454381E+02 0.  0.
         24    2    4    4    0    0 -0.42902045547E+03 -0.43987869385E+03  0.59183813163E+03  0.85635372083E+03  0.74279907261E+02 0.  0.
         11    1    3    3    0    0  0.39433108598E+03  0.19838492395E+03  0.47894982738E+03  0.65134209181E+03  0.00000000000E+00 0. -1.
        -12    1    3    3    0    0  0.39627534722E+03  0.26315324690E+03  0.43820231049E+03  0.64676506329E+03  0.00000000000E+00 0.  1.
         15    1    5    5    0    0 -0.27809668625E+03 -0.26969673185E+02  0.54480942781E+01  0.27946013962E+03  0.17770000000E+01 0. -1.
        -16    1    5    5    0    0 -0.83489291487E+02  0.53101961829E+01 -0.39683491200E+02  0.92592869327E+02  0.00000000000E+00 0.  1.
          2    1    6    6  502    0 -0.18532933497E+03 -0.13877323640E+03  0.21696111759E+03  0.31729654913E+03  0.00000000000E+00 0. -1.
         -1    1    6    6    0  502 -0.24369112050E+03 -0.30110545745E+03  0.37487701403E+03  0.53905717170E+03  0.00000000000E+00 0.  1.
<mgrwt>
<rscale>  0 0.94953519E+03</rscale>
<asrwt>0</asrwt>
<pdfrwt beam="1">  1        1 0.80904541E-01 0.94953519E+03</pdfrwt>
<pdfrwt beam="2">  1       -2 0.30778990E+00 0.94953519E+03</pdfrwt>
<totfact> 0.10485237E+00</totfact>
</mgrwt>
</event>
<event>
12    3  0.1182097E-007  0.9022755E+03  0.7818608E-02  0.9422741E-01
         -2   -1    0    0    0  501 -0.00000000000E+00  0.00000000000E+00  0.75387160936E+03  0.75387160936E+03  0.00000000000E+00 0.  1.
          1   -1    0    0  501    0  0.00000000000E+00 -0.00000000000E+00 -0.17061143866E+04  0.17061143866E+04  0.00000000000E+00 0. -1.
        -24    2    1    2    0    0 -0.26068921197E+03  0.78480417103E+03  0.26404807145E+03  0.87151628333E+03  0.77089532100E+02 0.  0.
    5000000    2    1    2    0    0  0.26068921197E+03 -0.78480417103E+03 -0.12162908487E+04  0.15884697126E+04  0.59999678933E+03 0.  0.
        -24    2    4    4    0    0  0.41397913069E+03 -0.58934214974E+03 -0.10646010865E+04  0.12878589874E+04  0.80637508457E+02 0.  0.
         24    2    4    4    0    0 -0.15328991872E+03 -0.19546202130E+03 -0.15168976211E+03  0.30061072523E+03  0.75191909408E+02 0.  0.
         13    1    3    3    0    0 -0.55774759383E+02  0.12554691426E+03  0.17716899281E+02  0.13851620838E+03  0.00000000000E+00 0. -1.
        -14    1    3    3    0    0 -0.20491445259E+03  0.65925725677E+03  0.24633117217E+03  0.73300007494E+03  0.00000000000E+00 0.  1.
         15    1    5    5    0    0  0.88350826773E+02 -0.81253585629E+02 -0.20521209795E+03  0.23774603392E+03  0.17770000000E+01 0. -1.
        -16    1    5    5    0    0  0.32562830392E+03 -0.50808856411E+03 -0.85938898859E+03  0.10501129535E+04  0.00000000000E+00 0.  1.
          4    1    6    6  502    0 -0.62293944621E+02 -0.42895474939E+02 -0.16591287289E+02  0.77432732876E+02  0.00000000000E+00 0. -1.
         -3    1    6    6    0  502 -0.90995974103E+02 -0.15256654636E+03 -0.13509847483E+03  0.22317799235E+03  0.00000000000E+00 0.  1.
<mgrwt>
<rscale>  0 0.90227552E+03</rscale>
<asrwt>0</asrwt>
<pdfrwt beam="1">  1        1 0.26247914E+00 0.90227552E+03</pdfrwt>
<pdfrwt beam="2">  1       -2 0.11598025E+00 0.90227552E+03</pdfrwt>
<totfact> 0.24265497E+00</totfact>
</mgrwt>
</event>
<event>
12    3  0.1182097E-007  0.4172342E+03  0.7818608E-02  0.1037970E+00
         -2   -1    0    0    0  501 -0.00000000000E+00  0.00000000000E+00  0.18130399586E+03  0.18130399586E+03  0.00000000000E+00 0.  1.
          1   -1    0    0  501    0  0.00000000000E+00 -0.00000000000E+00 -0.13894639892E+04  0.13894639892E+04  0.00000000000E+00 0. -1.
        -24    2    1    2    0    0  0.20190001924E+03 -0.57035697935E+02 -0.22772024989E+02  0.22569957262E+03  0.80031514722E+02 0.  0.
    5000000    2    1    2    0    0 -0.20190001924E+03  0.57035697935E+02 -0.11853879684E+04  0.13450684125E+04  0.60003975705E+03 0.  0.
        -24    2    4    4    0    0 -0.46855452225E+02  0.31273671341E+03 -0.59963354990E+03  0.68272568274E+03  0.80958497953E+02 0.  0.
         24    2    4    4    0    0 -0.15504456702E+03 -0.25570101547E+03 -0.58575441847E+03  0.66234272972E+03  0.78535506545E+02 0.  0.
         13    1    3    3    0    0  0.43224816194E+02 -0.28271471023E+01 -0.37608187976E+02  0.57365087802E+02  0.00000000000E+00 0. -1.
        -14    1    3    3    0    0  0.15867520305E+03 -0.54208550833E+02  0.14836162987E+02  0.16833448482E+03  0.00000000000E+00 0.  1.
         15    1    5    5    0    0 -0.10365166536E+02  0.66432038902E+02 -0.20834333212E+03  0.21893093486E+03  0.17770000000E+01 0. -1.
        -16    1    5    5    0    0 -0.36490285689E+02  0.24630467450E+03 -0.39129021778E+03  0.46379474788E+03  0.00000000000E+00 0.  1.
          4    1    6    6  502    0 -0.39500482794E+02 -0.13272609110E+03 -0.30140988243E+03  0.33169929247E+03  0.00000000000E+00 0. -1.
         -3    1    6    6    0  502 -0.11554408422E+03 -0.12297492437E+03 -0.28434453604E+03  0.33064343725E+03  0.00000000000E+00 0.  1.
<mgrwt>
<rscale>  0 0.41723420E+03</rscale>
<asrwt>0</asrwt>
<pdfrwt beam="1">  1        1 0.21376369E+00 0.41723420E+03</pdfrwt>
<pdfrwt beam="2">  1       -2 0.27892923E-01 0.41723420E+03</pdfrwt>
<totfact> 0.85515078E+01</totfact>
</mgrwt>
</event>
<event>
12    3  0.1182097E-007  0.3725493E+03  0.7818608E-02  0.1053722E+00
          1   -1    0    0  501    0  0.00000000000E+00  0.00000000000E+00  0.12854963068E+03  0.12854963068E+03  0.00000000000E+00 0. -1.
         -2   -1    0    0    0  501 -0.00000000000E+00 -0.00000000000E+00 -0.13366972326E+04  0.13366972326E+04  0.00000000000E+00 0.  1.
        -24    2    1    2    0    0 -0.17125718897E+03  0.60254149232E+02 -0.36307225242E+03  0.41315282462E+03  0.76903892883E+02 0.  0.
    5000000    2    1    2    0    0  0.17125718897E+03 -0.60254149232E+02 -0.84507534953E+03  0.10520940387E+04  0.59982491827E+03 0.  0.
        -24    2    4    4    0    0  0.35598829593E+03  0.29328902375E+02 -0.33010658761E+03  0.49264548224E+03  0.78366833750E+02 0.  0.
         24    2    4    4    0    0 -0.18473110696E+03 -0.89583051607E+02 -0.51496876192E+03  0.55944855644E+03  0.75094317631E+02 0.  0.
         13    1    3    3    0    0 -0.52925831558E+02  0.26054439789E+02 -0.20166059280E+03  0.21011180873E+03  0.00000000000E+00 0. -1.
        -14    1    3    3    0    0 -0.11833135742E+03  0.34199709442E+02 -0.16141165963E+03  0.20304101590E+03  0.00000000000E+00 0.  1.
         15    1    5    5    0    0  0.16902748293E+03  0.21239285796E+02 -0.10587408376E+03  0.20058383930E+03  0.17770000000E+01 0. -1.
        -16    1    5    5    0    0  0.18696081300E+03  0.80896165794E+01 -0.22423250385E+03  0.29206164294E+03  0.00000000000E+00 0.  1.
          4    1    6    6  502    0 -0.48882895753E+02 -0.27247920047E+02 -0.67533063591E+02  0.87708045937E+02  0.00000000000E+00 0. -1.
         -3    1    6    6    0  502 -0.13584821121E+03 -0.62335131560E+02 -0.44743569832E+03  0.47174051050E+03  0.00000000000E+00 0.  1.
<mgrwt>
<rscale>  0 0.37254932E+03</rscale>
<asrwt>0</asrwt>
<pdfrwt beam="1">  1        1 0.19776866E-01 0.37254932E+03</pdfrwt>
<pdfrwt beam="2">  1       -2 0.20564573E+00 0.37254932E+03</pdfrwt>
<totfact> 0.29918578E+01</totfact>
</mgrwt>
</event>
<event>
12    3  0.1182097E-007  0.1414597E+04  0.7818608E-02  0.8943320E-01
         -2   -1    0    0    0  501 -0.00000000000E+00  0.00000000000E+00  0.59385407028E+03  0.59385407028E+03  0.00000000000E+00 0.  1.
          1   -1    0    0  501    0  0.00000000000E+00 -0.00000000000E+00 -0.38546235452E+04  0.38546235452E+04  0.00000000000E+00 0. -1.
        -24    2    1    2    0    0  0.13588583451E+04  0.17919750562E+03 -0.22737318411E+04  0.26559677033E+04  0.75499719298E+02 0.  0.
    5000000    2    1    2    0    0 -0.13588583451E+04 -0.17919750562E+03 -0.98703763375E+03  0.17925099121E+04  0.60020058867E+03 0.  0.
        -24    2    4    4    0    0 -0.95667665888E+03 -0.34203681342E+03 -0.86004953708E+03  0.13335155914E+04  0.79744685559E+02 0.  0.
         24    2    4    4    0    0 -0.40218168620E+03  0.16283930780E+03 -0.12698809667E+03  0.45899432074E+03  0.79265761194E+02 0.  0.
         11    1    3    3    0    0  0.67130169008E+03  0.55355424035E+02 -0.10802991687E+04  0.12730893433E+04  0.00000000000E+00 0. -1.
        -12    1    3    3    0    0  0.68755665499E+03  0.12384208158E+03 -0.11934326724E+04  0.13828783600E+04  0.00000000000E+00 0.  1.
         15    1    5    5    0    0 -0.32004145063E+03 -0.12122185600E+03 -0.33909504875E+03  0.48177783086E+03  0.17770000000E+01 0. -1.
        -16    1    5    5    0    0 -0.63663520825E+03 -0.22081495742E+03 -0.52095448833E+03  0.85173776053E+03  0.00000000000E+00 0.  1.
          2    1    6    6  502    0 -0.10985102829E+03  0.83575659703E+02 -0.33993692397E+02  0.14215382666E+03  0.00000000000E+00 0. -1.
         -1    1    6    6    0  502 -0.29233065791E+03  0.79263648098E+02 -0.92994404274E+02  0.31684049408E+03  0.00000000000E+00 0.  1.
<mgrwt>
<rscale>  0 0.14145967E+04</rscale>
<asrwt>0</asrwt>
<pdfrwt beam="1">  1        1 0.59301899E+00 0.14145967E+04</pdfrwt>
<pdfrwt beam="2">  1       -2 0.91362168E-01 0.14145967E+04</pdfrwt>
<totfact> 0.11231538E-01</totfact>
</mgrwt>
</event>
<event>
12    3  0.1182097E-007  0.8987186E+03  0.7818608E-02  0.9427185E-01
         -2   -1    0    0    0  501 -0.00000000000E+00  0.00000000000E+00  0.15235288324E+04  0.15235288324E+04  0.00000000000E+00 0.  1.
          1   -1    0    0  501    0  0.00000000000E+00 -0.00000000000E+00 -0.70091779401E+03  0.70091779401E+03  0.00000000000E+00 0. -1.
        -24    2    1    2    0    0 -0.59417714223E+03 -0.65980285299E+03  0.28457791401E+02  0.89056152242E+03  0.62479581869E+02 0.  0.
    5000000    2    1    2    0    0  0.59417714223E+03  0.65980285299E+03  0.79415324694E+03  0.13338851039E+04  0.60015315522E+03 0.  0.
        -24    2    4    4    0    0  0.34466179294E+03  0.49491324831E+03  0.82321435511E+03  0.10233771212E+04  0.76733192983E+02 0.  0.
         24    2    4    4    0    0  0.24951534929E+03  0.16488960469E+03 -0.29061108171E+02  0.31050798272E+03  0.78257063963E+02 0.  0.
         13    1    3    3    0    0 -0.15332083733E+03 -0.21107037120E+03  0.16233721109E+02  0.26138384506E+03  0.00000000000E+00 0. -1.
        -14    1    3    3    0    0 -0.44085630491E+03 -0.44873248179E+03  0.12224070292E+02  0.62917767736E+03  0.00000000000E+00 0.  1.
         15    1    5    5    0    0  0.25073778559E+03  0.36193866644E+03  0.54057682038E+03  0.69720548754E+03  0.17770000000E+01 0. -1.
        -16    1    5    5    0    0  0.93924007350E+02  0.13297458186E+03  0.28263753473E+03  0.32617163368E+03  0.00000000000E+00 0.  1.
          4    1    6    6  502    0  0.21087288391E+02 -0.24446003160E+01 -0.16816927599E+02  0.27082445537E+02  0.00000000000E+00 0. -1.
         -3    1    6    6    0  502  0.22842806090E+03  0.16733420500E+03 -0.12244180572E+02  0.28342553719E+03  0.00000000000E+00 0.  1.
<mgrwt>
<rscale>  0 0.89871859E+03</rscale>
<asrwt>0</asrwt>
<pdfrwt beam="1">  1        1 0.10783351E+00 0.89871859E+03</pdfrwt>
<pdfrwt beam="2">  1       -2 0.23438905E+00 0.89871859E+03</pdfrwt>
<totfact> 0.19359033E+00</totfact>
</mgrwt>
</event>
<event>
12    3  0.1182097E-007  0.1143540E+04  0.7818608E-02  0.9163764E-01
          1   -1    0    0  501    0  0.00000000000E+00  0.00000000000E+00  0.81649161949E+03  0.81649161949E+03  0.00000000000E+00 0. -1.
         -2   -1    0    0    0  501 -0.00000000000E+00 -0.00000000000E+00 -0.21316194558E+04  0.21316194558E+04  0.00000000000E+00 0.  1.
        -24    2    1    2    0    0  0.61610395248E+03 -0.89353367028E+03 -0.13161128866E+04  0.17077312192E+04  0.78779989740E+02 0.  0.
    5000000    2    1    2    0    0 -0.61610395248E+03  0.89353367028E+03  0.98505028680E+00  0.12403798560E+04  0.60046208601E+03 0.  0.
        -24    2    4    4    0    0 -0.69753138362E+03  0.69255836317E+03  0.96005874031E+02  0.99073091568E+03  0.78380494519E+02 0.  0.
         24    2    4    4    0    0  0.81427431139E+02  0.20097530711E+03 -0.95020823744E+02  0.24964894034E+03  0.79209442994E+02 0.  0.
         13    1    3    3    0    0  0.45709848994E+03 -0.67032057642E+03 -0.10354694757E+04  0.13154716796E+04  0.00000000000E+00 0. -1.
        -14    1    3    3    0    0  0.15900546254E+03 -0.22321309386E+03 -0.28064341089E+03  0.39225953968E+03  0.00000000000E+00 0.  1.
         15    1    5    5    0    0 -0.21882618487E+03  0.22321359076E+03 -0.57773721497E+01  0.31264315448E+03  0.17770000000E+01 0. -1.
        -16    1    5    5    0    0 -0.47870519875E+03  0.46934477241E+03  0.10178324618E+03  0.67808776121E+03  0.00000000000E+00 0.  1.
          4    1    6    6  502    0  0.50893845992E+01  0.18172970062E+01 -0.24374280815E+02  0.24966176505E+02  0.00000000000E+00 0. -1.
         -3    1    6    6    0  502  0.76338046540E+02  0.19915801011E+03 -0.70646542929E+02  0.22468276384E+03  0.00000000000E+00 0.  1.
<mgrwt>
<rscale>  0 0.11435401E+04</rscale>
<asrwt>0</asrwt>
<pdfrwt beam="1">  1        1 0.12561410E+00 0.11435401E+04</pdfrwt>
<pdfrwt beam="2">  1       -2 0.32794144E+00 0.11435401E+04</pdfrwt>
<totfact> 0.39788533E-01</totfact>
</mgrwt>
</event>
<event>
12    3  0.1182097E-007  0.4524464E+03  0.7818608E-02  0.1026995E+00
         -2   -1    0    0    0  501 -0.00000000000E+00  0.00000000000E+00  0.16175673646E+03  0.16175673646E+03  0.00000000000E+00 0.  1.
          1   -1    0    0  501    0  0.00000000000E+00 -0.00000000000E+00 -0.21463292524E+04  0.21463292524E+04  0.00000000000E+00 0. -1.
        -24    2    1    2    0    0 -0.17215330218E+03  0.24454119641E+03 -0.12929750849E+03  0.33540287241E+03  0.79624650226E+02 0.  0.
    5000000    2    1    2    0    0  0.17215330218E+03 -0.24454119641E+03 -0.18552750074E+04  0.19726831164E+04  0.59999680708E+03 0.  0.
        -24    2    4    4    0    0  0.34051613961E+03 -0.22935953607E+03 -0.16160043720E+04  0.16692789814E+04  0.80406151758E+02 0.  0.
         24    2    4    4    0    0 -0.16836283742E+03 -0.15181660334E+02 -0.23927063542E+03  0.30340413505E+03  0.78912003873E+02 0.  0.
         13    1    3    3    0    0 -0.16001131953E+03  0.18813749263E+03 -0.80292374434E+02  0.25970406987E+03  0.00000000000E+00 0. -1.
        -14    1    3    3    0    0 -0.12141982651E+02  0.56403703774E+02 -0.49005134056E+02  0.75698802540E+02  0.00000000000E+00 0.  1.
         15    1    5    5    0    0  0.17365423392E+03 -0.14904774823E+03 -0.10104449784E+04  0.10360372756E+04  0.17770000000E+01 0. -1.
        -16    1    5    5    0    0  0.16686190569E+03 -0.80311787842E+02 -0.60555939356E+03  0.63324170580E+03  0.00000000000E+00 0.  1.
          4    1    6    6  502    0 -0.68562177944E+02  0.32147257303E+02 -0.87923103323E+02  0.11603745298E+03  0.00000000000E+00 0. -1.
         -3    1    6    6    0  502 -0.99800659478E+02 -0.47328917638E+02 -0.15134753210E+03  0.18736668207E+03  0.00000000000E+00 0.  1.
<mgrwt>
<rscale>  0 0.45244640E+03</rscale>
<asrwt>0</asrwt>
<pdfrwt beam="1">  1        1 0.33020447E+00 0.45244640E+03</pdfrwt>
<pdfrwt beam="2">  1       -2 0.24885654E-01 0.45244640E+03</pdfrwt>
<totfact> 0.32767432E+01</totfact>
</mgrwt>
</event>
<event>
12    3  0.1182097E-007  0.5863183E+03  0.7818608E-02  0.9934205E-01
          1   -1    0    0  501    0  0.00000000000E+00  0.00000000000E+00  0.17567306510E+04  0.17567306510E+04  0.00000000000E+00 0. -1.
         -2   -1    0    0    0  501 -0.00000000000E+00 -0.00000000000E+00 -0.25942476566E+03  0.25942476566E+03  0.00000000000E+00 0.  1.
        -24    2    1    2    0    0  0.33934333678E+03  0.32224134288E+03  0.20641212965E+03  0.51768046653E+03  0.79960708401E+02 0.  0.
    5000000    2    1    2    0    0 -0.33934333678E+03 -0.32224134288E+03  0.12908937557E+04  0.14984749502E+04  0.60002258661E+03 0.  0.
        -24    2    4    4    0    0 -0.47015914762E+03 -0.17156803374E+03  0.65836174652E+03  0.83070311522E+03  0.78372584846E+02 0.  0.
         24    2    4    4    0    0  0.13081581084E+03 -0.15067330913E+03  0.63253200919E+03  0.66777183494E+03  0.77506505787E+02 0.  0.
         11    1    3    3    0    0  0.39701523092E+02  0.70393484220E+02  0.56136113884E+02  0.98400796940E+02  0.00000000000E+00 0. -1.
        -12    1    3    3    0    0  0.29964181368E+03  0.25184785866E+03  0.15027601576E+03  0.41927966959E+03  0.00000000000E+00 0.  1.
         15    1    5    5    0    0 -0.37221332817E+03 -0.12750191794E+03  0.56437650768E+03  0.68798510224E+03  0.17770000000E+01 0. -1.
        -16    1    5    5    0    0 -0.97945819446E+02 -0.44066115807E+02  0.93985238840E+02  0.14271801298E+03  0.00000000000E+00 0.  1.
          4    1    6    6  502    0  0.42253640249E+02 -0.49779069059E+02  0.33572247486E+03  0.34201302016E+03  0.00000000000E+00 0. -1.
         -3    1    6    6    0  502  0.88562170594E+02 -0.10089424007E+03  0.29680953433E+03  0.32575881478E+03  0.00000000000E+00 0.  1.
<mgrwt>
<rscale>  0 0.58631825E+03</rscale>
<asrwt>0</asrwt>
<pdfrwt beam="1">  1        1 0.27026625E+00 0.58631825E+03</pdfrwt>
<pdfrwt beam="2">  1       -2 0.39911504E-01 0.58631825E+03</pdfrwt>
<totfact> 0.24042959E+01</totfact>
</mgrwt>
</event>
<event>
12    3  0.1182097E-007  0.4370509E+03  0.7818608E-02  0.1031656E+00
         -2   -1    0    0    0  501 -0.00000000000E+00  0.00000000000E+00  0.45206490967E+03  0.45206490967E+03  0.00000000000E+00 0.  1.
          1   -1    0    0  501    0  0.00000000000E+00 -0.00000000000E+00 -0.19469131270E+04  0.19469131270E+04  0.00000000000E+00 0. -1.
        -24    2    1    2    0    0  0.12401620783E+03  0.39402136137E+03  0.26272602828E+03  0.49643023340E+03  0.82372068547E+02 0.  0.
    5000000    2    1    2    0    0 -0.12401620783E+03 -0.39402136137E+03 -0.17575742456E+04  0.19025478033E+04  0.59999005149E+03 0.  0.
        -24    2    4    4    0    0 -0.13025002554E+03 -0.36261555029E+03 -0.47126925600E+03  0.61330700805E+03  0.74804197737E+02 0.  0.
         24    2    4    4    0    0  0.62338177112E+01 -0.31405811074E+02 -0.12863049896E+04  0.12892407953E+04  0.80846251122E+02 0.  0.
         11    1    3    3    0    0  0.95574834965E+02  0.26145117011E+03  0.21826960836E+03  0.35374126896E+03  0.00000000000E+00 0. -1.
        -12    1    3    3    0    0  0.28441372868E+02  0.13257019126E+03  0.44456419919E+02  0.14268896444E+03  0.00000000000E+00 0.  1.
         15    1    5    5    0    0 -0.69967712130E+02 -0.10746017516E+03 -0.18521446720E+03  0.22527921914E+03  0.17770000000E+01 0. -1.
        -16    1    5    5    0    0 -0.60282313414E+02 -0.25515537513E+03 -0.28605478880E+03  0.38802778891E+03  0.00000000000E+00 0.  1.
          2    1    6    6  502    0  0.32057153785E+01  0.18977005522E+02 -0.81750010677E+03  0.81772662175E+03  0.00000000000E+00 0. -1.
         -1    1    6    6    0  502  0.30281023327E+01 -0.50382816596E+02 -0.46880488288E+03  0.47151417351E+03  0.00000000000E+00 0.  1.
<mgrwt>
<rscale>  0 0.43705093E+03</rscale>
<asrwt>0</asrwt>
<pdfrwt beam="1">  1        1 0.29952510E+00 0.43705093E+03</pdfrwt>
<pdfrwt beam="2">  1       -2 0.69548448E-01 0.43705093E+03</pdfrwt>
<totfact> 0.59573164E+00</totfact>
</mgrwt>
</event>
<event>
12    3  0.1182097E-007  0.6047710E+03  0.7818608E-02  0.9895557E-01
         -2   -1    0    0    0  501 -0.00000000000E+00  0.00000000000E+00  0.25912442542E+03  0.25912442542E+03  0.00000000000E+00 0.  1.
          1   -1    0    0  501    0  0.00000000000E+00 -0.00000000000E+00 -0.15333140845E+04  0.15333140845E+04  0.00000000000E+00 0. -1.
        -24    2    1    2    0    0 -0.47662429453E+03  0.51992720175E+02 -0.58220982843E+03  0.75865106540E+03  0.81909667467E+02 0.  0.
    5000000    2    1    2    0    0  0.47662429453E+03 -0.51992720175E+02 -0.69197983069E+03  0.10337874446E+04  0.60000536111E+03 0.  0.
        -24    2    4    4    0    0  0.13965898665E+03  0.24161695248E+03 -0.14935786550E+03  0.32628212784E+03  0.79176200223E+02 0.  0.
         24    2    4    4    0    0  0.33696530788E+03 -0.29360967265E+03 -0.54262196519E+03  0.70750531673E+03  0.79830554915E+02 0.  0.
         11    1    3    3    0    0 -0.23279471712E+03  0.38856735294E+02 -0.34664115604E+03  0.41936060528E+03  0.00000000000E+00 0. -1.
        -12    1    3    3    0    0 -0.24382957742E+03  0.13135984881E+02 -0.23556867239E+03  0.33929046013E+03  0.00000000000E+00 0.  1.
         15    1    5    5    0    0  0.61604993825E+02  0.12811913174E+03 -0.32961681274E+02  0.14594285643E+03  0.17770000000E+01 0. -1.
        -16    1    5    5    0    0  0.78053992825E+02  0.11349782074E+03 -0.11639618423E+03  0.18033927141E+03  0.00000000000E+00 0.  1.
          4    1    6    6  502    0  0.30168556210E+02 -0.46769731206E+02 -0.37830952469E+02  0.67295843152E+02  0.00000000000E+00 0. -1.
         -3    1    6    6    0  502  0.30679675167E+03 -0.24683994145E+03 -0.50479101272E+03  0.64020947358E+03  0.00000000000E+00 0.  1.
<mgrwt>
<rscale>  0 0.60477101E+03</rscale>
<asrwt>0</asrwt>
<pdfrwt beam="1">  1        1 0.23589447E+00 0.60477101E+03</pdfrwt>
<pdfrwt beam="2">  1       -2 0.39865297E-01 0.60477101E+03</pdfrwt>
<totfact> 0.33947070E+01</totfact>
</mgrwt>
</event>
<event>
12    3  0.1182097E-007  0.5707209E+03  0.7818608E-02  0.9968085E-01
          1   -1    0    0  501    0  0.00000000000E+00  0.00000000000E+00  0.87445754861E+03  0.87445754861E+03  0.00000000000E+00 0. -1.
         -2   -1    0    0    0  501 -0.00000000000E+00 -0.00000000000E+00 -0.81021707412E+03  0.81021707412E+03  0.00000000000E+00 0.  1.
        -24    2    1    2    0    0 -0.47457707234E+03  0.22887416230E+03  0.53705456890E+03  0.75630779583E+03  0.77246956627E+02 0.  0.
    5000000    2    1    2    0    0  0.47457707234E+03 -0.22887416230E+03 -0.47281409440E+03  0.92836682690E+03  0.60058722736E+03 0.  0.
        -24    2    4    4    0    0  0.48751205114E+03 -0.22684060252E+03 -0.58095656716E+03  0.79567611331E+03  0.80406998458E+02 0.  0.
         24    2    4    4    0    0 -0.12934978802E+02 -0.20335597757E+01  0.10814247276E+03  0.13269071359E+03  0.75766628656E+02 0.  0.
         13    1    3    3    0    0 -0.55506694865E+02  0.43557427026E+02  0.10510735436E+03  0.12659304312E+03  0.00000000000E+00 0. -1.
        -14    1    3    3    0    0 -0.41907037747E+03  0.18531673527E+03  0.43194721454E+03  0.62971475272E+03  0.00000000000E+00 0.  1.
         15    1    5    5    0    0  0.15472883375E+03 -0.39479163781E+02 -0.14045102153E+03  0.21267172719E+03  0.17770000000E+01 0. -1.
        -16    1    5    5    0    0  0.33278321738E+03 -0.18736143874E+03 -0.44050554564E+03  0.58300438612E+03  0.00000000000E+00 0.  1.
          2    1    6    6  502    0  0.21525744017E+02  0.20638351293E+02  0.71679014321E+02  0.77634916716E+02  0.00000000000E+00 0. -1.
         -3    1    6    6    0  502 -0.34460722818E+02 -0.22671911068E+02  0.36463458436E+02  0.55055796877E+02  0.00000000000E+00 0.  1.
<mgrwt>
<rscale>  0 0.57072090E+03</rscale>
<asrwt>0</asrwt>
<pdfrwt beam="1">  1        1 0.13453193E+00 0.57072090E+03</pdfrwt>
<pdfrwt beam="2">  1       -2 0.12464878E+00 0.57072090E+03</pdfrwt>
<totfact> 0.84732386E+00</totfact>
</mgrwt>
</event>
<event>
12    3  0.1182097E-007  0.4203735E+03  0.7818608E-02  0.1036945E+00
         -2   -1    0    0    0  501 -0.00000000000E+00  0.00000000000E+00  0.19250264257E+04  0.19250264257E+04  0.00000000000E+00 0.  1.
          1   -1    0    0  501    0  0.00000000000E+00 -0.00000000000E+00 -0.14478372509E+03  0.14478372509E+03  0.00000000000E+00 0. -1.
        -24    2    1    2    0    0 -0.25017933079E+03 -0.82763177808E+02  0.15207877046E+03  0.31470778368E+03  0.80458657261E+02 0.  0.
    5000000    2    1    2    0    0  0.25017933079E+03  0.82763177808E+02  0.16281639301E+04  0.17551023671E+04  0.60002257826E+03 0.  0.
        -24    2    4    4    0    0 -0.71780136616E+02  0.20372031093E+03  0.26716502687E+03  0.34893675977E+03  0.61035707900E+02 0.  0.
         24    2    4    4    0    0  0.32195946740E+03 -0.12095713312E+03  0.13609989033E+04  0.14061656073E+04  0.81824041844E+02 0.  0.
         13    1    3    3    0    0 -0.11758732971E+03 -0.10170727245E+02  0.10040620097E+03  0.15495686172E+03  0.00000000000E+00 0. -1.
        -14    1    3    3    0    0 -0.13259200107E+03 -0.72592450563E+02  0.51672569491E+02  0.15975092195E+03  0.00000000000E+00 0.  1.
         15    1    5    5    0    0 -0.35502733397E+02  0.15518951004E+03  0.15930543311E+03  0.22522345982E+03  0.17770000000E+01 0. -1.
        -16    1    5    5    0    0 -0.36277403219E+02  0.48530800891E+02  0.10785959376E+03  0.12371329995E+03  0.00000000000E+00 0.  1.
          4    1    6    6  502    0  0.26783791317E+03 -0.68662435112E+02  0.10081034730E+04  0.10453345350E+04  0.00000000000E+00 0. -1.
         -3    1    6    6    0  502  0.54121554229E+02 -0.52294698006E+02  0.35289543027E+03  0.36083107236E+03  0.00000000000E+00 0.  1.
<mgrwt>
<rscale>  0 0.42037351E+03</rscale>
<asrwt>0</asrwt>
<pdfrwt beam="1">  1        1 0.22274421E-01 0.42037351E+03</pdfrwt>
<pdfrwt beam="2">  1       -2 0.29615789E+00 0.42037351E+03</pdfrwt>
<totfact> 0.72684554E+00</totfact>
</mgrwt>
</event>
<event>
12    3  0.1182097E-007  0.1078285E+04  0.7818608E-02  0.9226619E-01
         -2   -1    0    0    0  501 -0.00000000000E+00  0.00000000000E+00  0.11351104725E+04  0.11351104725E+04  0.00000000000E+00 0.  1.
          1   -1    0    0  501    0  0.00000000000E+00 -0.00000000000E+00 -0.10552460065E+04  0.10552460065E+04  0.00000000000E+00 0. -1.
        -24    2    1    2    0    0  0.36654689057E+03 -0.93994227494E+03  0.94585429113E+02  0.10164681084E+04  0.80080639360E+02 0.  0.
    5000000    2    1    2    0    0 -0.36654689057E+03  0.93994227494E+03 -0.14720963112E+02  0.11738883706E+04  0.59995757908E+03 0.  0.
        -24    2    4    4    0    0 -0.46743163308E+03  0.93181312284E+03 -0.43635089944E+01  0.10456290693E+04  0.80951113426E+02 0.  0.
         24    2    4    4    0    0  0.10088474250E+03  0.81291521040E+01 -0.10357454117E+02  0.12825930136E+03  0.78098381197E+02 0.  0.
         13    1    3    3    0    0  0.21550794019E+03 -0.64595718074E+03  0.47455002806E+02  0.68260993908E+03  0.00000000000E+00 0. -1.
        -14    1    3    3    0    0  0.15103895039E+03 -0.29398509420E+03  0.47130426307E+02  0.33385816933E+03  0.00000000000E+00 0.  1.
         15    1    5    5    0    0 -0.21129340372E+03  0.36281122690E+03 -0.31558861863E+02  0.42104157551E+03  0.17770000000E+01 0. -1.
        -16    1    5    5    0    0 -0.25613822936E+03  0.56900189593E+03  0.27195352869E+02  0.62458749374E+03  0.00000000000E+00 0.  1.
          2    1    6    6  502    0  0.65027157469E+02  0.64607253315E+01 -0.44226697737E+02  0.78906735916E+02  0.00000000000E+00 0. -1.
         -1    1    6    6    0  502  0.35857585034E+02  0.16684267725E+01  0.33869243620E+02  0.49352565443E+02  0.00000000000E+00 0.  1.
<mgrwt>
<rscale>  0 0.10782846E+04</rscale>
<asrwt>0</asrwt>
<pdfrwt beam="1">  1        1 0.16234554E+00 0.10782846E+04</pdfrwt>
<pdfrwt beam="2">  1       -2 0.17463238E+00 0.10782846E+04</pdfrwt>
<totfact> 0.23463722E+00</totfact>
</mgrwt>
</event>
<event>
12    3  0.1182097E-007  0.8876287E+03  0.7818608E-02  0.9441180E-01
          1   -1    0    0  501    0  0.00000000000E+00  0.00000000000E+00  0.33108238484E+03  0.33108238484E+03  0.00000000000E+00 0. -1.
         -2   -1    0    0    0  501 -0.00000000000E+00 -0.00000000000E+00 -0.25397600646E+04  0.25397600646E+04  0.00000000000E+00 0.  1.
        -24    2    1    2    0    0  0.58549155859E+03 -0.56566110280E+03 -0.88860139067E+03  0.12078818472E+04  0.81198995091E+02 0.  0.
    5000000    2    1    2    0    0 -0.58549155859E+03  0.56566110280E+03 -0.13200762891E+04  0.16629606023E+04  0.60005308710E+03 0.  0.
        -24    2    4    4    0    0 -0.61408796093E+03  0.62514230688E+03 -0.12755745329E+04  0.15495786820E+04  0.78719598357E+02 0.  0.
         24    2    4    4    0    0  0.28596402341E+02 -0.59481204078E+02 -0.44501756193E+02  0.11338192027E+03  0.80742093576E+02 0.  0.
         13    1    3    3    0    0  0.80203024229E+02 -0.11280531958E+03 -0.12672967398E+03  0.18766452912E+03  0.00000000000E+00 0. -1.
        -14    1    3    3    0    0  0.50528853436E+03 -0.45285578322E+03 -0.76187171669E+03  0.10202173180E+04  0.00000000000E+00 0.  1.
         15    1    5    5    0    0 -0.10507241941E+03  0.12347777346E+03 -0.28847299496E+03  0.33091811738E+03  0.17770000000E+01 0. -1.
        -16    1    5    5    0    0 -0.50901554152E+03  0.50166453342E+03 -0.98710153798E+03  0.12186605647E+04  0.00000000000E+00 0.  1.
          4    1    6    6  502    0  0.23719704528E+01 -0.54814817707E+02 -0.61004390790E+02  0.82047706731E+02  0.00000000000E+00 0. -1.
         -3    1    6    6    0  502  0.26224431888E+02 -0.46663863710E+01  0.16502634598E+02  0.31334213542E+02  0.00000000000E+00 0.  1.
<mgrwt>
<rscale>  0 0.88762866E+03</rscale>
<asrwt>0</asrwt>
<pdfrwt beam="1">  1        1 0.50935752E-01 0.88762866E+03</pdfrwt>
<pdfrwt beam="2">  1       -2 0.39073231E+00 0.88762866E+03</pdfrwt>
<totfact> 0.59824345E-01</totfact>
</mgrwt>
</event>
<event>
12    3  0.1182097E-007  0.6935713E+03  0.7818608E-02  0.9728290E-01
         -2   -1    0    0    0  501 -0.00000000000E+00  0.00000000000E+00  0.57503785527E+03  0.57503785527E+03  0.00000000000E+00 0.  1.
          1   -1    0    0  501    0  0.00000000000E+00 -0.00000000000E+00 -0.10319707976E+04  0.10319707976E+04  0.00000000000E+00 0. -1.
        -24    2    1    2    0    0  0.53273957340E+03 -0.35324409306E+03 -0.32457581284E+03  0.72032243566E+03  0.70157755710E+02 0.  0.
    5000000    2    1    2    0    0 -0.53273957340E+03  0.35324409306E+03 -0.13235712947E+03  0.88668621720E+03  0.60008432383E+03 0.  0.
        -24    2    4    4    0    0 -0.11747076669E+03 -0.64920410283E+02 -0.23740622737E+03  0.28373626742E+03  0.78297585901E+02 0.  0.
         24    2    4    4    0    0 -0.41526880671E+03  0.41816450334E+03  0.10504909790E+03  0.60294994978E+03  0.72135950037E+02 0.  0.
         11    1    3    3    0    0  0.40669949826E+03 -0.27972286058E+03 -0.21786651615E+03  0.53955090536E+03  0.00000000000E+00 0. -1.
        -12    1    3    3    0    0  0.12604007515E+03 -0.73521232479E+02 -0.10670929669E+03  0.18077153030E+03  0.00000000000E+00 0.  1.
         15    1    5    5    0    0 -0.11573060843E+03 -0.28904358266E+02 -0.18456974141E+03  0.21976847551E+03  0.17770000000E+01 0. -1.
        -16    1    5    5    0    0 -0.17401582630E+01 -0.36016052017E+02 -0.52836485959E+02  0.63967791912E+02  0.00000000000E+00 0.  1.
          2    1    6    6  502    0 -0.59527197894E+02  0.92297604097E+02  0.36132747587E+02  0.11561968024E+03  0.00000000000E+00 0. -1.
         -3    1    6    6    0  502 -0.35574160881E+03  0.32586689924E+03  0.68916350312E+02  0.48733026953E+03  0.00000000000E+00 0.  1.
<mgrwt>
<rscale>  0 0.69357135E+03</rscale>
<asrwt>0</asrwt>
<pdfrwt beam="1">  1        1 0.15876474E+00 0.69357135E+03</pdfrwt>
<pdfrwt beam="2">  1       -2 0.88467363E-01 0.69357135E+03</pdfrwt>
<totfact> 0.14202371E+01</totfact>
</mgrwt>
</event>
<event>
12    3  0.1182097E-007  0.1041541E+04  0.7818608E-02  0.9264121E-01
          1   -1    0    0  501    0  0.00000000000E+00  0.00000000000E+00  0.21637066247E+04  0.21637066247E+04  0.00000000000E+00 0. -1.
         -2   -1    0    0    0  501 -0.00000000000E+00 -0.00000000000E+00 -0.73187724434E+03  0.73187724434E+03  0.00000000000E+00 0.  1.
        -24    2    1    2    0    0 -0.67949680735E+03 -0.67641620871E+03  0.14780697823E+04  0.17635876543E+04  0.79349444852E+02 0.  0.
    5000000    2    1    2    0    0  0.67949680735E+03  0.67641620871E+03 -0.46240401995E+02  0.11319962147E+04  0.60001871364E+03 0.  0.
        -24    2    4    4    0    0  0.52933068489E+03  0.76290063104E+03 -0.90209008777E+02  0.93623850282E+03  0.78717990990E+02 0.  0.
         24    2    4    4    0    0  0.15016612246E+03 -0.86484422332E+02  0.43968606782E+02  0.19575771187E+03  0.79739724943E+02 0.  0.
         11    1    3    3    0    0 -0.51051835502E+03 -0.55336940070E+03  0.11688022090E+04  0.13903040273E+04  0.00000000000E+00 0. -1.
        -12    1    3    3    0    0 -0.16897845233E+03 -0.12304680800E+03  0.30926757332E+03  0.37328362705E+03  0.00000000000E+00 0.  1.
         15    1    5    5    0    0  0.49451596135E+02  0.10911969953E+03  0.33651026421E+01  0.11986263317E+03  0.17770000000E+01 0. -1.
        -16    1    5    5    0    0  0.47987908875E+03  0.65378093151E+03 -0.93574111419E+02  0.81637586965E+03  0.00000000000E+00 0.  1.
          4    1    6    6  502    0 -0.28337259228E+00 -0.29448868400E+02  0.22312573150E+01  0.29534634910E+02  0.00000000000E+00 0. -1.
         -3    1    6    6    0  502  0.15044949505E+03 -0.57035553932E+02  0.41737349467E+02  0.16622307696E+03  0.00000000000E+00 0.  1.
<mgrwt>
<rscale>  0 0.10415413E+04</rscale>
<asrwt>0</asrwt>
<pdfrwt beam="1">  1        1 0.33287794E+00 0.10415413E+04</pdfrwt>
<pdfrwt beam="2">  1       -2 0.11259650E+00 0.10415413E+04</pdfrwt>
<totfact> 0.12585285E+00</totfact>
</mgrwt>
</event>
<event>
12    3  0.1182097E-007  0.1012299E+04  0.7818608E-02  0.9295157E-01
         -2   -1    0    0    0  501 -0.00000000000E+00  0.00000000000E+00  0.43277557560E+03  0.43277557560E+03  0.00000000000E+00 0.  1.
          1   -1    0    0  501    0  0.00000000000E+00 -0.00000000000E+00 -0.28105894873E+04  0.28105894873E+04  0.00000000000E+00 0. -1.
        -24    2    1    2    0    0 -0.91786825082E+03 -0.24357057913E+03 -0.16476305669E+04  0.19035703368E+04  0.84171190863E+02 0.  0.
    5000000    2    1    2    0    0  0.91786825082E+03  0.24357057913E+03 -0.73018334482E+03  0.13397947261E+04  0.60006119530E+03 0.  0.
        -24    2    4    4    0    0  0.93821826787E+03  0.29059020418E+03 -0.52907775887E+03  0.11173253711E+04  0.61615948178E+02 0.  0.
         24    2    4    4    0    0 -0.20350017051E+02 -0.47019625043E+02 -0.20110558595E+03  0.22246935497E+03  0.80151037851E+02 0.  0.
         13    1    3    3    0    0 -0.67639737381E+03 -0.19178648327E+03 -0.12864246043E+04  0.14660094560E+04  0.00000000000E+00 0. -1.
        -14    1    3    3    0    0 -0.24147087701E+03 -0.51784095859E+02 -0.36120596254E+03  0.43756088080E+03  0.00000000000E+00 0.  1.
         15    1    5    5    0    0  0.16777337529E+03  0.49976223622E+02 -0.12162169043E+03  0.21316782519E+03  0.17770000000E+01 0. -1.
        -16    1    5    5    0    0  0.77044489258E+03  0.24061398055E+03 -0.40745606844E+03  0.90415754592E+03  0.00000000000E+00 0.  1.
          4    1    6    6  502    0 -0.43036581666E+02 -0.33661650511E+01 -0.12092368870E+03  0.12839788517E+03  0.00000000000E+00 0. -1.
         -3    1    6    6    0  502  0.22686564615E+02 -0.43653459991E+02 -0.80181897249E+02  0.94071469797E+02  0.00000000000E+00 0.  1.
<mgrwt>
<rscale>  0 0.10122991E+04</rscale>
<asrwt>0</asrwt>
<pdfrwt beam="1">  1        1 0.43239839E+00 0.10122991E+04</pdfrwt>
<pdfrwt beam="2">  1       -2 0.66580857E-01 0.10122991E+04</pdfrwt>
<totfact> 0.15196463E+00</totfact>
</mgrwt>
</event>
<event>
12    3  0.1182097E-007  0.7521503E+03  0.7818608E-02  0.9631983E-01
         -2   -1    0    0    0  501 -0.00000000000E+00  0.00000000000E+00  0.75156937918E+03  0.75156937918E+03  0.00000000000E+00 0.  1.
          1   -1    0    0  501    0  0.00000000000E+00 -0.00000000000E+00 -0.85387016452E+03  0.85387016452E+03  0.00000000000E+00 0. -1.
        -24    2    1    2    0    0 -0.58699651237E+03 -0.35427666960E+03 -0.74129492171E+02  0.69402520356E+03  0.78095693964E+02 0.  0.
    5000000    2    1    2    0    0  0.58699651237E+03  0.35427666960E+03 -0.28171293171E+02  0.91141434013E+03  0.59983798937E+03 0.  0.
        -24    2    4    4    0    0  0.13456186942E+03 -0.10237570688E+03  0.15015560148E+03  0.23981655452E+03  0.79859834119E+02 0.  0.
         24    2    4    4    0    0  0.45243464295E+03  0.45665237648E+03 -0.17832689465E+03  0.67159778561E+03  0.77553885837E+02 0.  0.
         13    1    3    3    0    0 -0.91988866271E+02 -0.43121844744E+02  0.14645496725E+02  0.10264470559E+03  0.00000000000E+00 0. -1.
        -14    1    3    3    0    0 -0.49500764610E+03 -0.31115482485E+03 -0.88774988895E+02  0.59138049797E+03  0.00000000000E+00 0.  1.
         15    1    5    5    0    0 -0.25851200394E+00 -0.46017383283E+01 -0.84796113799E+01  0.98134786010E+01  0.17770000000E+01 0. -1.
        -16    1    5    5    0    0  0.13482038143E+03 -0.97773968550E+02  0.15863521286E+03  0.23000307592E+03  0.00000000000E+00 0.  1.
          4    1    6    6  502    0  0.65953052857E+02  0.35366239613E+02 -0.32468642734E+02  0.81576889169E+02  0.00000000000E+00 0. -1.
         -3    1    6    6    0  502  0.38648159009E+03  0.42128613686E+03 -0.14585825191E+03  0.59002089644E+03  0.00000000000E+00 0.  1.
<mgrwt>
<rscale>  0 0.75215032E+03</rscale>
<asrwt>0</asrwt>
<pdfrwt beam="1">  1        1 0.13136464E+00 0.75215032E+03</pdfrwt>
<pdfrwt beam="2">  1       -2 0.11562606E+00 0.75215032E+03</pdfrwt>
<totfact> 0.10359030E+01</totfact>
</mgrwt>
</event>
<event>
12    3  0.1182097E-007  0.1163941E+04  0.7818608E-02  0.9145018E-01
         -2   -1    0    0    0  501 -0.00000000000E+00  0.00000000000E+00  0.64470323551E+03  0.64470323551E+03  0.00000000000E+00 0.  1.
          1   -1    0    0  501    0  0.00000000000E+00 -0.00000000000E+00 -0.36787993535E+04  0.36787993535E+04  0.00000000000E+00 0. -1.
        -24    2    1    2    0    0 -0.10952610540E+04  0.77414932633E+02 -0.28544912820E+04  0.30594234575E+04  0.79759419967E+02 0.  0.
    5000000    2    1    2    0    0  0.10952610540E+04 -0.77414932633E+02 -0.17960483600E+03  0.12640791315E+04  0.60004025325E+03 0.  0.
        -24    2    4    4    0    0  0.10612981686E+04  0.76331162282E+02 -0.19939546791E+03  0.10860417622E+04  0.86878694551E+02 0.  0.
         24    2    4    4    0    0  0.33962885365E+02 -0.15374609491E+03  0.19790631916E+02  0.17803736935E+03  0.80711191844E+02 0.  0.
         13    1    3    3    0    0 -0.71155384230E+03  0.44627262578E+02 -0.17465640895E+04  0.18864746438E+04  0.00000000000E+00 0. -1.
        -14    1    3    3    0    0 -0.38370721167E+03  0.32787670055E+02 -0.11079271925E+04  0.11729488137E+04  0.00000000000E+00 0.  1.
         15    1    5    5    0    0  0.83476329115E+03  0.31599109094E+02 -0.13392321460E+03  0.84603004739E+03  0.17770000000E+01 0. -1.
        -16    1    5    5    0    0  0.22653487746E+03  0.44732053188E+02 -0.65472253308E+02  0.24001171480E+03  0.00000000000E+00 0.  1.
          2    1    6    6  502    0  0.27046560690E+01 -0.10864401817E+03 -0.19675122825E+02  0.11044432220E+03  0.00000000000E+00 0. -1.
         -1    1    6    6    0  502  0.31258229296E+02 -0.45102076750E+02  0.39465754740E+02  0.67593047150E+02  0.00000000000E+00 0.  1.
<mgrwt>
<rscale>  0 0.11639412E+04</rscale>
<asrwt>0</asrwt>
<pdfrwt beam="1">  1        1 0.56596912E+00 0.11639412E+04</pdfrwt>
<pdfrwt beam="2">  1       -2 0.99185115E-01 0.11639412E+04</pdfrwt>
<totfact> 0.13405441E-01</totfact>
</mgrwt>
</event>
<event>
12    3  0.1182097E-007  0.1102062E+04  0.7818608E-02  0.9203185E-01
         -2   -1    0    0    0  501 -0.00000000000E+00  0.00000000000E+00  0.53315055834E+03  0.53315055834E+03  0.00000000000E+00 0.  1.
          1   -1    0    0  501    0  0.00000000000E+00 -0.00000000000E+00 -0.27598760529E+04  0.27598760529E+04  0.00000000000E+00 0. -1.
        -24    2    1    2    0    0  0.89463255141E+03 -0.61089879358E+03 -0.57820267285E+03  0.12312184175E+04  0.89530568167E+02 0.  0.
    5000000    2    1    2    0    0 -0.89463255141E+03  0.61089879358E+03 -0.16485228217E+04  0.20618081938E+04  0.59988398551E+03 0.  0.
        -24    2    4    4    0    0 -0.83791276193E+03  0.61354768570E+03 -0.16600586187E+04  0.19602047371E+04  0.89830031746E+02 0.  0.
         24    2    4    4    0    0 -0.56719789479E+02 -0.26488921198E+01  0.11535796995E+02  0.10160345664E+03  0.83462785968E+02 0.  0.
         11    1    3    3    0    0  0.25211816553E+03 -0.14617386063E+03 -0.19387074961E+03  0.35002319135E+03  0.00000000000E+00 0. -1.
        -12    1    3    3    0    0  0.64251438588E+03 -0.46472493294E+03 -0.38433192324E+03  0.88119522615E+03  0.00000000000E+00 0.  1.
         15    1    5    5    0    0 -0.55265674748E+03  0.43643165651E+03 -0.11852856612E+04  0.13786976926E+04  0.17770000000E+01 0. -1.
        -16    1    5    5    0    0 -0.28525601446E+03  0.17711602919E+03 -0.47477295752E+03  0.58150704448E+03  0.00000000000E+00 0.  1.
          2    1    6    6  502    0 -0.81562966827E+01 -0.24998668107E+02  0.34534973639E+02  0.43406485540E+02  0.00000000000E+00 0. -1.
         -1    1    6    6    0  502 -0.48563492796E+02  0.22349775987E+02 -0.22999176644E+02  0.58196971103E+02  0.00000000000E+00 0.  1.
<mgrwt>
<rscale>  0 0.11020617E+04</rscale>
<asrwt>0</asrwt>
<pdfrwt beam="1">  1        1 0.42459631E+00 0.11020617E+04</pdfrwt>
<pdfrwt beam="2">  1       -2 0.82023163E-01 0.11020617E+04</pdfrwt>
<totfact> 0.10254879E+00</totfact>
</mgrwt>
</event>
<event>
12    3  0.1182097E-007  0.5899356E+03  0.7818608E-02  0.9926509E-01
         -4   -1    0    0    0  501 -0.00000000000E+00  0.00000000000E+00  0.99832734967E+03  0.99832734967E+03  0.00000000000E+00 0.  1.
          3   -1    0    0  501    0  0.00000000000E+00 -0.00000000000E+00 -0.55646011398E+03  0.55646011398E+03  0.00000000000E+00 0. -1.
        -24    2    1    2    0    0  0.42561507572E+03  0.26566936003E+03  0.56926236928E+03  0.76229238953E+03  0.72812365115E+02 0.  0.
    5000000    2    1    2    0    0 -0.42561507572E+03 -0.26566936003E+03 -0.12739513360E+03  0.79249507413E+03  0.60007542935E+03 0.  0.
        -24    2    4    4    0    0 -0.50643087015E+03 -0.21023966217E+03  0.70128028332E+02  0.55775410546E+03  0.74153624403E+02 0.  0.
         24    2    4    4    0    0  0.80815794431E+02 -0.55429697859E+02 -0.19752316193E+03  0.23474096866E+03  0.80525019941E+02 0.  0.
         13    1    3    3    0    0  0.13463047439E+03  0.46661075244E+02  0.17204126997E+03  0.22338491254E+03  0.00000000000E+00 0. -1.
        -14    1    3    3    0    0  0.29098460133E+03  0.21900828479E+03  0.39722109932E+03  0.53890747699E+03  0.00000000000E+00 0.  1.
         15    1    5    5    0    0 -0.11183880514E+03 -0.61185657964E+02  0.44992673124E+02  0.13520022722E+03  0.17770000000E+01 0. -1.
        -16    1    5    5    0    0 -0.39459206501E+03 -0.14905400421E+03  0.25135355208E+02  0.42255387825E+03  0.00000000000E+00 0.  1.
          4    1    6    6  502    0  0.65642552936E+02  0.80260544314E+00 -0.79280776633E+02  0.10293216443E+03  0.00000000000E+00 0. -1.
         -3    1    6    6    0  502  0.15173241495E+02 -0.56232303302E+02 -0.11824238530E+03  0.13180880423E+03  0.00000000000E+00 0.  1.
<mgrwt>
<rscale>  0 0.58993557E+03</rscale>
<asrwt>0</asrwt>
<pdfrwt beam="1">  1        3 0.85609249E-01 0.58993557E+03</pdfrwt>
<pdfrwt beam="2">  1       -4 0.15358882E+00 0.58993557E+03</pdfrwt>
<totfact> 0.79243249E-01</totfact>
</mgrwt>
</event>
<event>
12    3  0.1182097E-007  0.6908629E+03  0.7818608E-02  0.9732987E-01
         -2   -1    0    0    0  501 -0.00000000000E+00  0.00000000000E+00  0.24392141950E+03  0.24392141950E+03  0.00000000000E+00 0.  1.
          1   -1    0    0  501    0  0.00000000000E+00 -0.00000000000E+00 -0.20371457702E+04  0.20371457702E+04  0.00000000000E+00 0. -1.
        -24    2    1    2    0    0  0.53733870309E+03  0.19375639396E+03 -0.83050211527E+03  0.10111415283E+04  0.79993778804E+02 0.  0.
    5000000    2    1    2    0    0 -0.53733870309E+03 -0.19375639396E+03 -0.96272223545E+03  0.12699256615E+04  0.59966879273E+03 0.  0.
        -24    2    4    4    0    0  0.56575015525E+02 -0.20391546477E+03 -0.20962820932E+03  0.30758539473E+03  0.76697716760E+02 0.  0.
         24    2    4    4    0    0 -0.59391371862E+03  0.10159070808E+02 -0.75309402613E+03  0.96234026673E+03  0.78175858750E+02 0.  0.
         13    1    3    3    0    0  0.58715670836E+02  0.45276840306E+02 -0.13321605459E+03  0.15245996022E+03  0.00000000000E+00 0. -1.
        -14    1    3    3    0    0  0.47862303226E+03  0.14847955366E+03 -0.69728606068E+03  0.85868156803E+03  0.00000000000E+00 0.  1.
         15    1    5    5    0    0  0.25142042369E+02 -0.12467680489E+03 -0.17318139627E+03  0.21487527013E+03  0.17770000000E+01 0. -1.
        -16    1    5    5    0    0  0.31432973157E+02 -0.79238659885E+02 -0.36446813044E+02  0.92710124598E+02  0.00000000000E+00 0.  1.
          2    1    6    6  502    0 -0.36409243992E+03  0.79554251736E+01 -0.52138668354E+03  0.63598008410E+03  0.00000000000E+00 0. -1.
         -1    1    6    6    0  502 -0.22982127870E+03  0.22036456348E+01 -0.23170734259E+03  0.32636018263E+03  0.00000000000E+00 0.  1.
<mgrwt>
<rscale>  0 0.69086295E+03</rscale>
<asrwt>0</asrwt>
<pdfrwt beam="1">  1        1 0.31340704E+00 0.69086295E+03</pdfrwt>
<pdfrwt beam="2">  1       -2 0.37526372E-01 0.69086295E+03</pdfrwt>
<totfact> 0.17334809E+01</totfact>
</mgrwt>
</event>
<event>
12    3  0.1182097E-007  0.1202155E+04  0.7818608E-02  0.9110972E-01
          1   -1    0    0  501    0  0.00000000000E+00  0.00000000000E+00  0.14698801675E+04  0.14698801675E+04  0.00000000000E+00 0. -1.
         -2   -1    0    0    0  501 -0.00000000000E+00 -0.00000000000E+00 -0.11782439675E+04  0.11782439675E+04  0.00000000000E+00 0.  1.
        -24    2    1    2    0    0 -0.11803653387E+04  0.56658698281E+02  0.53667905299E+03  0.13002632638E+04  0.78661352392E+02 0.  0.
    5000000    2    1    2    0    0  0.11803653387E+04 -0.56658698281E+02 -0.24504285302E+03  0.13478608713E+04  0.60017529750E+03 0.  0.
        -24    2    4    4    0    0  0.53244752280E+03 -0.16063955240E+03 -0.37324994505E+03  0.67446462822E+03  0.79256437592E+02 0.  0.
         24    2    4    4    0    0  0.64791781586E+03  0.10398085412E+03  0.12820709204E+03  0.67339624307E+03  0.80099485675E+02 0.  0.
         13    1    3    3    0    0 -0.91009424361E+03  0.12827177335E+02  0.39910403982E+03  0.99384108555E+03  0.00000000000E+00 0. -1.
        -14    1    3    3    0    0 -0.27027109505E+03  0.43831520947E+02  0.13757501317E+03  0.30642217821E+03  0.00000000000E+00 0.  1.
         15    1    5    5    0    0  0.53212621344E+03 -0.15239884038E+03 -0.36799111182E+03  0.66468363128E+03  0.17770000000E+01 0. -1.
        -16    1    5    5    0    0  0.32130936661E+00 -0.82407120146E+01 -0.52588332296E+01  0.97809969406E+01  0.00000000000E+00 0.  1.
          2    1    6    6  502    0  0.50469291229E+03  0.57406763081E+02  0.12335403526E+03  0.52271090497E+03  0.00000000000E+00 0. -1.
         -1    1    6    6    0  502  0.14322490357E+03  0.46574091036E+02  0.48530567799E+01  0.15068533810E+03  0.00000000000E+00 0.  1.
<mgrwt>
<rscale>  0 0.12021553E+04</rscale>
<asrwt>0</asrwt>
<pdfrwt beam="1">  1        1 0.22613541E+00 0.12021553E+04</pdfrwt>
<pdfrwt beam="2">  1       -2 0.18126830E+00 0.12021553E+04</pdfrwt>
<totfact> 0.10420775E+00</totfact>
</mgrwt>
</event>
<event>
12    3  0.1182097E-007  0.7143158E+03  0.7818608E-02  0.9693059E-01
         -2   -1    0    0    0  501 -0.00000000000E+00  0.00000000000E+00  0.49757752145E+03  0.49757752145E+03  0.00000000000E+00 0.  1.
          1   -1    0    0  501    0  0.00000000000E+00 -0.00000000000E+00 -0.13354323287E+04  0.13354323287E+04  0.00000000000E+00 0. -1.
        -24    2    1    2    0    0  0.49852553329E+03  0.48905692792E+03 -0.29984315693E+03  0.76638240478E+03  0.98649305711E+02 0.  0.
    5000000    2    1    2    0    0 -0.49852553329E+03 -0.48905692792E+03 -0.53801165028E+03  0.10666274453E+04  0.60044415663E+03 0.  0.
        -24    2    4    4    0    0 -0.46058718368E+03 -0.36731224309E+03 -0.64938998410E+03  0.87999039572E+03  0.74946030122E+02 0.  0.
         24    2    4    4    0    0 -0.37938349608E+02 -0.12174468483E+03  0.11137833381E+03  0.18663704962E+03  0.78531321078E+02 0.  0.
         13    1    3    3    0    0  0.35040605148E+03  0.31923093725E+03 -0.24873468620E+03  0.53531461435E+03  0.00000000000E+00 0. -1.
        -14    1    3    3    0    0  0.14811948181E+03  0.16982599067E+03 -0.51108470729E+02  0.23106779044E+03  0.00000000000E+00 0.  1.
         15    1    5    5    0    0 -0.26163604536E+03 -0.18561912451E+03 -0.30418147752E+03  0.44208303362E+03  0.17770000000E+01 0. -1.
        -16    1    5    5    0    0 -0.19895113832E+03 -0.18169311857E+03 -0.34520850657E+03  0.43790736211E+03  0.00000000000E+00 0.  1.
          2    1    6    6  502    0 -0.20719441147E+02 -0.11995068672E+03  0.66880420736E+02  0.13889007583E+03  0.00000000000E+00 0. -1.
         -1    1    6    6    0  502 -0.17218908461E+02 -0.17939981163E+01  0.44497913078E+02  0.47746973790E+02  0.00000000000E+00 0.  1.
<mgrwt>
<rscale>  0 0.71431585E+03</rscale>
<asrwt>0</asrwt>
<pdfrwt beam="1">  1        1 0.20545113E+00 0.71431585E+03</pdfrwt>
<pdfrwt beam="2">  1       -2 0.76550387E-01 0.71431585E+03</pdfrwt>
<totfact> 0.11810641E+01</totfact>
</mgrwt>
</event>
<event>
12    3  0.1182097E-007  0.4337654E+03  0.7818608E-02  0.1032677E+00
         -2   -1    0    0    0  501 -0.00000000000E+00  0.00000000000E+00  0.20817812898E+03  0.20817812898E+03  0.00000000000E+00 0.  1.
          1   -1    0    0  501    0  0.00000000000E+00 -0.00000000000E+00 -0.11314926280E+04  0.11314926280E+04  0.00000000000E+00 0. -1.
        -24    2    1    2    0    0 -0.21440285105E+03 -0.72622881794E+02 -0.32641978393E+02  0.24210906987E+03  0.79426931583E+02 0.  0.
    5000000    2    1    2    0    0  0.21440285105E+03  0.72622881794E+02 -0.89067252060E+03  0.10975616871E+04  0.60008453781E+03 0.  0.
        -24    2    4    4    0    0  0.15402257603E+03  0.32520598748E+03 -0.51393261220E+03  0.63245053938E+03  0.79906612124E+02 0.  0.
         24    2    4    4    0    0  0.60380275023E+02 -0.25258310568E+03 -0.37673990841E+03  0.46511114772E+03  0.83375165700E+02 0.  0.
         13    1    3    3    0    0 -0.90875678553E+02 -0.19418955464E+02 -0.51583380655E+02  0.10628419423E+03  0.00000000000E+00 0. -1.
        -14    1    3    3    0    0 -0.12352717250E+03 -0.53203926330E+02  0.18941402261E+02  0.13582487564E+03  0.00000000000E+00 0.  1.
         15    1    5    5    0    0  0.11338258441E+03  0.14710157190E+03 -0.26907656595E+03  0.32695540823E+03  0.17770000000E+01 0. -1.
        -16    1    5    5    0    0  0.40639991619E+02  0.17810441558E+03 -0.24485604625E+03  0.30549513114E+03  0.00000000000E+00 0.  1.
          4    1    6    6  502    0  0.18763027503E+02 -0.34185140189E+01 -0.38326635833E+02  0.42809677100E+02  0.00000000000E+00 0. -1.
         -3    1    6    6    0  502  0.41617247520E+02 -0.24916459166E+03 -0.33841327258E+03  0.42230147062E+03  0.00000000000E+00 0.  1.
<mgrwt>
<rscale>  0 0.43376539E+03</rscale>
<asrwt>0</asrwt>
<pdfrwt beam="1">  1        1 0.17407579E+00 0.43376539E+03</pdfrwt>
<pdfrwt beam="2">  1       -2 0.32027403E-01 0.43376539E+03</pdfrwt>
<totfact> 0.10044045E+02</totfact>
</mgrwt>
</event>
<event>
12    3  0.1182097E-007  0.5124333E+03  0.7818608E-02  0.1010584E+00
          1   -1    0    0  501    0  0.00000000000E+00  0.00000000000E+00  0.16465163365E+04  0.16465163365E+04  0.00000000000E+00 0. -1.
         -2   -1    0    0    0  501 -0.00000000000E+00 -0.00000000000E+00 -0.25673044902E+03  0.25673044902E+03  0.00000000000E+00 0.  1.
        -24    2    1    2    0    0  0.50177382511E+02  0.34489855830E+03  0.10904792873E+04  0.11475552430E+04  0.79152855295E+02 0.  0.
    5000000    2    1    2    0    0 -0.50177382511E+02 -0.34489855830E+03  0.29930660021E+03  0.75569154254E+03  0.60001040100E+03 0.  0.
        -24    2    4    4    0    0  0.23863098828E+03 -0.29619004916E+03  0.20547413573E+03  0.43886098825E+03  0.75538419088E+02 0.  0.
         24    2    4    4    0    0 -0.28880837079E+03 -0.48708509135E+02  0.93832464477E+02  0.31683055430E+03  0.76120134300E+02 0.  0.
         11    1    3    3    0    0 -0.14716570468E+01  0.10854046670E+03  0.44992567528E+03  0.46283508074E+03  0.00000000000E+00 0. -1.
        -12    1    3    3    0    0  0.51649039558E+02  0.23635809160E+03  0.64055361200E+03  0.68472016225E+03  0.00000000000E+00 0.  1.
         15    1    5    5    0    0  0.12591482310E+03 -0.17901053447E+03  0.15647015863E+03  0.26904531663E+03  0.17770000000E+01 0. -1.
        -16    1    5    5    0    0  0.11271616517E+03 -0.11717951469E+03  0.49003977106E+02  0.16981567162E+03  0.00000000000E+00 0.  1.
          4    1    6    6  502    0 -0.24431562440E+03 -0.39518636380E+02  0.10684855075E+03  0.26957088074E+03  0.00000000000E+00 0. -1.
         -3    1    6    6    0  502 -0.44492746392E+02 -0.91898727545E+01 -0.13016086273E+02  0.47259673556E+02  0.00000000000E+00 0.  1.
<mgrwt>
<rscale>  0 0.51243334E+03</rscale>
<asrwt>0</asrwt>
<pdfrwt beam="1">  1        1 0.25331020E+00 0.51243334E+03</pdfrwt>
<pdfrwt beam="2">  1       -2 0.39496993E-01 0.51243334E+03</pdfrwt>
<totfact> 0.29423343E+01</totfact>
</mgrwt>
</event>
<event>
12    3  0.1182097E-007  0.8934682E+03  0.7818608E-02  0.9433784E-01
          3   -1    0    0  501    0  0.00000000000E+00  0.00000000000E+00  0.18460702860E+04  0.18460702860E+04  0.00000000000E+00 0. -1.
         -4   -1    0    0    0  501 -0.00000000000E+00 -0.00000000000E+00 -0.63062997726E+03  0.63062997726E+03  0.00000000000E+00 0.  1.
        -24    2    1    2    0    0  0.41158305209E+03  0.77293375785E+03  0.11010091375E+04  0.14090218228E+04  0.79335826913E+02 0.  0.
    5000000    2    1    2    0    0 -0.41158305209E+03 -0.77293375785E+03  0.11443117120E+03  0.10676784404E+04  0.60001296355E+03 0.  0.
        -24    2    4    4    0    0 -0.76529416525E+02 -0.71069962375E+02  0.24233461782E+03  0.27541911511E+03  0.78879216726E+02 0.  0.
         24    2    4    4    0    0 -0.33505363557E+03 -0.70186379548E+03 -0.12790344661E+03  0.79225932533E+03  0.80260954398E+02 0.  0.
         11    1    3    3    0    0  0.14477976811E+03  0.34497357514E+03  0.43871192484E+03  0.57657272031E+03  0.00000000000E+00 0. -1.
        -12    1    3    3    0    0  0.26680328398E+03  0.42796018271E+03  0.66229721265E+03  0.83244910248E+03  0.00000000000E+00 0.  1.
         15    1    5    5    0    0 -0.14855032013E+00  0.15296189683E+02  0.24092667547E+02  0.28593877746E+02  0.17770000000E+01 0. -1.
        -16    1    5    5    0    0 -0.76380866205E+02 -0.86366152058E+02  0.21824195027E+03  0.24682523737E+03  0.00000000000E+00 0.  1.
          2    1    6    6  502    0 -0.26034539472E+03 -0.53538461641E+03 -0.13180058275E+03  0.60974404930E+03  0.00000000000E+00 0. -1.
         -1    1    6    6    0  502 -0.74708240853E+02 -0.16647917907E+03  0.38971361384E+01  0.18251527603E+03  0.00000000000E+00 0.  1.
<mgrwt>
<rscale>  0 0.89346819E+03</rscale>
<asrwt>0</asrwt>
<pdfrwt beam="1">  1        3 0.28401081E+00 0.89346819E+03</pdfrwt>
<pdfrwt beam="2">  1       -4 0.97019997E-01 0.89346819E+03</pdfrwt>
<totfact> 0.94764306E-02</totfact>
</mgrwt>
</event>
<event>
12    3  0.1182097E-007  0.6014693E+03  0.7818608E-02  0.9902362E-01
          1   -1    0    0  501    0  0.00000000000E+00  0.00000000000E+00  0.10385132946E+04  0.10385132946E+04  0.00000000000E+00 0. -1.
         -2   -1    0    0    0  501 -0.00000000000E+00 -0.00000000000E+00 -0.37299800187E+03  0.37299800187E+03  0.00000000000E+00 0.  1.
        -24    2    1    2    0    0 -0.43714603574E+03  0.12094628755E+03  0.10154328750E+03  0.47141526963E+03  0.78718842518E+02 0.  0.
    5000000    2    1    2    0    0  0.43714603574E+03 -0.12094628755E+03  0.56397200525E+03  0.94009602686E+03  0.59999287995E+03 0.  0.
        -24    2    4    4    0    0  0.84671390007E+02 -0.31980147702E+03  0.26499250771E+03  0.43133523561E+03  0.79917628488E+02 0.  0.
         24    2    4    4    0    0  0.35247464573E+03  0.19885518947E+03  0.29897949753E+03  0.50876079126E+03  0.75279748359E+02 0.  0.
         11    1    3    3    0    0 -0.35496810777E+03  0.12877244245E+03  0.88571355938E+02  0.38785252940E+03  0.00000000000E+00 0. -1.
        -12    1    3    3    0    0 -0.82177927967E+02 -0.78261549045E+01  0.12971931557E+02  0.83562740225E+02  0.00000000000E+00 0.  1.
         15    1    5    5    0    0  0.81323900400E+02 -0.21397567356E+03  0.14347409799E+03  0.27016132250E+03  0.17770000000E+01 0. -1.
        -16    1    5    5    0    0  0.33474896074E+01 -0.10582580345E+03  0.12151840973E+03  0.16117391310E+03  0.00000000000E+00 0.  1.
          4    1    6    6  502    0  0.15109670381E+03  0.56224846662E+02  0.85630167822E+02  0.18254854950E+03  0.00000000000E+00 0. -1.
         -3    1    6    6    0  502  0.20137794192E+03  0.14263034281E+03  0.21334932971E+03  0.32621224175E+03  0.00000000000E+00 0.  1.
<mgrwt>
<rscale>  0 0.60146934E+03</rscale>
<asrwt>0</asrwt>
<pdfrwt beam="1">  1        1 0.15977127E+00 0.60146934E+03</pdfrwt>
<pdfrwt beam="2">  1       -2 0.57384309E-01 0.60146934E+03</pdfrwt>
<totfact> 0.36605662E+01</totfact>
</mgrwt>
</event>
<event>
12    3  0.1182097E-007  0.5702441E+03  0.7818608E-02  0.9969139E-01
         -2   -1    0    0    0  501 -0.00000000000E+00  0.00000000000E+00  0.14190924314E+03  0.14190924314E+03  0.00000000000E+00 0.  1.
          1   -1    0    0  501    0  0.00000000000E+00 -0.00000000000E+00 -0.26234825372E+04  0.26234825372E+04  0.00000000000E+00 0. -1.
        -24    2    1    2    0    0 -0.14746065241E+03  0.42659546220E+03 -0.76341494427E+03  0.89035064723E+03  0.78699209137E+02 0.  0.
    5000000    2    1    2    0    0  0.14746065241E+03 -0.42659546220E+03 -0.17181583498E+04  0.18750411331E+04  0.59998566944E+03 0.  0.
        -24    2    4    4    0    0  0.21276949672E+03 -0.52575009257E+03 -0.10954097164E+04  0.12360537165E+04  0.78881714050E+02 0.  0.
         24    2    4    4    0    0 -0.65308844311E+02  0.99154630365E+02 -0.62274863342E+03  0.63898741661E+03  0.79951061798E+02 0.  0.
         13    1    3    3    0    0 -0.11758004344E+03  0.33496322585E+03 -0.65700539401E+03  0.74678076906E+03  0.00000000000E+00 0. -1.
        -14    1    3    3    0    0 -0.29880608969E+02  0.91632236355E+02 -0.10640955026E+03  0.14356987817E+03  0.00000000000E+00 0.  1.
         15    1    5    5    0    0  0.17567378974E+03 -0.38579327219E+03 -0.74972906399E+03  0.86127495980E+03  0.17770000000E+01 0. -1.
        -16    1    5    5    0    0  0.37095706981E+02 -0.13995682038E+03 -0.34568065239E+03  0.37477875672E+03  0.00000000000E+00 0.  1.
          2    1    6    6  502    0 -0.21551076352E+02  0.50849380638E+02 -0.12081440136E+03  0.13283910561E+03  0.00000000000E+00 0. -1.
         -1    1    6    6    0  502 -0.43757767959E+02  0.48305249727E+02 -0.50193423206E+03  0.50614831100E+03  0.00000000000E+00 0.  1.
<mgrwt>
<rscale>  0 0.57024409E+03</rscale>
<asrwt>0</asrwt>
<pdfrwt beam="1">  1        1 0.40361264E+00 0.57024409E+03</pdfrwt>
<pdfrwt beam="2">  1       -2 0.21832194E-01 0.57024409E+03</pdfrwt>
<totfact> 0.19293971E+01</totfact>
</mgrwt>
</event>
<event>
12    3  0.1266947E-007  0.7723062E+03  0.7818608E-02  0.9600991E-01
         -2   -1    0    0    0  501 -0.00000000000E+00  0.00000000000E+00  0.41363299370E+03  0.41363299370E+03  0.00000000000E+00 0.  1.
          1   -1    0    0  501    0  0.00000000000E+00 -0.00000000000E+00 -0.15663345173E+04  0.15663345173E+04  0.00000000000E+00 0. -1.
        -24    2    1    2    0    0  0.24145683148E+03 -0.62093597326E+03 -0.27499838118E+03  0.72528816978E+03  0.80968729880E+02 0.  0.
    5000000    2    1    2    0    0 -0.24145683148E+03  0.62093597326E+03 -0.87770314238E+03  0.12546793412E+04  0.59999546555E+03 0.  0.
        -24    2    4    4    0    0  0.18400596528E+03  0.23968886083E+03 -0.26372651829E+03  0.41222723842E+03  0.95240088119E+02 0.  0.
         24    2    4    4    0    0 -0.42546279676E+03  0.38124711244E+03 -0.61397662409E+03  0.84245210276E+03  0.79939341666E+02 0.  0.
         13    1    3    3    0    0  0.15139729373E+03 -0.28842655665E+03 -0.11494089432E+03  0.34543078658E+03  0.00000000000E+00 0. -1.
        -14    1    3    3    0    0  0.90059537749E+02 -0.33250941661E+03 -0.16005748686E+03  0.37985738320E+03  0.00000000000E+00 0.  1.
         15    1    5    5    0    0  0.12086567339E+03  0.17080481441E+03 -0.12125097246E+03  0.24184241084E+03  0.17770000000E+01 0. -1.
        -16    1    5    5    0    0  0.63140291888E+02  0.68884046418E+02 -0.14247554583E+03  0.17038482758E+03  0.00000000000E+00 0.  1.
          4    1    6    6  502    0 -0.28702044370E+03  0.27038666095E+03 -0.36927433923E+03  0.54023441129E+03  0.00000000000E+00 0. -1.
         -3    1    6    6    0  502 -0.13844235306E+03  0.11086045148E+03 -0.24470228486E+03  0.30221769147E+03  0.00000000000E+00 0.  1.
<mgrwt>
<rscale>  0 0.77230617E+03</rscale>
<asrwt>0</asrwt>
<pdfrwt beam="1">  1        1 0.24097455E+00 0.77230617E+03</pdfrwt>
<pdfrwt beam="2">  1       -2 0.63635844E-01 0.77230617E+03</pdfrwt>
<totfact> 0.12157293E+01</totfact>
</mgrwt>
</event>
<event>
12    3  0.1182097E-007  0.5433922E+03  0.7818608E-02  0.1003035E+00
         -2   -1    0    0    0  501 -0.00000000000E+00  0.00000000000E+00  0.17379186466E+04  0.17379186466E+04  0.00000000000E+00 0.  1.
          1   -1    0    0  501    0  0.00000000000E+00 -0.00000000000E+00 -0.35506990194E+03  0.35506990194E+03  0.00000000000E+00 0. -1.
        -24    2    1    2    0    0  0.41406760758E+03  0.21112281438E+03 -0.48024314232E+02  0.47329846162E+03  0.75367583344E+02 0.  0.
    5000000    2    1    2    0    0 -0.41406760758E+03 -0.21112281438E+03  0.14308730589E+04  0.16196900869E+04  0.59997786676E+03 0.  0.
        -24    2    4    4    0    0 -0.38543927970E+03  0.16925525638E+01  0.12928675050E+04  0.13513026186E+04  0.77110820054E+02 0.  0.
         24    2    4    4    0    0 -0.28628327881E+02 -0.21281536694E+03  0.13800555388E+03  0.26838746827E+03  0.82923691798E+02 0.  0.
         13    1    3    3    0    0  0.15139707313E+03  0.43697580189E+02 -0.35659149548E+02  0.16156152764E+03  0.00000000000E+00 0. -1.
        -14    1    3    3    0    0  0.26267053445E+03  0.16742523419E+03 -0.12365164683E+02  0.31173693398E+03  0.00000000000E+00 0.  1.
         15    1    5    5    0    0 -0.34168101867E+03 -0.13526225291E+02  0.10572969766E+04  0.11112195696E+04  0.17770000000E+01 0. -1.
        -16    1    5    5    0    0 -0.43758261033E+02  0.15218777855E+02  0.23557052838E+03  0.24008304907E+03  0.00000000000E+00 0.  1.
          2    1    6    6  502    0 -0.44736904530E+02 -0.55455248761E+02  0.32978065354E+02  0.78512597949E+02  0.00000000000E+00 0. -1.
         -3    1    6    6    0  502  0.16108576649E+02 -0.15736011818E+03  0.10502748852E+03  0.18987487032E+03  0.00000000000E+00 0.  1.
<mgrwt>
<rscale>  0 0.54339224E+03</rscale>
<asrwt>0</asrwt>
<pdfrwt beam="1">  1        1 0.54626140E-01 0.54339224E+03</pdfrwt>
<pdfrwt beam="2">  1       -2 0.26737210E+00 0.54339224E+03</pdfrwt>
<totfact> 0.33113960E+00</totfact>
</mgrwt>
</event>
<event>
12    3  0.1182097E-007  0.7243298E+03  0.7818608E-02  0.9676506E-01
          3   -1    0    0  501    0  0.00000000000E+00  0.00000000000E+00  0.23544694139E+03  0.23544694139E+03  0.00000000000E+00 0. -1.
         -4   -1    0    0    0  501 -0.00000000000E+00 -0.00000000000E+00 -0.24368107445E+04  0.24368107445E+04  0.00000000000E+00 0.  1.
        -24    2    1    2    0    0 -0.60903665762E+03 -0.91168808294E+02 -0.65562835109E+03  0.90348499293E+03  0.84848074568E+02 0.  0.
    5000000    2    1    2    0    0  0.60903665762E+03  0.91168808294E+02 -0.15457354520E+04  0.17687726930E+04  0.60001779124E+03 0.  0.
        -24    2    4    4    0    0  0.16205573817E+03  0.28381380532E+03 -0.40711667740E+03  0.52791031010E+03  0.78313269151E+02 0.  0.
         24    2    4    4    0    0  0.44698091945E+03 -0.19264499702E+03 -0.11386187746E+04  0.12408623829E+04  0.79891814815E+02 0.  0.
         11    1    3    3    0    0 -0.51023996451E+03 -0.10204270675E+03 -0.57510914908E+03  0.77556951251E+03  0.00000000000E+00 0. -1.
        -12    1    3    3    0    0 -0.98796693112E+02  0.10873898456E+02 -0.80519202020E+02  0.12791548042E+03  0.00000000000E+00 0.  1.
         15    1    5    5    0    0  0.96527488513E+02  0.93336431053E+02 -0.17480995664E+03  0.22043349127E+03  0.17770000000E+01 0. -1.
        -16    1    5    5    0    0  0.65528249658E+02  0.19047737426E+03 -0.23230672076E+03  0.30747681883E+03  0.00000000000E+00 0.  1.
          4    1    6    6  502    0  0.33223542867E+03 -0.10376677310E+03 -0.81044503203E+03  0.88202555134E+03  0.00000000000E+00 0. -1.
         -3    1    6    6    0  502  0.11474549079E+03 -0.88878223920E+02 -0.32817374257E+03  0.35883683152E+03  0.00000000000E+00 0.  1.
<mgrwt>
<rscale>  0 0.72432976E+03</rscale>
<asrwt>0</asrwt>
<pdfrwt beam="1">  1        3 0.36222608E-01 0.72432976E+03</pdfrwt>
<pdfrwt beam="2">  1       -4 0.37489394E+00 0.72432976E+03</pdfrwt>
<totfact> 0.18239619E-01</totfact>
</mgrwt>
</event>
<event>
12    3  0.1182097E-007  0.1014001E+04  0.7818608E-02  0.9293321E-01
          1   -1    0    0  501    0  0.00000000000E+00  0.00000000000E+00  0.85440212433E+03  0.85440212433E+03  0.00000000000E+00 0. -1.
         -2   -1    0    0    0  501 -0.00000000000E+00 -0.00000000000E+00 -0.19735982526E+04  0.19735982526E+04  0.00000000000E+00 0.  1.
        -24    2    1    2    0    0 -0.57975049575E+03 -0.82776682864E+03  0.22917655428E+03  0.10392808076E+04  0.79209495198E+02 0.  0.
    5000000    2    1    2    0    0  0.57975049575E+03  0.82776682864E+03 -0.13483726826E+04  0.17887195693E+04  0.60008353308E+03 0.  0.
        -24    2    4    4    0    0  0.42723498710E+03  0.64030392131E+03 -0.54619547539E+03  0.94730046093E+03  0.80807302220E+02 0.  0.
         24    2    4    4    0    0  0.15251550864E+03  0.18746290733E+03 -0.80217720716E+03  0.84141910838E+03  0.78067421226E+02 0.  0.
         13    1    3    3    0    0 -0.14321093939E+03 -0.18283493209E+03  0.84704035400E+02  0.24720994957E+03  0.00000000000E+00 0. -1.
        -14    1    3    3    0    0 -0.43653955635E+03 -0.64493189656E+03  0.14447251888E+03  0.79207085805E+03  0.00000000000E+00 0.  1.
         15    1    5    5    0    0  0.18682542180E+03  0.35094803925E+03 -0.26976726188E+03  0.48046414830E+03  0.17770000000E+01 0. -1.
        -16    1    5    5    0    0  0.24040956530E+03  0.28935588206E+03 -0.27642821351E+03  0.46683631264E+03  0.00000000000E+00 0.  1.
          4    1    6    6  502    0  0.68236158796E+02  0.10541250435E+03 -0.29194800089E+03  0.31780749623E+03  0.00000000000E+00 0. -1.
         -1    1    6    6    0  502  0.84279349848E+02  0.82050402985E+02 -0.51022920628E+03  0.52361161215E+03  0.00000000000E+00 0.  1.
<mgrwt>
<rscale>  0 0.10140007E+04</rscale>
<asrwt>0</asrwt>
<pdfrwt beam="1">  1        1 0.13144648E+00 0.10140007E+04</pdfrwt>
<pdfrwt beam="2">  1       -2 0.30363050E+00 0.10140007E+04</pdfrwt>
<totfact> 0.52926251E-01</totfact>
</mgrwt>
</event>
<event>
12    3  0.1182097E-007  0.1043869E+04  0.7818608E-02  0.9261697E-01
         -2   -1    0    0    0  501 -0.00000000000E+00  0.00000000000E+00  0.62546299930E+03  0.62546299930E+03  0.00000000000E+00 0.  1.
          1   -1    0    0  501    0  0.00000000000E+00 -0.00000000000E+00 -0.19567756533E+04  0.19567756533E+04  0.00000000000E+00 0. -1.
        -24    2    1    2    0    0  0.65283324928E+03 -0.76752361076E+03 -0.82623504083E+03  0.13055183198E+04  0.80187256380E+02 0.  0.
    5000000    2    1    2    0    0 -0.65283324928E+03  0.76752361076E+03 -0.50507761316E+03  0.12767203328E+04  0.59968964350E+03 0.  0.
        -24    2    4    4    0    0 -0.43566473182E+03  0.71973179317E+03 -0.16252669246E+03  0.86061621353E+03  0.80173116337E+02 0.  0.
         24    2    4    4    0    0 -0.21716851746E+03  0.47791817590E+02 -0.34255092070E+03  0.41610411930E+03  0.79720022736E+02 0.  0.
         13    1    3    3    0    0  0.64222972755E+02 -0.49971460359E+02 -0.85864813993E+02  0.11829836585E+03  0.00000000000E+00 0. -1.
        -14    1    3    3    0    0  0.58861027652E+03 -0.71755215040E+03 -0.74037022683E+03  0.11872199539E+04  0.00000000000E+00 0.  1.
         15    1    5    5    0    0 -0.29653951916E+02  0.97306014766E+02 -0.12798432742E+02  0.10254157685E+03  0.17770000000E+01 0. -1.
        -16    1    5    5    0    0 -0.40601077990E+03  0.62242577841E+03 -0.14972825972E+03  0.75807463668E+03  0.00000000000E+00 0.  1.
          2    1    6    6  502    0 -0.27002527480E+02 -0.17680426813E+02 -0.72758538424E+02  0.79596098498E+02  0.00000000000E+00 0. -1.
         -1    1    6    6    0  502 -0.19016598998E+03  0.65472244403E+02 -0.26979238227E+03  0.33650802080E+03  0.00000000000E+00 0.  1.
<mgrwt>
<rscale>  0 0.10438688E+04</rscale>
<asrwt>0</asrwt>
<pdfrwt beam="1">  1        1 0.30104240E+00 0.10438688E+04</pdfrwt>
<pdfrwt beam="2">  1       -2 0.96225078E-01 0.10438688E+04</pdfrwt>
<totfact> 0.25314992E+00</totfact>
</mgrwt>
</event>
<event>
12    3  0.1182097E-007  0.4258997E+03  0.7818608E-02  0.1035163E+00
         -2   -1    0    0    0  501 -0.00000000000E+00  0.00000000000E+00  0.32299945293E+03  0.32299945293E+03  0.00000000000E+00 0.  1.
          1   -1    0    0  501    0  0.00000000000E+00 -0.00000000000E+00 -0.93767063118E+03  0.93767063118E+03  0.00000000000E+00 0. -1.
        -24    2    1    2    0    0  0.36720414886E+03 -0.96057616674E+02 -0.17481798832E+03  0.42563834212E+03  0.80874696795E+02 0.  0.
    5000000    2    1    2    0    0 -0.36720414886E+03  0.96057616674E+02 -0.43985318993E+03  0.83503174199E+03  0.59978431855E+03 0.  0.
        -24    2    4    4    0    0 -0.12390255029E+02  0.78528901020E+02  0.12142104601E+03  0.16547207313E+03  0.79483519399E+02 0.  0.
         24    2    4    4    0    0 -0.35481389383E+03  0.17528715653E+02 -0.56127423594E+03  0.66955966886E+03  0.84150027387E+02 0.  0.
         11    1    3    3    0    0  0.24768734119E+03 -0.10150382225E+03 -0.13300016271E+03  0.29889979625E+03  0.00000000000E+00 0. -1.
        -12    1    3    3    0    0  0.11951680767E+03  0.54462055755E+01 -0.41817825615E+02  0.12673854588E+03  0.00000000000E+00 0.  1.
         15    1    5    5    0    0  0.30388319370E+02  0.23946805239E+02  0.22908887871E+02  0.44998603398E+02  0.17770000000E+01 0. -1.
        -16    1    5    5    0    0 -0.42778574400E+02  0.54582095782E+02  0.98512158140E+02  0.12047346973E+03  0.00000000000E+00 0.  1.
          4    1    6    6  502    0 -0.59298419207E+02 -0.77644249173E+01 -0.15816318717E+03  0.16909223102E+03  0.00000000000E+00 0. -1.
         -3    1    6    6    0  502 -0.29551547463E+03  0.25293140571E+02 -0.40311104877E+03  0.50046743784E+03  0.00000000000E+00 0.  1.
<mgrwt>
<rscale>  0 0.42589969E+03</rscale>
<asrwt>0</asrwt>
<pdfrwt beam="1">  1        1 0.14425702E+00 0.42589969E+03</pdfrwt>
<pdfrwt beam="2">  1       -2 0.49692223E-01 0.42589969E+03</pdfrwt>
<totfact> 0.60174474E+01</totfact>
</mgrwt>
</event>
<event>
12    3  0.1182097E-007  0.5717131E+03  0.7818608E-02  0.9965895E-01
         -2   -1    0    0    0  501 -0.00000000000E+00  0.00000000000E+00  0.27692520537E+03  0.27692520537E+03  0.00000000000E+00 0.  1.
          1   -1    0    0  501    0  0.00000000000E+00 -0.00000000000E+00 -0.13048392943E+04  0.13048392943E+04  0.00000000000E+00 0. -1.
        -24    2    1    2    0    0 -0.32022769505E+03  0.29542681598E+03 -0.51799797668E+03  0.68187417169E+03  0.82508798910E+02 0.  0.
    5000000    2    1    2    0    0  0.32022769505E+03 -0.29542681598E+03 -0.50991611229E+03  0.89989032803E+03  0.59997114984E+03 0.  0.
        -24    2    4    4    0    0  0.47137993030E+03 -0.25481941725E+03 -0.27617890079E+03  0.60819693653E+03  0.80602445774E+02 0.  0.
         24    2    4    4    0    0 -0.15115223526E+03 -0.40607398731E+02 -0.23373721150E+03  0.29169339150E+03  0.77175070784E+02 0.  0.
         11    1    3    3    0    0 -0.30673509713E+02  0.49674349691E+02 -0.10959082619E+03  0.12417147177E+03  0.00000000000E+00 0. -1.
        -12    1    3    3    0    0 -0.28955418533E+03  0.24575246629E+03 -0.40840715049E+03  0.55770269993E+03  0.00000000000E+00 0.  1.
         15    1    5    5    0    0  0.34344531770E+02 -0.29377954436E+02 -0.22342137722E+01  0.45285323335E+02  0.17770000000E+01 0. -1.
        -16    1    5    5    0    0  0.43703539853E+03 -0.22544146281E+03 -0.27394468702E+03  0.56291161320E+03  0.00000000000E+00 0.  1.
          2    1    6    6  502    0 -0.10538649142E+03 -0.56812415133E+02 -0.12756858733E+03  0.17495058605E+03  0.00000000000E+00 0. -1.
         -1    1    6    6    0  502 -0.45765743837E+02  0.16205016402E+02 -0.10616862417E+03  0.11674280545E+03  0.00000000000E+00 0.  1.
<mgrwt>
<rscale>  0 0.57171307E+03</rscale>
<asrwt>0</asrwt>
<pdfrwt beam="1">  1        1 0.20074451E+00 0.57171307E+03</pdfrwt>
<pdfrwt beam="2">  1       -2 0.42603877E-01 0.57171307E+03</pdfrwt>
<totfact> 0.43013934E+01</totfact>
</mgrwt>
</event>
<event>
12    3  0.1182097E-007  0.1123638E+04  0.7818608E-02  0.9182454E-01
         -2   -1    0    0    0  501 -0.00000000000E+00  0.00000000000E+00  0.15399522906E+04  0.15399522906E+04  0.00000000000E+00 0.  1.
          1   -1    0    0  501    0  0.00000000000E+00 -0.00000000000E+00 -0.94626315604E+03  0.94626315604E+03  0.00000000000E+00 0. -1.
        -24    2    1    2    0    0 -0.61573041879E+03 -0.91648355144E+03  0.25920532472E+02  0.11073207742E+04  0.80133478042E+02 0.  0.
    5000000    2    1    2    0    0  0.61573041879E+03  0.91648355144E+03  0.56776860204E+03  0.13788946724E+04  0.59993606608E+03 0.  0.
        -24    2    4    4    0    0  0.26890471780E+03  0.61793399392E+03  0.45582371653E+02  0.68009976476E+03  0.79408874358E+02 0.  0.
         24    2    4    4    0    0  0.34682570100E+03  0.29854955752E+03  0.52218623039E+03  0.69879490762E+03  0.78841350469E+02 0.  0.
         13    1    3    3    0    0 -0.48927466610E+03 -0.67364583551E+03  0.35843399360E+02  0.83335056241E+03  0.00000000000E+00 0. -1.
        -14    1    3    3    0    0 -0.12645575269E+03 -0.24283771593E+03 -0.99228668882E+01  0.27397021180E+03  0.00000000000E+00 0.  1.
         15    1    5    5    0    0  0.17350047014E+03  0.48233808273E+03  0.41128081725E+02  0.51424421827E+03  0.17770000000E+01 0. -1.
        -16    1    5    5    0    0  0.95404247659E+02  0.13559591119E+03  0.44542899284E+01  0.16585554649E+03  0.00000000000E+00 0.  1.
          4    1    6    6  502    0  0.31109770431E+03  0.29102446595E+03  0.46223322294E+03  0.62859889739E+03  0.00000000000E+00 0. -1.
         -3    1    6    6    0  502  0.35727996688E+02  0.75250915661E+01  0.59953007450E+02  0.70196010233E+02  0.00000000000E+00 0.  1.
<mgrwt>
<rscale>  0 0.11236378E+04</rscale>
<asrwt>0</asrwt>
<pdfrwt beam="1">  1        1 0.14557895E+00 0.11236378E+04</pdfrwt>
<pdfrwt beam="2">  1       -2 0.23691574E+00 0.11236378E+04</pdfrwt>
<totfact> 0.11157068E+00</totfact>
</mgrwt>
</event>
<event>
12    3  0.1182097E-007  0.4670561E+03  0.7818608E-02  0.1022754E+00
         -4   -1    0    0    0  501 -0.00000000000E+00  0.00000000000E+00  0.12382637049E+04  0.12382637049E+04  0.00000000000E+00 0.  1.
          3   -1    0    0  501    0  0.00000000000E+00 -0.00000000000E+00 -0.20747495741E+03  0.20747495741E+03  0.00000000000E+00 0. -1.
        -24    2    1    2    0    0 -0.90313966618E+02  0.30528790261E+03  0.41045978695E+03  0.52589382326E+03  0.82035118061E+02 0.  0.
    5000000    2    1    2    0    0  0.90313966618E+02 -0.30528790261E+03  0.62032896059E+03  0.91984483908E+03  0.59995765900E+03 0.  0.
        -24    2    4    4    0    0  0.25478178356E+02  0.14043375375E+03  0.18130344708E+02  0.16415099992E+03  0.79032048001E+02 0.  0.
         24    2    4    4    0    0  0.64835788262E+02 -0.44572165636E+03  0.60219861588E+03  0.75569383916E+03  0.74555557728E+02 0.  0.
         11    1    3    3    0    0 -0.56036420179E+02  0.11016835660E+03  0.10693680765E+03  0.16343998291E+03  0.00000000000E+00 0. -1.
        -12    1    3    3    0    0 -0.34277546438E+02  0.19511954601E+03  0.30352297929E+03  0.36245384035E+03  0.00000000000E+00 0.  1.
         15    1    5    5    0    0 -0.31953785061E+01  0.13007260701E+03  0.31039017968E+01  0.13016099828E+03  0.17770000000E+01 0. -1.
        -16    1    5    5    0    0  0.28673556862E+02  0.10361146739E+02  0.15026442911E+02  0.33990001639E+02  0.00000000000E+00 0.  1.
          4    1    6    6  502    0  0.42473096461E+02 -0.38007349481E+03  0.46587486744E+03  0.60274307751E+03  0.00000000000E+00 0. -1.
         -3    1    6    6    0  502  0.22362691801E+02 -0.65648161559E+02  0.13632374844E+03  0.15295076165E+03  0.00000000000E+00 0.  1.
<mgrwt>
<rscale>  0 0.46705611E+03</rscale>
<asrwt>0</asrwt>
<pdfrwt beam="1">  1        3 0.31919225E-01 0.46705611E+03</pdfrwt>
<pdfrwt beam="2">  1       -4 0.19050210E+00 0.46705611E+03</pdfrwt>
<totfact> 0.33588348E+00</totfact>
</mgrwt>
</event>
<event>
12    3  0.1182097E-007  0.7209402E+03  0.7818608E-02  0.9682077E-01
          1   -1    0    0  501    0  0.00000000000E+00  0.00000000000E+00  0.46511302380E+03  0.46511302380E+03  0.00000000000E+00 0. -1.
         -2   -1    0    0    0  501 -0.00000000000E+00 -0.00000000000E+00 -0.11577175512E+04  0.11577175512E+04  0.00000000000E+00 0.  1.
        -24    2    1    2    0    0 -0.59890129370E+03  0.10024001401E+03 -0.32715185157E+03  0.69430371181E+03  0.79363028162E+02 0.  0.
    5000000    2    1    2    0    0  0.59890129370E+03 -0.10024001401E+03 -0.36545267588E+03  0.92852686324E+03  0.59989637226E+03 0.  0.
        -24    2    4    4    0    0  0.54731336296E+03  0.14449415108E+03 -0.34218649554E+03  0.66616844202E+03  0.79109534527E+02 0.  0.
         24    2    4    4    0    0  0.51587930741E+02 -0.24473416509E+03 -0.23266180333E+02  0.26235842121E+03  0.75726480659E+02 0.  0.
         11    1    3    3    0    0 -0.27094945961E+03  0.73451994371E+02 -0.11872845344E+03  0.30480362661E+03  0.00000000000E+00 0. -1.
        -12    1    3    3    0    0 -0.32795183409E+03  0.26788019644E+02 -0.20842339813E+03  0.38950008520E+03  0.00000000000E+00 0.  1.
         15    1    5    5    0    0  0.33386409458E+03  0.12494941037E+03 -0.23000810502E+03  0.42424577182E+03  0.17770000000E+01 0. -1.
        -16    1    5    5    0    0  0.21344926837E+03  0.19544740702E+02 -0.11217839052E+03  0.24192267020E+03  0.00000000000E+00 0.  1.
          4    1    6    6  502    0 -0.19689385781E+02 -0.65466810906E+02 -0.81933672002E+01  0.68852788677E+02  0.00000000000E+00 0. -1.
         -3    1    6    6    0  502  0.71277316522E+02 -0.17926735418E+03 -0.15072813133E+02  0.19350563253E+03  0.00000000000E+00 0.  1.
<mgrwt>
<rscale>  0 0.72094024E+03</rscale>
<asrwt>0</asrwt>
<pdfrwt beam="1">  1        1 0.71555851E-01 0.72094024E+03</pdfrwt>
<pdfrwt beam="2">  1       -2 0.17811039E+00 0.72094024E+03</pdfrwt>
<totfact> 0.82030073E+00</totfact>
</mgrwt>
</event>
<event>
12    3  0.1182097E-007  0.8222998E+03  0.7818608E-02  0.9528288E-01
          1   -1    0    0  501    0  0.00000000000E+00  0.00000000000E+00  0.86385585223E+03  0.86385585223E+03  0.00000000000E+00 0. -1.
         -2   -1    0    0    0  501 -0.00000000000E+00 -0.00000000000E+00 -0.10571990216E+04  0.10571990216E+04  0.00000000000E+00 0.  1.
        -24    2    1    2    0    0  0.26460226209E+03 -0.75140291898E+03 -0.41154937666E+03  0.90014337484E+03  0.79148607504E+02 0.  0.
    5000000    2    1    2    0    0 -0.26460226209E+03  0.75140291898E+03  0.21820620726E+03  0.10209114990E+04  0.60002136314E+03 0.  0.
        -24    2    4    4    0    0 -0.18331049638E+03  0.68348839441E+03  0.38355211394E+03  0.80877171377E+03  0.78995806838E+02 0.  0.
         24    2    4    4    0    0 -0.81291765708E+02  0.67914524574E+02 -0.16534590669E+03  0.21213978527E+03  0.80270080458E+02 0.  0.
         13    1    3    3    0    0  0.56581807677E+02 -0.26813708754E+03 -0.12791985529E+03  0.30242765756E+03  0.00000000000E+00 0. -1.
        -14    1    3    3    0    0  0.20802045441E+03 -0.48326583144E+03 -0.28362952137E+03  0.59771571728E+03  0.00000000000E+00 0.  1.
         15    1    5    5    0    0 -0.14651110066E+03  0.40468099145E+03  0.24556593522E+03  0.49551790454E+03  0.17770000000E+01 0. -1.
        -16    1    5    5    0    0 -0.36799395727E+02  0.27880740296E+03  0.13798617873E+03  0.31325380922E+03  0.00000000000E+00 0.  1.
          4    1    6    6  502    0 -0.87368732604E+02  0.27002589497E+02 -0.11759462803E+03  0.14896621032E+03  0.00000000000E+00 0. -1.
         -3    1    6    6    0  502  0.60769668961E+01  0.40911935077E+02 -0.47751278662E+02  0.63173574952E+02  0.00000000000E+00 0.  1.
<mgrwt>
<rscale>  0 0.82229984E+03</rscale>
<asrwt>0</asrwt>
<pdfrwt beam="1">  1        1 0.13290090E+00 0.82229984E+03</pdfrwt>
<pdfrwt beam="2">  1       -2 0.16264600E+00 0.82229984E+03</pdfrwt>
<totfact> 0.41795696E+00</totfact>
</mgrwt>
</event>
<event>
12    3  0.1182097E-007  0.7805192E+03  0.7818608E-02  0.9588651E-01
          1   -1    0    0  501    0  0.00000000000E+00  0.00000000000E+00  0.42163919601E+03  0.42163919601E+03  0.00000000000E+00 0. -1.
         -2   -1    0    0    0  501 -0.00000000000E+00 -0.00000000000E+00 -0.16778878256E+04  0.16778878256E+04  0.00000000000E+00 0.  1.
        -24    2    1    2    0    0 -0.37184853820E+03 -0.58249703513E+03 -0.84982576412E+03  0.10981622846E+04  0.78628510535E+02 0.  0.
    5000000    2    1    2    0    0  0.37184853820E+03  0.58249703513E+03 -0.40642286546E+03  0.10013647370E+04  0.59998138276E+03 0.  0.
        -24    2    4    4    0    0  0.49825806541E+03  0.45262259589E+03 -0.43221607935E+03  0.80398815004E+03  0.80361011133E+02 0.  0.
         24    2    4    4    0    0 -0.12640952721E+03  0.12987443924E+03  0.25793213889E+02  0.19737658696E+03  0.73793554339E+02 0.  0.
         11    1    3    3    0    0 -0.20100098221E+03 -0.37913562644E+03 -0.55031767770E+03  0.69785010172E+03  0.00000000000E+00 0. -1.
        -12    1    3    3    0    0 -0.17084755600E+03 -0.20336140869E+03 -0.29950808642E+03  0.40031218288E+03  0.00000000000E+00 0.  1.
         15    1    5    5    0    0  0.43691921564E+03  0.35979602555E+03 -0.37414763330E+03  0.67848448046E+03  0.17770000000E+01 0. -1.
        -16    1    5    5    0    0  0.61338849771E+02  0.92826570339E+02 -0.58068446051E+02  0.12550366958E+03  0.00000000000E+00 0.  1.
          4    1    6    6  502    0 -0.12742895842E+03  0.10767141960E+03  0.49414999658E+01  0.16690024705E+03  0.00000000000E+00 0. -1.
         -1    1    6    6    0  502  0.10194312129E+01  0.22203019644E+02  0.20851713923E+02  0.30476339918E+02  0.00000000000E+00 0.  1.
<mgrwt>
<rscale>  0 0.78051921E+03</rscale>
<asrwt>0</asrwt>
<pdfrwt beam="1">  1        1 0.64867567E-01 0.78051921E+03</pdfrwt>
<pdfrwt beam="2">  1       -2 0.25813659E+00 0.78051921E+03</pdfrwt>
<totfact> 0.28892551E+00</totfact>
</mgrwt>
</event>
<event>
12    3  0.1182097E-007  0.2386375E+04  0.7818608E-02  0.8444622E-01
          1   -1    0    0  501    0  0.00000000000E+00  0.00000000000E+00  0.43228952653E+04  0.43228952653E+04  0.00000000000E+00 0. -1.
         -2   -1    0    0    0  501 -0.00000000000E+00 -0.00000000000E+00 -0.13249649927E+04  0.13249649927E+04  0.00000000000E+00 0.  1.
        -24    2    1    2    0    0 -0.17612380425E+04 -0.15559633660E+04  0.12971962317E+04  0.26855286092E+04  0.79777241210E+02 0.  0.
    5000000    2    1    2    0    0  0.17612380425E+04  0.15559633660E+04  0.17007340409E+04  0.29623316488E+04  0.59994256453E+03 0.  0.
        -24    2    4    4    0    0  0.57537894250E+03  0.88894479897E+03  0.71034343282E+03  0.12775984178E+04  0.79913337884E+02 0.  0.
         24    2    4    4    0    0  0.11858591000E+04  0.66701856707E+03  0.99039060805E+03  0.16847332310E+04  0.79227073011E+02 0.  0.
         11    1    3    3    0    0 -0.14069482528E+04 -0.12738167000E+04  0.10226977021E+04  0.21559274016E+04  0.00000000000E+00 0. -1.
        -12    1    3    3    0    0 -0.35428978975E+03 -0.28214666604E+03  0.27449852962E+03  0.52960120755E+03  0.00000000000E+00 0.  1.
         15    1    5    5    0    0  0.53073163295E+03  0.77939094980E+03  0.61641252063E+03  0.11265406660E+04  0.17770000000E+01 0. -1.
        -16    1    5    5    0    0  0.44647309552E+02  0.10955384917E+03  0.93930912192E+02  0.15105775182E+03  0.00000000000E+00 0.  1.
          2    1    6    6  502    0  0.11400649784E+04  0.63757015155E+03  0.93034361545E+03  0.16036779901E+04  0.00000000000E+00 0. -1.
         -3    1    6    6    0  502  0.45794121608E+02  0.29448415518E+02  0.60046992602E+02  0.81055240860E+02  0.00000000000E+00 0.  1.
<mgrwt>
<rscale>  0 0.23863754E+04</rscale>
<asrwt>0</asrwt>
<pdfrwt beam="1">  1        1 0.66506080E+00 0.23863754E+04</pdfrwt>
<pdfrwt beam="2">  1       -2 0.20384077E+00 0.23863754E+04</pdfrwt>
<totfact> 0.45755086E-03</totfact>
</mgrwt>
</event>
<event>
12    3  0.1182097E-007  0.1008392E+04  0.7818608E-02  0.9299388E-01
          1   -1    0    0  501    0  0.00000000000E+00  0.00000000000E+00  0.60237475408E+03  0.60237475408E+03  0.00000000000E+00 0. -1.
         -2   -1    0    0    0  501 -0.00000000000E+00 -0.00000000000E+00 -0.18867183791E+04  0.18867183791E+04  0.00000000000E+00 0.  1.
        -24    2    1    2    0    0 -0.91840134873E+03  0.13084443173E+03 -0.96096287179E+03  0.13379494722E+04  0.77960544249E+02 0.  0.
    5000000    2    1    2    0    0  0.91840134873E+03 -0.13084443173E+03 -0.32338075328E+03  0.11511436611E+04  0.59997942810E+03 0.  0.
        -24    2    4    4    0    0  0.27375585708E+03 -0.30470569930E+03 -0.21773280934E+03  0.47070165312E+03  0.79778678324E+02 0.  0.
         24    2    4    4    0    0  0.64464549165E+03  0.17386126757E+03 -0.10564794395E+03  0.68044200794E+03  0.77745018153E+02 0.  0.
         13    1    3    3    0    0 -0.53661719195E+03  0.38688022912E+02 -0.56864951145E+03  0.78282631578E+03  0.00000000000E+00 0. -1.
        -14    1    3    3    0    0 -0.38178415678E+03  0.92156408820E+02 -0.39231336034E+03  0.55512315639E+03  0.00000000000E+00 0.  1.
         15    1    5    5    0    0  0.52437811175E+02 -0.20348043352E+02 -0.39051505446E+02  0.68497771610E+02  0.17770000000E+01 0. -1.
        -16    1    5    5    0    0  0.22131804591E+03 -0.28435765595E+03 -0.17868130389E+03  0.40220388151E+03  0.00000000000E+00 0.  1.
          2    1    6    6  502    0  0.30921906344E+03  0.10833895991E+03 -0.82597091570E+02  0.33789945097E+03  0.00000000000E+00 0. -1.
         -1    1    6    6    0  502  0.33542642821E+03  0.65522307655E+02 -0.23050852377E+02  0.34254255697E+03  0.00000000000E+00 0.  1.
<mgrwt>
<rscale>  0 0.10083920E+04</rscale>
<asrwt>0</asrwt>
<pdfrwt beam="1">  1        1 0.92673040E-01 0.10083920E+04</pdfrwt>
<pdfrwt beam="2">  1       -2 0.29026436E+00 0.10083920E+04</pdfrwt>
<totfact> 0.10948394E+00</totfact>
</mgrwt>
</event>
<event>
12    3  0.1182097E-007  0.1011551E+04  0.7818608E-02  0.9295966E-01
          1   -1    0    0  501    0  0.00000000000E+00  0.00000000000E+00  0.14061161316E+04  0.14061161316E+04  0.00000000000E+00 0. -1.
         -2   -1    0    0    0  501 -0.00000000000E+00 -0.00000000000E+00 -0.77271019255E+03  0.77271019255E+03  0.00000000000E+00 0.  1.
        -24    2    1    2    0    0  0.44124923449E+03 -0.83858581111E+03  0.17382367192E+03  0.96677838535E+03  0.80738639548E+02 0.  0.
    5000000    2    1    2    0    0 -0.44124923449E+03  0.83858581111E+03  0.45958226709E+03  0.12120479388E+04  0.59993107610E+03 0.  0.
        -24    2    4    4    0    0 -0.29280774056E+03  0.86944753837E+03  0.48225602985E+03  0.10395714720E+04  0.80390124381E+02 0.  0.
         24    2    4    4    0    0 -0.14844149394E+03 -0.30861727261E+02 -0.22673762758E+02  0.17247646678E+03  0.79036123035E+02 0.  0.
         13    1    3    3    0    0  0.31332616896E+03 -0.59731966912E+03  0.86272379789E+02  0.68000514615E+03  0.00000000000E+00 0. -1.
        -14    1    3    3    0    0  0.12792306553E+03 -0.24126614199E+03  0.87551292135E+02  0.28677323920E+03  0.00000000000E+00 0.  1.
         15    1    5    5    0    0 -0.16087090849E+03  0.59331808317E+03  0.33136069487E+03  0.69836155739E+03  0.17770000000E+01 0. -1.
        -16    1    5    5    0    0 -0.13193683206E+03  0.27612945521E+03  0.15089533498E+03  0.34120991458E+03  0.00000000000E+00 0.  1.
          2    1    6    6  502    0 -0.10936262273E+03 -0.36411144970E+02  0.17001084749E+02  0.11651176597E+03  0.00000000000E+00 0. -1.
         -1    1    6    6    0  502 -0.39078871213E+02  0.55494177087E+01 -0.39674847507E+02  0.55964700812E+02  0.00000000000E+00 0.  1.
<mgrwt>
<rscale>  0 0.10115507E+04</rscale>
<asrwt>0</asrwt>
<pdfrwt beam="1">  1        1 0.21632556E+00 0.10115507E+04</pdfrwt>
<pdfrwt beam="2">  1       -2 0.11887849E+00 0.10115507E+04</pdfrwt>
<totfact> 0.36182917E+00</totfact>
</mgrwt>
</event>
<event>
12    3  0.1182097E-007  0.8202447E+03  0.7818608E-02  0.9531167E-01
          1   -1    0    0  501    0  0.00000000000E+00  0.00000000000E+00  0.56601592989E+03  0.56601592989E+03  0.00000000000E+00 0. -1.
         -2   -1    0    0    0  501 -0.00000000000E+00 -0.00000000000E+00 -0.15919675163E+04  0.15919675163E+04  0.00000000000E+00 0.  1.
        -24    2    1    2    0    0  0.74170611161E+03 -0.26677268154E+03 -0.83163950903E+03  0.11484993718E+04  0.78300156366E+02 0.  0.
    5000000    2    1    2    0    0 -0.74170611161E+03  0.26677268154E+03 -0.19431207742E+03  0.10094840744E+04  0.60000441119E+03 0.  0.
        -24    2    4    4    0    0 -0.42390791256E+03 -0.59318771791E+01  0.15615816085E+03  0.45749469003E+03  0.71992462856E+02 0.  0.
         24    2    4    4    0    0 -0.31779819905E+03  0.27270455872E+03 -0.35047023827E+03  0.55198938438E+03  0.80618985913E+02 0.  0.
         11    1    3    3    0    0  0.29292621854E+02 -0.25445941980E+02 -0.55145841499E+02  0.67428610344E+02  0.00000000000E+00 0. -1.
        -12    1    3    3    0    0  0.71241348975E+03 -0.24132673956E+03 -0.77649366753E+03  0.10810707615E+04  0.00000000000E+00 0.  1.
         15    1    5    5    0    0 -0.27140463803E+03 -0.14825236867E+02  0.64565886547E+02  0.27937819641E+03  0.17770000000E+01 0. -1.
        -16    1    5    5    0    0 -0.15250327453E+03  0.88933596876E+01  0.91592274304E+02  0.17811649362E+03  0.00000000000E+00 0.  1.
          2    1    6    6  502    0 -0.15366936457E+03  0.17909377825E+03 -0.21764337389E+03  0.32102568933E+03  0.00000000000E+00 0. -1.
         -1    1    6    6    0  502 -0.16412883448E+03  0.93610780469E+02 -0.13282686438E+03  0.23096369504E+03  0.00000000000E+00 0.  1.
<mgrwt>
<rscale>  0 0.82024469E+03</rscale>
<asrwt>0</asrwt>
<pdfrwt beam="1">  1        1 0.87079374E-01 0.82024469E+03</pdfrwt>
<pdfrwt beam="2">  1       -2 0.24491808E+00 0.82024469E+03</pdfrwt>
<totfact> 0.23067561E+00</totfact>
</mgrwt>
</event>
<event>
12    3  0.1182097E-007  0.3710521E+03  0.7818608E-02  0.1054291E+00
         -2   -1    0    0    0  501 -0.00000000000E+00  0.00000000000E+00  0.17935551670E+03  0.17935551670E+03  0.00000000000E+00 0.  1.
          1   -1    0    0  501    0  0.00000000000E+00 -0.00000000000E+00 -0.13495000505E+04  0.13495000505E+04  0.00000000000E+00 0. -1.
        -24    2    1    2    0    0  0.19397485651E+03  0.73306607916E+01 -0.12144237858E+02  0.21026208870E+03  0.79891675946E+02 0.  0.
    5000000    2    1    2    0    0 -0.19397485651E+03 -0.73306607916E+01 -0.11580002960E+04  0.13185934785E+04  0.60003674270E+03 0.  0.
        -24    2    4    4    0    0 -0.23417889550E+03  0.20231172066E+03 -0.33152512085E+03  0.46135449833E+03  0.84671600697E+02 0.  0.
         24    2    4    4    0    0  0.40204038991E+02 -0.20964238145E+03 -0.82647517514E+03  0.85723898020E+03  0.78937704593E+02 0.  0.
         11    1    3    3    0    0  0.24339614951E+02  0.23860781365E+02  0.15764314930E+02  0.37553526712E+02  0.00000000000E+00 0. -1.
        -12    1    3    3    0    0  0.16963524156E+03 -0.16530120573E+02 -0.27908552788E+02  0.17270856199E+03  0.00000000000E+00 0.  1.
         15    1    5    5    0    0 -0.11847712276E+03  0.89118643957E+02 -0.99907938720E+02  0.17878399052E+03  0.17770000000E+01 0. -1.
        -16    1    5    5    0    0 -0.11570177274E+03  0.11319307670E+03 -0.23161718213E+03  0.28257050782E+03  0.00000000000E+00 0.  1.
          2    1    6    6  502    0  0.61373359041E+02 -0.11372401477E+03 -0.48417228055E+03  0.50112138050E+03  0.00000000000E+00 0. -1.
         -1    1    6    6    0  502 -0.21169320050E+02 -0.95918366682E+02 -0.34230289458E+03  0.35611759970E+03  0.00000000000E+00 0.  1.
<mgrwt>
<rscale>  0 0.37105212E+03</rscale>
<asrwt>0</asrwt>
<pdfrwt beam="1">  1        1 0.20761540E+00 0.37105212E+03</pdfrwt>
<pdfrwt beam="2">  1       -2 0.27593156E-01 0.37105212E+03</pdfrwt>
<totfact> 0.93591950E+01</totfact>
</mgrwt>
</event>
<event>
12    3  0.1182097E-007  0.6134324E+03  0.7818608E-02  0.9877923E-01
         -2   -1    0    0    0  501 -0.00000000000E+00  0.00000000000E+00  0.70681267964E+03  0.70681267964E+03  0.00000000000E+00 0.  1.
          1   -1    0    0  501    0  0.00000000000E+00 -0.00000000000E+00 -0.54461360566E+03  0.54461360566E+03  0.00000000000E+00 0. -1.
        -24    2    1    2    0    0 -0.46815899738E+03 -0.39363122895E+02  0.25551403673E+02  0.47726053535E+03  0.80015261685E+02 0.  0.
    5000000    2    1    2    0    0  0.46815899738E+03  0.39363122895E+02  0.13664767031E+03  0.77416574994E+03  0.59994809801E+03 0.  0.
        -24    2    4    4    0    0  0.32706189107E+03  0.30114513939E+03  0.11175334567E+03  0.46554518732E+03  0.81151929115E+02 0.  0.
         24    2    4    4    0    0  0.14109710631E+03 -0.26178201650E+03  0.24894324643E+02  0.30862056262E+03  0.78668333536E+02 0.  0.
         13    1    3    3    0    0 -0.19146160640E+03 -0.38202458541E+02  0.43344180176E+02  0.19998923101E+03  0.00000000000E+00 0. -1.
        -14    1    3    3    0    0 -0.27669739098E+03 -0.11606643540E+01 -0.17792776504E+02  0.27727130435E+03  0.00000000000E+00 0.  1.
         15    1    5    5    0    0  0.94649252182E+02  0.11960371332E+03  0.69501895424E+02  0.16762219535E+03  0.17770000000E+01 0. -1.
        -16    1    5    5    0    0  0.23241263889E+03  0.18154142608E+03  0.42251450247E+02  0.29792299197E+03  0.00000000000E+00 0.  1.
          2    1    6    6  502    0  0.27212946110E+02 -0.13218936392E+03  0.64506773348E+01  0.13511544548E+03  0.00000000000E+00 0. -1.
         -1    1    6    6    0  502  0.11388416020E+03 -0.12959265258E+03  0.18443647308E+02  0.17350511714E+03  0.00000000000E+00 0.  1.
<mgrwt>
<rscale>  0 0.61343244E+03</rscale>
<asrwt>0</asrwt>
<pdfrwt beam="1">  1        1 0.83786708E-01 0.61343244E+03</pdfrwt>
<pdfrwt beam="2">  1       -2 0.10874041E+00 0.61343244E+03</pdfrwt>
<totfact> 0.23985016E+01</totfact>
</mgrwt>
</event>
<event>
12    3  0.1364246E-007  0.1027792E+04  0.7818608E-02  0.9278577E-01
          1   -1    0    0  501    0  0.00000000000E+00  0.00000000000E+00  0.12022045751E+04  0.12022045751E+04  0.00000000000E+00 0. -1.
         -2   -1    0    0    0  501 -0.00000000000E+00 -0.00000000000E+00 -0.11510740862E+04  0.11510740862E+04  0.00000000000E+00 0.  1.
        -24    2    1    2    0    0 -0.96497852403E+03 -0.17264203725E+03  0.51916981021E+03  0.11122594623E+04  0.81209572608E+02 0.  0.
    5000000    2    1    2    0    0  0.96497852403E+03  0.17264203725E+03 -0.46803932125E+03  0.12410191991E+04  0.60006584751E+03 0.  0.
        -24    2    4    4    0    0  0.35759981540E+03 -0.14179470531E+03 -0.38170526970E+03  0.54725604684E+03  0.76203027903E+02 0.  0.
         24    2    4    4    0    0  0.60737870863E+03  0.31443674256E+03 -0.86334051556E+02  0.69376315222E+03  0.77938322759E+02 0.  0.
         11    1    3    3    0    0 -0.26298890598E+03 -0.61707819257E+02  0.18131729531E+03  0.32534133031E+03  0.00000000000E+00 0. -1.
        -12    1    3    3    0    0 -0.70198961805E+03 -0.11093421799E+03  0.33785251490E+03  0.78691813195E+03  0.00000000000E+00 0.  1.
         15    1    5    5    0    0  0.79312309644E+02 -0.31441590756E+01 -0.10014895709E+03  0.12780179785E+03  0.17770000000E+01 0. -1.
        -16    1    5    5    0    0  0.27828750576E+03 -0.13865054624E+03 -0.28155631261E+03  0.41945424900E+03  0.00000000000E+00 0.  1.
          2    1    6    6  502    0  0.30710968169E+03  0.17368739377E+03 -0.81474944471E+02  0.36210748945E+03  0.00000000000E+00 0. -1.
         -1    1    6    6    0  502  0.30026902694E+03  0.14074934879E+03 -0.48591070850E+01  0.33165566277E+03  0.00000000000E+00 0.  1.
<mgrwt>
<rscale>  0 0.10277920E+04</rscale>
<asrwt>0</asrwt>
<pdfrwt beam="1">  1        1 0.18495455E+00 0.10277920E+04</pdfrwt>
<pdfrwt beam="2">  1       -2 0.17708832E+00 0.10277920E+04</pdfrwt>
<totfact> 0.17613772E+00</totfact>
</mgrwt>
</event>
<event>
12    3  0.1182097E-007  0.6484320E+03  0.7818608E-02  0.9809726E-01
          1   -1    0    0  501    0  0.00000000000E+00  0.00000000000E+00  0.37930145171E+04  0.37930145171E+04  0.00000000000E+00 0. -1.
         -2   -1    0    0    0  501 -0.00000000000E+00 -0.00000000000E+00 -0.29764495512E+03  0.29764495512E+03  0.00000000000E+00 0.  1.
        -24    2    1    2    0    0  0.95504522959E+02  0.57035966827E+03  0.31242827979E+04  0.31784155986E+04  0.82167213893E+02 0.  0.
    5000000    2    1    2    0    0 -0.95504522959E+02 -0.57035966827E+03  0.37108676411E+03  0.91224387365E+03  0.60004352627E+03 0.  0.
        -24    2    4    4    0    0  0.14110510299E+03 -0.33626010772E+03  0.42575046019E+03  0.56592395563E+03  0.77620609804E+02 0.  0.
         24    2    4    4    0    0 -0.23660962595E+03 -0.23409956055E+03 -0.54663696080E+02  0.34631991802E+03  0.78502526120E+02 0.  0.
         13    1    3    3    0    0  0.10640706853E+03  0.54474788873E+03  0.30135099247E+04  0.30641988827E+04  0.00000000000E+00 0. -1.
        -14    1    3    3    0    0 -0.10902545571E+02  0.25611779546E+02  0.11077287313E+03  0.11421671582E+03  0.00000000000E+00 0.  1.
         15    1    5    5    0    0  0.48643046639E+01 -0.99801614222E+02  0.11382409927E+03  0.15146982196E+03  0.17770000000E+01 0. -1.
        -16    1    5    5    0    0  0.13624079833E+03 -0.23645849350E+03  0.31192636092E+03  0.41445413367E+03  0.00000000000E+00 0.  1.
          2    1    6    6  502    0 -0.14401086679E+03 -0.89865526882E+02 -0.15151555828E+02  0.17042450622E+03  0.00000000000E+00 0. -1.
         -1    1    6    6    0  502 -0.92598759160E+02 -0.14423403367E+03 -0.39512140252E+02  0.17589541181E+03  0.00000000000E+00 0.  1.
<mgrwt>
<rscale>  0 0.64843196E+03</rscale>
<asrwt>0</asrwt>
<pdfrwt beam="1">  1        1 0.58354066E+00 0.64843196E+03</pdfrwt>
<pdfrwt beam="2">  1       -2 0.45791534E-01 0.64843196E+03</pdfrwt>
<totfact> 0.64652332E-01</totfact>
</mgrwt>
</event>
<event>
12    3  0.1182097E-007  0.8012378E+03  0.7818608E-02  0.9558227E-01
          1   -1    0    0  501    0  0.00000000000E+00  0.00000000000E+00  0.40782349748E+04  0.40782349748E+04  0.00000000000E+00 0. -1.
         -2   -1    0    0    0  501 -0.00000000000E+00 -0.00000000000E+00 -0.16007589009E+03  0.16007589009E+03  0.00000000000E+00 0.  1.
        -24    2    1    2    0    0  0.12013878907E+03 -0.68138412246E+03  0.18352151009E+04  0.19629302928E+04  0.79769775628E+02 0.  0.
    5000000    2    1    2    0    0 -0.12013878907E+03  0.68138412246E+03  0.20829439839E+04  0.22753805721E+04  0.59998621390E+03 0.  0.
        -24    2    4    4    0    0  0.23187742064E+03  0.19299416029E+03  0.69488785983E+03  0.76029215257E+03  0.64506863278E+02 0.  0.
         24    2    4    4    0    0 -0.35201620972E+03  0.48838996217E+03  0.13880561240E+04  0.15150884195E+04  0.79705384945E+02 0.  0.
         11    1    3    3    0    0  0.11198193846E+02 -0.27212135791E+03  0.75877663863E+03  0.80617455945E+03  0.00000000000E+00 0. -1.
        -12    1    3    3    0    0  0.10894059523E+03 -0.40926276455E+03  0.10764384622E+04  0.11567557334E+04  0.00000000000E+00 0.  1.
         15    1    5    5    0    0  0.74888445399E+02  0.54871711997E+02  0.29146160289E+03  0.30589574649E+03  0.17770000000E+01 0. -1.
        -16    1    5    5    0    0  0.15698897525E+03  0.13812244829E+03  0.40342625694E+03  0.45439640608E+03  0.00000000000E+00 0.  1.
          2    1    6    6  502    0 -0.14538520733E+03  0.24976066590E+03  0.73406245426E+03  0.78890109361E+03  0.00000000000E+00 0. -1.
         -1    1    6    6    0  502 -0.20663100238E+03  0.23862929628E+03  0.65399366977E+03  0.72618732589E+03  0.00000000000E+00 0.  1.
<mgrwt>
<rscale>  0 0.80123776E+03</rscale>
<asrwt>0</asrwt>
<pdfrwt beam="1">  1        1 0.62742069E+00 0.80123776E+03</pdfrwt>
<pdfrwt beam="2">  1       -2 0.24627063E-01 0.80123776E+03</pdfrwt>
<totfact> 0.11558598E+00</totfact>
</mgrwt>
</event>
<event>
12    3  0.1182097E-007  0.5907478E+03  0.7818608E-02  0.9924790E-01
          1   -1    0    0  501    0  0.00000000000E+00  0.00000000000E+00  0.12393805545E+04  0.12393805545E+04  0.00000000000E+00 0. -1.
         -2   -1    0    0    0  501 -0.00000000000E+00 -0.00000000000E+00 -0.49544646578E+03  0.49544646578E+03  0.00000000000E+00 0.  1.
        -24    2    1    2    0    0  0.38411686129E+03 -0.27243404322E+03  0.83999063679E+03  0.96608104846E+03  0.77215615350E+02 0.  0.
    5000000    2    1    2    0    0 -0.38411686129E+03  0.27243404322E+03 -0.96056548114E+02  0.76874597178E+03  0.59998119776E+03 0.  0.
        -24    2    4    4    0    0  0.49939592079E+02 -0.97156210738E+02  0.90761416891E+02  0.16350424355E+03  0.81010559323E+02 0.  0.
         24    2    4    4    0    0 -0.43405645337E+03  0.36959025396E+03 -0.18681796501E+03  0.60524172823E+03  0.80091429055E+02 0.  0.
         13    1    3    3    0    0  0.18959422154E+03 -0.12113725491E+03  0.32643817762E+03  0.39646196183E+03  0.00000000000E+00 0. -1.
        -14    1    3    3    0    0  0.19452263975E+03 -0.15129678831E+03  0.51355245917E+03  0.56961908663E+03  0.00000000000E+00 0.  1.
         15    1    5    5    0    0 -0.99983631755E+01 -0.68847231717E+02  0.49928537736E+02  0.85650015708E+02  0.17770000000E+01 0. -1.
        -16    1    5    5    0    0  0.59937955255E+02 -0.28308979021E+02  0.40832879155E+02  0.77854227845E+02  0.00000000000E+00 0.  1.
          4    1    6    6  502    0 -0.25961911822E+03  0.17625811744E+03 -0.12375203068E+03  0.33731821120E+03  0.00000000000E+00 0. -1.
         -3    1    6    6    0  502 -0.17443733515E+03  0.19333213652E+03 -0.63065934321E+02  0.26792351703E+03  0.00000000000E+00 0.  1.
<mgrwt>
<rscale>  0 0.59074776E+03</rscale>
<asrwt>0</asrwt>
<pdfrwt beam="1">  1        1 0.19067393E+00 0.59074776E+03</pdfrwt>
<pdfrwt beam="2">  1       -2 0.76222534E-01 0.59074776E+03</pdfrwt>
<totfact> 0.14188033E+01</totfact>
</mgrwt>
</event>
<event>
12    3  0.1182097E-007  0.9089635E+03  0.7818608E-02  0.9414445E-01
         -2   -1    0    0    0  501 -0.00000000000E+00  0.00000000000E+00  0.34924714655E+03  0.34924714655E+03  0.00000000000E+00 0.  1.
          1   -1    0    0  501    0  0.00000000000E+00 -0.00000000000E+00 -0.23979112605E+04  0.23979112605E+04  0.00000000000E+00 0. -1.
        -24    2    1    2    0    0 -0.76221199770E+03  0.28345396784E+03 -0.98305529106E+03  0.12783543727E+04  0.80491711504E+02 0.  0.
    5000000    2    1    2    0    0  0.76221199770E+03 -0.28345396784E+03 -0.10656088228E+04  0.14688040343E+04  0.60045803062E+03 0.  0.
        -24    2    4    4    0    0  0.45540546869E+03 -0.45547161053E+03 -0.66400733026E+03  0.92874497836E+03  0.82540724984E+02 0.  0.
         24    2    4    4    0    0  0.30680652900E+03  0.17201764268E+03 -0.40160149258E+03  0.54005905594E+03  0.81607042725E+02 0.  0.
         13    1    3    3    0    0 -0.60769410741E+03  0.22353369314E+03 -0.72918187659E+03  0.97517467630E+03  0.00000000000E+00 0. -1.
        -14    1    3    3    0    0 -0.15451789029E+03  0.59920274700E+02 -0.25387341447E+03  0.30317969641E+03  0.00000000000E+00 0.  1.
         15    1    5    5    0    0  0.17165953609E+03 -0.17124046256E+03 -0.19410373712E+03  0.31059573539E+03  0.17770000000E+01 0. -1.
        -16    1    5    5    0    0  0.28374593261E+03 -0.28423114797E+03 -0.46990359314E+03  0.61814924298E+03  0.00000000000E+00 0.  1.
          4    1    6    6  502    0  0.12716181596E+03  0.11679762069E+03 -0.20623145708E+03  0.26896695992E+03  0.00000000000E+00 0. -1.
         -3    1    6    6    0  502  0.17964471304E+03  0.55220021991E+02 -0.19537003550E+03  0.27109209602E+03  0.00000000000E+00 0.  1.
<mgrwt>
<rscale>  0 0.90896353E+03</rscale>
<asrwt>0</asrwt>
<pdfrwt beam="1">  1        1 0.36890943E+00 0.90896353E+03</pdfrwt>
<pdfrwt beam="2">  1       -2 0.53730329E-01 0.90896353E+03</pdfrwt>
<totfact> 0.46909536E+00</totfact>
</mgrwt>
</event>
<event>
12    3  0.1182097E-007  0.4731761E+03  0.7818608E-02  0.1021028E+00
          1   -1    0    0  501    0  0.00000000000E+00  0.00000000000E+00  0.58886607451E+03  0.58886607451E+03  0.00000000000E+00 0. -1.
         -2   -1    0    0    0  501 -0.00000000000E+00 -0.00000000000E+00 -0.54919092677E+03  0.54919092677E+03  0.00000000000E+00 0.  1.
        -24    2    1    2    0    0 -0.31648477214E+03  0.12587603163E+03  0.23411154483E+03  0.42146959739E+03  0.82589465227E+02 0.  0.
    5000000    2    1    2    0    0  0.31648477214E+03 -0.12587603163E+03 -0.19443639709E+03  0.71658740389E+03  0.59973711622E+03 0.  0.
        -24    2    4    4    0    0 -0.11958800093E+03  0.35087931169E+02  0.84675214768E+02  0.16865460245E+03  0.75776183943E+02 0.  0.
         24    2    4    4    0    0  0.43607277307E+03 -0.16096396279E+03 -0.27911161186E+03  0.54793280144E+03  0.79108800325E+02 0.  0.
         11    1    3    3    0    0 -0.10156985657E+03  0.75474242876E+02  0.58590613462E+02  0.13944768584E+03  0.00000000000E+00 0. -1.
        -12    1    3    3    0    0 -0.21491491557E+03  0.50401788749E+02  0.17552093136E+03  0.28202191154E+03  0.00000000000E+00 0.  1.
         15    1    5    5    0    0 -0.96693063126E+02  0.11982457025E+02  0.24864356595E+02  0.10057097837E+03  0.17770000000E+01 0. -1.
        -16    1    5    5    0    0 -0.22894937801E+02  0.23105474145E+02  0.59810858173E+02  0.68083624079E+02  0.00000000000E+00 0.  1.
          2    1    6    6  502    0  0.28286701191E+03 -0.71847830750E+02 -0.20023461412E+03  0.35393468028E+03  0.00000000000E+00 0. -1.
         -1    1    6    6    0  502  0.15320576115E+03 -0.89116132044E+02 -0.78876997740E+02  0.19399812116E+03  0.00000000000E+00 0.  1.
<mgrwt>
<rscale>  0 0.47317607E+03</rscale>
<asrwt>0</asrwt>
<pdfrwt beam="1">  1        1 0.90594781E-01 0.47317607E+03</pdfrwt>
<pdfrwt beam="2">  1       -2 0.84490912E-01 0.47317607E+03</pdfrwt>
<totfact> 0.39334478E+01</totfact>
</mgrwt>
</event>
<event>
12    3  0.1182097E-007  0.4323333E+03  0.7818608E-02  0.1033125E+00
         -2   -1    0    0    0  501 -0.00000000000E+00  0.00000000000E+00  0.20856321402E+03  0.20856321402E+03  0.00000000000E+00 0.  1.
          1   -1    0    0  501    0  0.00000000000E+00 -0.00000000000E+00 -0.23684980713E+04  0.23684980713E+04  0.00000000000E+00 0. -1.
        -24    2    1    2    0    0 -0.31784714705E+03  0.23396375833E+03 -0.12853071408E+03  0.42261424295E+03  0.79478329014E+02 0.  0.
    5000000    2    1    2    0    0  0.31784714705E+03 -0.23396375833E+03 -0.20314041432E+04  0.21544470424E+04  0.59939420776E+03 0.  0.
        -24    2    4    4    0    0  0.32107048936E+03 -0.20910293288E+03 -0.57635100382E+03  0.69700691008E+03  0.82630850226E+02 0.  0.
         24    2    4    4    0    0 -0.32233423067E+01 -0.24860825445E+02 -0.14550531394E+04  0.14574401323E+04  0.79521382348E+02 0.  0.
         11    1    3    3    0    0 -0.16716565190E+03  0.11238607854E+03 -0.24768532174E+02  0.20294941737E+03  0.00000000000E+00 0. -1.
        -12    1    3    3    0    0 -0.15068149515E+03  0.12157767978E+03 -0.10376218190E+03  0.21966482558E+03  0.00000000000E+00 0.  1.
         15    1    5    5    0    0  0.29105463410E+03 -0.15542027207E+03 -0.47238851855E+03  0.57621378948E+03  0.17770000000E+01 0. -1.
        -16    1    5    5    0    0  0.30015855255E+02 -0.53682660810E+02 -0.10396248528E+03  0.12079312060E+03  0.00000000000E+00 0.  1.
          4    1    6    6  502    0  0.34852557991E+02 -0.49802291017E+01 -0.91683225057E+03  0.91750797226E+03  0.00000000000E+00 0. -1.
         -3    1    6    6    0  502 -0.38075900298E+02 -0.19880596343E+02 -0.53822088883E+03  0.53993216006E+03  0.00000000000E+00 0.  1.
<mgrwt>
<rscale>  0 0.43233333E+03</rscale>
<asrwt>0</asrwt>
<pdfrwt beam="1">  1        1 0.36438432E+00 0.43233333E+03</pdfrwt>
<pdfrwt beam="2">  1       -2 0.32086648E-01 0.43233333E+03</pdfrwt>
<totfact> 0.14749893E+01</totfact>
</mgrwt>
</event>
<event>
12    3  0.1182097E-007  0.6954427E+03  0.7818608E-02  0.9725058E-01
         -2   -1    0    0    0  501 -0.00000000000E+00  0.00000000000E+00  0.21571833026E+03  0.21571833026E+03  0.00000000000E+00 0.  1.
          1   -1    0    0  501    0  0.00000000000E+00 -0.00000000000E+00 -0.23202367292E+04  0.23202367292E+04  0.00000000000E+00 0. -1.
        -24    2    1    2    0    0  0.44636582826E+03 -0.36539463882E+03 -0.85154397276E+03  0.10317633312E+04  0.81564327105E+02 0.  0.
    5000000    2    1    2    0    0 -0.44636582826E+03  0.36539463882E+03 -0.12529744262E+04  0.15041917282E+04  0.59991011645E+03 0.  0.
        -24    2    4    4    0    0  0.46463821512E+02  0.29851050819E+03 -0.63279940794E+03  0.70528744892E+03  0.75682790020E+02 0.  0.
         24    2    4    4    0    0 -0.49282964977E+03  0.66884130630E+02 -0.62017501821E+03  0.79890427926E+03  0.79224008885E+02 0.  0.
         13    1    3    3    0    0  0.20295275193E+03 -0.19293511648E+03 -0.47465206160E+03  0.55109741269E+03  0.00000000000E+00 0. -1.
        -14    1    3    3    0    0  0.24341307633E+03 -0.17245952234E+03 -0.37689191115E+03  0.48066591856E+03  0.00000000000E+00 0.  1.
         15    1    5    5    0    0  0.57961712646E+02  0.13134750934E+03 -0.27653479472E+03  0.31158687194E+03  0.17770000000E+01 0. -1.
        -16    1    5    5    0    0 -0.11497891133E+02  0.16716299885E+03 -0.35626461322E+03  0.39370057698E+03  0.00000000000E+00 0.  1.
          4    1    6    6  502    0 -0.11548112024E+03 -0.11342180843E+02 -0.11339770824E+03  0.16224541421E+03  0.00000000000E+00 0. -1.
         -3    1    6    6    0  502 -0.37734852954E+03  0.78226311473E+02 -0.50677730997E+03  0.63665886505E+03  0.00000000000E+00 0.  1.
<mgrwt>
<rscale>  0 0.69544271E+03</rscale>
<asrwt>0</asrwt>
<pdfrwt beam="1">  1        1 0.35695952E+00 0.69544271E+03</pdfrwt>
<pdfrwt beam="2">  1       -2 0.33187433E-01 0.69544271E+03</pdfrwt>
<totfact> 0.14145633E+01</totfact>
</mgrwt>
</event>
<event>
12    3  0.1182097E-007  0.4858505E+03  0.7818608E-02  0.1017540E+00
         -4   -1    0    0    0  501 -0.00000000000E+00  0.00000000000E+00  0.10618455541E+04  0.10618455541E+04  0.00000000000E+00 0.  1.
          1   -1    0    0  501    0  0.00000000000E+00 -0.00000000000E+00 -0.29236436228E+03  0.29236436228E+03  0.00000000000E+00 0. -1.
        -24    2    1    2    0    0  0.30873810303E+03 -0.13775794814E+03  0.35989038047E+02  0.34811318264E+03  0.74773715510E+02 0.  0.
    5000000    2    1    2    0    0 -0.30873810303E+03  0.13775794814E+03  0.73349215374E+03  0.10060967337E+04  0.59993618781E+03 0.  0.
        -24    2    4    4    0    0  0.12669912452E+03  0.12006253397E+03  0.63863624584E+02  0.20348840234E+03  0.82832886721E+02 0.  0.
         24    2    4    4    0    0 -0.43543722755E+03  0.17695414165E+02  0.66962852916E+03  0.80260833137E+03  0.76544494977E+02 0.  0.
         13    1    3    3    0    0  0.18034860557E+03 -0.12002279454E+03  0.23260562068E+02  0.21788103288E+03  0.00000000000E+00 0. -1.
        -14    1    3    3    0    0  0.12838949746E+03 -0.17735153598E+02  0.12728475979E+02  0.13023214976E+03  0.00000000000E+00 0.  1.
         15    1    5    5    0    0  0.20250246928E+02  0.67958510906E+02  0.43571837839E+02  0.83247189063E+02  0.17770000000E+01 0. -1.
        -16    1    5    5    0    0  0.10644887759E+03  0.52104023068E+02  0.20291786745E+02  0.12024121327E+03  0.00000000000E+00 0.  1.
          4    1    6    6  502    0 -0.10691745951E+03  0.10171433920E+02  0.22905348653E+03  0.25298280754E+03  0.00000000000E+00 0. -1.
         -3    1    6    6    0  502 -0.32851976804E+03  0.75239802454E+01  0.44057504263E+03  0.54962552384E+03  0.00000000000E+00 0.  1.
<mgrwt>
<rscale>  0 0.48585046E+03</rscale>
<asrwt>0</asrwt>
<pdfrwt beam="1">  1        1 0.44979133E-01 0.48585046E+03</pdfrwt>
<pdfrwt beam="2">  1       -4 0.16336085E+00 0.48585046E+03</pdfrwt>
<totfact> 0.10385047E+01</totfact>
</mgrwt>
</event>
<event>
12    3  0.1182097E-007  0.1424322E+04  0.7818608E-02  0.8936399E-01
          1   -1    0    0  501    0  0.00000000000E+00  0.00000000000E+00  0.20912789172E+04  0.20912789172E+04  0.00000000000E+00 0. -1.
         -2   -1    0    0    0  501 -0.00000000000E+00 -0.00000000000E+00 -0.10306182199E+04  0.10306182199E+04  0.00000000000E+00 0.  1.
        -24    2    1    2    0    0 -0.13949265050E+04  0.13323532660E+03  0.39094141072E+03  0.14569016944E+04  0.78458612237E+02 0.  0.
    5000000    2    1    2    0    0  0.13949265050E+04 -0.13323532660E+03  0.66971928652E+03  0.16649954427E+04  0.60009523829E+03 0.  0.
        -24    2    4    4    0    0  0.13797945427E+04 -0.86997963584E+02  0.71720649726E+03  0.15594910775E+04  0.78902696253E+02 0.  0.
         24    2    4    4    0    0  0.15131962286E+02 -0.46237363016E+02 -0.47487210732E+02  0.10550436520E+03  0.80680021516E+02 0.  0.
         13    1    3    3    0    0 -0.55610790801E+03  0.20427472597E+02  0.13398614440E+03  0.57238586100E+03  0.00000000000E+00 0. -1.
        -14    1    3    3    0    0 -0.83881859698E+03  0.11280785400E+03  0.25695526632E+03  0.88451583336E+03  0.00000000000E+00 0.  1.
         15    1    5    5    0    0  0.11542103643E+04 -0.43819440520E+02  0.60369626237E+03  0.13032935369E+04  0.17770000000E+01 0. -1.
        -16    1    5    5    0    0  0.22558417836E+03 -0.43178523065E+02  0.11351023488E+03  0.25619754059E+03  0.00000000000E+00 0.  1.
          2    1    6    6  502    0  0.29298424865E+01 -0.48559068872E+02 -0.66742688962E+02  0.82590275920E+02  0.00000000000E+00 0. -1.
         -1    1    6    6    0  502  0.12202119800E+02  0.23217058561E+01  0.19255478229E+02  0.22914089280E+02  0.00000000000E+00 0.  1.
<mgrwt>
<rscale>  0 0.14243220E+04</rscale>
<asrwt>0</asrwt>
<pdfrwt beam="1">  1        1 0.32173522E+00 0.14243220E+04</pdfrwt>
<pdfrwt beam="2">  1       -2 0.15855665E+00 0.14243220E+04</pdfrwt>
<totfact> 0.55746861E-01</totfact>
</mgrwt>
</event>
<event>
12    3  0.1182097E-007  0.4841944E+03  0.7818608E-02  0.1017989E+00
         -4   -1    0    0    0  501 -0.00000000000E+00  0.00000000000E+00  0.43454003842E+03  0.43454003842E+03  0.00000000000E+00 0.  1.
          1   -1    0    0  501    0  0.00000000000E+00 -0.00000000000E+00 -0.74934254482E+03  0.74934254482E+03  0.00000000000E+00 0. -1.
        -24    2    1    2    0    0 -0.39482705696E+03  0.10330407253E+03 -0.14498452558E+03  0.43872959298E+03  0.70021473751E+02 0.  0.
    5000000    2    1    2    0    0  0.39482705696E+03 -0.10330407253E+03 -0.16981798082E+03  0.74515299026E+03  0.59987890109E+03 0.  0.
        -24    2    4    4    0    0  0.96056455907E+02 -0.20664958159E+03 -0.30657191512E+03  0.39118641964E+03  0.84318346020E+02 0.  0.
         24    2    4    4    0    0  0.29877060106E+03  0.10334550906E+03  0.13675393430E+03  0.35396657062E+03  0.81526242838E+02 0.  0.
         11    1    3    3    0    0 -0.35670712950E+03  0.10278123972E+03 -0.11048226953E+03  0.38731162048E+03  0.00000000000E+00 0. -1.
        -12    1    3    3    0    0 -0.38119927461E+02  0.52283281373E+00 -0.34502256050E+02  0.51417972503E+02  0.00000000000E+00 0.  1.
         15    1    5    5    0    0  0.99154724817E+02 -0.21264183534E+03 -0.30388829875E+03  0.38392638023E+03  0.17770000000E+01 0. -1.
        -16    1    5    5    0    0 -0.30982689093E+01  0.59922537561E+01 -0.26836163673E+01  0.72600394020E+01  0.00000000000E+00 0.  1.
          4    1    6    6  502    0  0.26045287779E+03  0.10076312088E+03  0.14503258231E+03  0.31467977058E+03  0.00000000000E+00 0. -1.
         -3    1    6    6    0  502  0.38317723266E+02  0.25823881774E+01 -0.82786480035E+01  0.39286800045E+02  0.00000000000E+00 0.  1.
<mgrwt>
<rscale>  0 0.48419439E+03</rscale>
<asrwt>0</asrwt>
<pdfrwt beam="1">  1        1 0.11528347E+00 0.48419439E+03</pdfrwt>
<pdfrwt beam="2">  1       -4 0.66852314E-01 0.48419439E+03</pdfrwt>
<totfact> 0.24946288E+01</totfact>
</mgrwt>
</event>
<event>
12    3  0.1182097E-007  0.6965553E+03  0.7818608E-02  0.9723141E-01
         -2   -1    0    0    0  501 -0.00000000000E+00  0.00000000000E+00  0.47901029871E+03  0.47901029871E+03  0.00000000000E+00 0.  1.
          1   -1    0    0  501    0  0.00000000000E+00 -0.00000000000E+00 -0.13324097935E+04  0.13324097935E+04  0.00000000000E+00 0. -1.
        -24    2    1    2    0    0 -0.26147377935E+03 -0.52322033400E+03 -0.76909460437E+03  0.96927723034E+03  0.76575345868E+02 0.  0.
    5000000    2    1    2    0    0  0.26147377935E+03  0.52322033400E+03 -0.84304890399E+02  0.84214286184E+03  0.59997435779E+03 0.  0.
        -24    2    4    4    0    0  0.33140242549E+03  0.66201461019E+02 -0.12894380362E+03  0.37015183914E+03  0.78585485088E+02 0.  0.
         24    2    4    4    0    0 -0.69928646137E+02  0.45701887299E+03  0.44638913223E+02  0.47199102270E+03  0.83824979107E+02 0.  0.
         11    1    3    3    0    0 -0.13156755483E+03 -0.27762624960E+03 -0.34160640142E+03  0.45943583822E+03  0.00000000000E+00 0. -1.
        -12    1    3    3    0    0 -0.12990622451E+03 -0.24559408441E+03 -0.42748820295E+03  0.50984139212E+03  0.00000000000E+00 0.  1.
         15    1    5    5    0    0  0.77712053381E+02  0.26159810660E+02 -0.67131671145E+02  0.10598734799E+03  0.17770000000E+01 0. -1.
        -16    1    5    5    0    0  0.25369037210E+03  0.40041650359E+02 -0.61812132477E+02  0.26416449115E+03  0.00000000000E+00 0.  1.
          2    1    6    6  502    0 -0.62263124405E+02  0.15429049811E+03  0.37907830322E+01  0.16642302877E+03  0.00000000000E+00 0. -1.
         -1    1    6    6    0  502 -0.76655217322E+01  0.30272837487E+03  0.40848130191E+02  0.30556799393E+03  0.00000000000E+00 0.  1.
<mgrwt>
<rscale>  0 0.69655533E+03</rscale>
<asrwt>0</asrwt>
<pdfrwt beam="1">  1        1 0.20498612E+00 0.69655533E+03</pdfrwt>
<pdfrwt beam="2">  1       -2 0.73693892E-01 0.69655533E+03</pdfrwt>
<totfact> 0.12942571E+01</totfact>
</mgrwt>
</event>
<event>
12    3  0.1182097E-007  0.3998993E+03  0.7818608E-02  0.1043815E+00
         -2   -1    0    0    0  501 -0.00000000000E+00  0.00000000000E+00  0.10268253927E+03  0.10268253927E+03  0.00000000000E+00 0.  1.
          1   -1    0    0  501    0  0.00000000000E+00 -0.00000000000E+00 -0.17209885380E+04  0.17209885380E+04  0.00000000000E+00 0. -1.
        -24    2    1    2    0    0  0.82543989376E+02  0.17177918683E+03 -0.48774852748E+03  0.52967430345E+03  0.79590467181E+02 0.  0.
    5000000    2    1    2    0    0 -0.82543989376E+02 -0.17177918683E+03 -0.11305574713E+04  0.12939967738E+04  0.59995487802E+03 0.  0.
        -24    2    4    4    0    0  0.21273797210E+03  0.66482075131E+02 -0.50891520901E+03  0.56114482104E+03  0.78813127935E+02 0.  0.
         24    2    4    4    0    0 -0.29528196147E+03 -0.23826126196E+03 -0.62164226226E+03  0.73285195280E+03  0.81688535143E+02 0.  0.
         11    1    3    3    0    0 -0.47685458624E+01  0.12073904103E+02 -0.52795650051E+01  0.14013992885E+02  0.00000000000E+00 0. -1.
        -12    1    3    3    0    0  0.87312535239E+02  0.15970528273E+03 -0.48246896247E+03  0.51566031056E+03  0.00000000000E+00 0.  1.
         15    1    5    5    0    0  0.10477979643E+03  0.15639688818E+02 -0.15583040339E+03  0.18844011769E+03  0.17770000000E+01 0. -1.
        -16    1    5    5    0    0  0.10795817567E+03  0.50842386314E+02 -0.35308480562E+03  0.37270470335E+03  0.00000000000E+00 0.  1.
          2    1    6    6  502    0 -0.81440638603E+02 -0.60865463888E+02 -0.10451384582E+03  0.14580921191E+03  0.00000000000E+00 0. -1.
         -1    1    6    6    0  502 -0.21384132287E+03 -0.17739579807E+03 -0.51712841644E+03  0.58704274089E+03  0.00000000000E+00 0.  1.
<mgrwt>
<rscale>  0 0.39989930E+03</rscale>
<asrwt>0</asrwt>
<pdfrwt beam="1">  1        1 0.26476747E+00 0.39989930E+03</pdfrwt>
<pdfrwt beam="2">  1       -2 0.15797314E-01 0.39989930E+03</pdfrwt>
<totfact> 0.13863508E+02</totfact>
</mgrwt>
</event>
<event>
12    3  0.1182097E-007  0.4914032E+03  0.7818608E-02  0.1016047E+00
          1   -1    0    0  501    0  0.00000000000E+00  0.00000000000E+00  0.24280063723E+04  0.24280063723E+04  0.00000000000E+00 0. -1.
         -2   -1    0    0    0  501 -0.00000000000E+00 -0.00000000000E+00 -0.15875502637E+03  0.15875502637E+03  0.00000000000E+00 0.  1.
        -24    2    1    2    0    0 -0.20095376398E+03 -0.42553475336E+03  0.93922614825E+03  0.10535374851E+04  0.79581614290E+02 0.  0.
    5000000    2    1    2    0    0  0.20095376398E+03  0.42553475336E+03  0.13300251977E+04  0.15332239136E+04  0.60028851492E+03 0.  0.
        -24    2    4    4    0    0  0.14058174063E+03  0.97057991739E+02  0.11089805750E+04  0.11248791446E+04  0.79571947076E+02 0.  0.
         24    2    4    4    0    0  0.60372023353E+02  0.32847676162E+03  0.22104462271E+03  0.40834476897E+03  0.79642708294E+02 0.  0.
         11    1    3    3    0    0 -0.10277111918E+03 -0.13816910520E+03  0.37944716751E+03  0.41669264152E+03  0.00000000000E+00 0. -1.
        -12    1    3    3    0    0 -0.98182644804E+02 -0.28736564816E+03  0.55977898074E+03  0.63684484356E+03  0.00000000000E+00 0.  1.
         15    1    5    5    0    0  0.89119550571E+02  0.65289181464E+02  0.45986923233E+03  0.47295648857E+03  0.17770000000E+01 0. -1.
        -16    1    5    5    0    0  0.51462190060E+02  0.31768810275E+02  0.64911134268E+03  0.65192265608E+03  0.00000000000E+00 0.  1.
          4    1    6    6  502    0  0.55772862594E+02  0.32600556470E+03  0.22644471089E+03  0.40083344110E+03  0.00000000000E+00 0. -1.
         -3    1    6    6    0  502  0.45991607593E+01  0.24711969206E+01 -0.54000881793E+01  0.75113278623E+01  0.00000000000E+00 0.  1.
<mgrwt>
<rscale>  0 0.49140324E+03</rscale>
<asrwt>0</asrwt>
<pdfrwt beam="1">  1        1 0.37353942E+00 0.49140324E+03</pdfrwt>
<pdfrwt beam="2">  1       -2 0.24423852E-01 0.49140324E+03</pdfrwt>
<totfact> 0.21807539E+01</totfact>
</mgrwt>
</event>
<event>
12    3  0.1182097E-007  0.8002494E+03  0.7818608E-02  0.9559656E-01
          1   -1    0    0  501    0  0.00000000000E+00  0.00000000000E+00  0.66647119063E+03  0.66647119063E+03  0.00000000000E+00 0. -1.
         -4   -1    0    0    0  501 -0.00000000000E+00 -0.00000000000E+00 -0.12143097455E+04  0.12143097455E+04  0.00000000000E+00 0.  1.
        -24    2    1    2    0    0 -0.27123711921E+03  0.68015717619E+03  0.85473128106E+02  0.74187511352E+03  0.83004031722E+02 0.  0.
    5000000    2    1    2    0    0  0.27123711921E+03 -0.68015717619E+03 -0.63331168296E+03  0.11389058226E+04  0.59986617324E+03 0.  0.
        -24    2    4    4    0    0 -0.34712067111E+02  0.19293822813E+02  0.51215272214E+02  0.11055534820E+03  0.89567302661E+02 0.  0.
         24    2    4    4    0    0  0.30594918632E+03 -0.69945099900E+03 -0.68452695518E+03  0.10283504744E+04  0.78044482216E+02 0.  0.
         11    1    3    3    0    0 -0.50989142398E+02  0.23096448039E+03  0.33844340052E+02  0.23893497693E+03  0.00000000000E+00 0. -1.
        -12    1    3    3    0    0 -0.22024797681E+03  0.44919269580E+03  0.51628788054E+02  0.50294013660E+03  0.00000000000E+00 0.  1.
         15    1    5    5    0    0 -0.51201655045E+01 -0.35085686383E+02  0.13034801765E+02  0.37819112494E+02  0.17770000000E+01 0. -1.
        -16    1    5    5    0    0 -0.29591901606E+02  0.54379509196E+02  0.38180470449E+02  0.72736235707E+02  0.00000000000E+00 0.  1.
          4    1    6    6  502    0  0.14393953765E+03 -0.41055327671E+03 -0.36076993588E+03  0.56517920180E+03  0.00000000000E+00 0. -1.
         -3    1    6    6    0  502  0.16200964867E+03 -0.28889772229E+03 -0.32375701930E+03  0.46317127259E+03  0.00000000000E+00 0.  1.
<mgrwt>
<rscale>  0 0.80024938E+03</rscale>
<asrwt>0</asrwt>
<pdfrwt beam="1">  1        1 0.10253403E+00 0.80024938E+03</pdfrwt>
<pdfrwt beam="2">  1       -4 0.18681688E+00 0.80024938E+03</pdfrwt>
<totfact> 0.22759343E+00</totfact>
</mgrwt>
</event>
<event>
12    3  0.1182097E-007  0.1832674E+04  0.7818608E-02  0.8689114E-01
         -2   -1    0    0    0  501 -0.00000000000E+00  0.00000000000E+00  0.13934852088E+04  0.13934852088E+04  0.00000000000E+00 0.  1.
          1   -1    0    0  501    0  0.00000000000E+00 -0.00000000000E+00 -0.33708558582E+04  0.33708558582E+04  0.00000000000E+00 0. -1.
        -24    2    1    2    0    0 -0.16706922101E+04  0.70836813262E+03 -0.21853098229E+04  0.28416694741E+04  0.80675310602E+02 0.  0.
    5000000    2    1    2    0    0  0.16706922101E+04 -0.70836813262E+03  0.20793917348E+03  0.19226715929E+04  0.60035779523E+03 0.  0.
        -24    2    4    4    0    0  0.16591255746E+04 -0.72219127878E+03  0.27300251589E+03  0.18316844555E+04  0.79244277584E+02 0.  0.
         24    2    4    4    0    0  0.11566635524E+02  0.13823146162E+02 -0.65063342407E+02  0.90987137443E+02  0.60996346020E+02 0.  0.
         11    1    3    3    0    0 -0.41823180497E+03  0.15056956205E+03 -0.57378472664E+03  0.72582225664E+03  0.00000000000E+00 0. -1.
        -12    1    3    3    0    0 -0.12524604051E+04  0.55779857057E+03 -0.16115250962E+04  0.21158472174E+04  0.00000000000E+00 0.  1.
         15    1    5    5    0    0  0.30748448275E+02 -0.66841731460E+01 -0.33837317238E+01  0.31697832912E+02  0.17770000000E+01 0. -1.
        -16    1    5    5    0    0  0.16283771263E+04 -0.71550710564E+03  0.27638624761E+03  0.17999866226E+04  0.00000000000E+00 0.  1.
          4    1    6    6  502    0 -0.11100850174E+02  0.12787233261E+02  0.47431960554E+01  0.17585224420E+02  0.00000000000E+00 0. -1.
         -3    1    6    6    0  502  0.22667485698E+02  0.10359129010E+01 -0.69806538463E+02  0.73401913024E+02  0.00000000000E+00 0.  1.
<mgrwt>
<rscale>  0 0.18326742E+04</rscale>
<asrwt>0</asrwt>
<pdfrwt beam="1">  1        1 0.51859321E+00 0.18326742E+04</pdfrwt>
<pdfrwt beam="2">  1       -2 0.21438234E+00 0.18326742E+04</pdfrwt>
<totfact> 0.26910057E-02</totfact>
</mgrwt>
</event>
<event>
12    3  0.1182097E-007  0.5563096E+03  0.7818608E-02  0.1000044E+00
         -2   -1    0    0    0  501 -0.00000000000E+00  0.00000000000E+00  0.42810102054E+03  0.42810102054E+03  0.00000000000E+00 0.  1.
          1   -1    0    0  501    0  0.00000000000E+00 -0.00000000000E+00 -0.10266069736E+04  0.10266069736E+04  0.00000000000E+00 0. -1.
        -24    2    1    2    0    0 -0.28028060948E+03  0.37744330477E+03 -0.49247169397E+03  0.68550756290E+03  0.79822184017E+02 0.  0.
    5000000    2    1    2    0    0  0.28028060948E+03 -0.37744330477E+03 -0.10603425909E+03  0.76920043125E+03  0.59950427101E+03 0.  0.
        -24    2    4    4    0    0 -0.10867999446E+03 -0.65086534839E+02  0.14295457632E+03  0.20658014210E+03  0.78687648370E+02 0.  0.
         24    2    4    4    0    0  0.38896060394E+03 -0.31235676993E+03 -0.24898883541E+03  0.56262028915E+03  0.75425767938E+02 0.  0.
         11    1    3    3    0    0 -0.11184874009E+03  0.90217008576E+02 -0.13967601984E+03  0.20039620708E+03  0.00000000000E+00 0. -1.
        -12    1    3    3    0    0 -0.16843186939E+03  0.28722629620E+03 -0.35279567414E+03  0.48511135582E+03  0.00000000000E+00 0.  1.
         15    1    5    5    0    0 -0.99039042776E+02 -0.72104765096E+02  0.14924857672E+03  0.19309615358E+03  0.17770000000E+01 0. -1.
        -16    1    5    5    0    0 -0.96409516825E+01  0.70182302569E+01 -0.62940004063E+01  0.13483988520E+02  0.00000000000E+00 0.  1.
          4    1    6    6  502    0  0.16222746758E+03 -0.16319271319E+03 -0.14498698628E+03  0.27197580603E+03  0.00000000000E+00 0. -1.
         -3    1    6    6    0  502  0.22673313636E+03 -0.14916405674E+03 -0.10400184913E+03  0.29064448312E+03  0.00000000000E+00 0.  1.
<mgrwt>
<rscale>  0 0.55630956E+03</rscale>
<asrwt>0</asrwt>
<pdfrwt beam="1">  1        1 0.15793953E+00 0.55630956E+03</pdfrwt>
<pdfrwt beam="2">  1       -2 0.65861696E-01 0.55630956E+03</pdfrwt>
<totfact> 0.28089065E+01</totfact>
</mgrwt>
</event>
<event>
12    3  0.1182097E-007  0.7327407E+03  0.7818608E-02  0.9662823E-01
         -2   -1    0    0    0  501 -0.00000000000E+00  0.00000000000E+00  0.36312648226E+03  0.36312648226E+03  0.00000000000E+00 0.  1.
          1   -1    0    0  501    0  0.00000000000E+00 -0.00000000000E+00 -0.18078770448E+04  0.18078770448E+04  0.00000000000E+00 0. -1.
        -24    2    1    2    0    0  0.62544232312E+03  0.81817808640E+02 -0.10209814858E+04  0.12025387709E+04  0.76315449373E+02 0.  0.
    5000000    2    1    2    0    0 -0.62544232312E+03 -0.81817808640E+02 -0.42376907665E+03  0.96846475608E+03  0.60039278817E+03 0.  0.
        -24    2    4    4    0    0  0.21236450068E+02  0.14193733649E+03 -0.13317273117E+02  0.16651214365E+03  0.83377154661E+02 0.  0.
         24    2    4    4    0    0 -0.64667877319E+03 -0.22375514513E+03 -0.41045180354E+03  0.80195261244E+03  0.79984429138E+02 0.  0.
         11    1    3    3    0    0  0.58220897097E+03  0.57967409382E+02 -0.92302099360E+03  0.10928381678E+04  0.00000000000E+00 0. -1.
        -12    1    3    3    0    0  0.43233352155E+02  0.23850399259E+02 -0.97960492243E+02  0.10970060312E+03  0.00000000000E+00 0.  1.
         15    1    5    5    0    0  0.19587365888E+02  0.39020562273E+02  0.31885804470E+02  0.54093728270E+02  0.17770000000E+01 0. -1.
        -16    1    5    5    0    0  0.16490841801E+01  0.10291677421E+03 -0.45203077587E+02  0.11241841538E+03  0.00000000000E+00 0.  1.
          2    1    6    6  502    0 -0.31783111182E+03 -0.10391151734E+03 -0.15454465368E+03  0.36837245969E+03  0.00000000000E+00 0. -1.
         -1    1    6    6    0  502 -0.32884766137E+03 -0.11984362779E+03 -0.25590714985E+03  0.43358015274E+03  0.00000000000E+00 0.  1.
<mgrwt>
<rscale>  0 0.73274067E+03</rscale>
<asrwt>0</asrwt>
<pdfrwt beam="1">  1        1 0.27813493E+00 0.73274067E+03</pdfrwt>
<pdfrwt beam="2">  1       -2 0.55865613E-01 0.73274067E+03</pdfrwt>
<totfact> 0.11057432E+01</totfact>
</mgrwt>
</event>
<event>
12    3  0.1182097E-007  0.6703966E+03  0.7818608E-02  0.9769242E-01
          1   -1    0    0  501    0  0.00000000000E+00  0.00000000000E+00  0.13999883525E+04  0.13999883525E+04  0.00000000000E+00 0. -1.
         -2   -1    0    0    0  501 -0.00000000000E+00 -0.00000000000E+00 -0.43254572507E+03  0.43254572507E+03  0.00000000000E+00 0.  1.
        -24    2    1    2    0    0  0.37527925431E+02  0.65841356542E+03  0.40444928619E+03  0.77773943353E+03  0.79891382862E+02 0.  0.
    5000000    2    1    2    0    0 -0.37527925431E+02 -0.65841356542E+03  0.56299334123E+03  0.10547946440E+04  0.60059426443E+03 0.  0.
        -24    2    4    4    0    0  0.19248122518E+02 -0.10586314391E+03 -0.11367827230E+03  0.17559826295E+03  0.79589602973E+02 0.  0.
         24    2    4    4    0    0 -0.56776047949E+02 -0.55255042151E+03  0.67667161352E+03  0.87919638106E+03  0.81032808136E+02 0.  0.
         13    1    3    3    0    0 -0.12083828824E+02  0.44152801981E+03  0.26188119739E+03  0.51349271927E+03  0.00000000000E+00 0. -1.
        -14    1    3    3    0    0  0.49611754255E+02  0.21688554561E+03  0.14256808880E+03  0.26424671426E+03  0.00000000000E+00 0.  1.
         15    1    5    5    0    0  0.11509038163E+02 -0.10803823808E+03 -0.65765253460E+02  0.12701553109E+03  0.17770000000E+01 0. -1.
        -16    1    5    5    0    0  0.77390843546E+01  0.21750941708E+01 -0.47913018836E+02  0.48582731863E+02  0.00000000000E+00 0.  1.
          2    1    6    6  502    0 -0.42328456894E+02 -0.53706650282E+03  0.63734556608E+03  0.83453070484E+03  0.00000000000E+00 0. -1.
         -1    1    6    6    0  502 -0.14447591055E+02 -0.15483918694E+02  0.39326047442E+02  0.44665676227E+02  0.00000000000E+00 0.  1.
<mgrwt>
<rscale>  0 0.67039660E+03</rscale>
<asrwt>0</asrwt>
<pdfrwt beam="1">  1        1 0.21538282E+00 0.67039660E+03</pdfrwt>
<pdfrwt beam="2">  1       -2 0.66545497E-01 0.67039660E+03</pdfrwt>
<totfact> 0.14559231E+01</totfact>
</mgrwt>
</event>
<event>
12    3  0.1182097E-007  0.2691374E+04  0.7818608E-02  0.8337809E-01
         -2   -1    0    0    0  501 -0.00000000000E+00  0.00000000000E+00  0.23545017884E+04  0.23545017884E+04  0.00000000000E+00 0.  1.
          1   -1    0    0  501    0  0.00000000000E+00 -0.00000000000E+00 -0.42208604719E+04  0.42208604719E+04  0.00000000000E+00 0. -1.
        -24    2    1    2    0    0 -0.25260456372E+04 -0.85172599792E+03  0.77253297406E+03  0.27766373509E+04  0.81018800521E+02 0.  0.
    5000000    2    1    2    0    0  0.25260456372E+04  0.85172599792E+03 -0.26388916576E+04  0.37987249094E+04  0.60018165582E+03 0.  0.
        -24    2    4    4    0    0  0.21375026492E+02  0.29243495762E+02 -0.42221216043E+02  0.97508247724E+02  0.80082167104E+02 0.  0.
         24    2    4    4    0    0  0.25046706107E+04  0.82248250216E+03 -0.25966704415E+04  0.37012166616E+04  0.80343388720E+02 0.  0.
         13    1    3    3    0    0 -0.97339054685E+03 -0.29212806101E+03  0.31471397886E+03  0.10638951307E+04  0.00000000000E+00 0. -1.
        -14    1    3    3    0    0 -0.15526550903E+04 -0.55959793691E+03  0.45781899520E+03  0.17127422202E+04  0.00000000000E+00 0.  1.
         15    1    5    5    0    0  0.10063356268E+02  0.52175830007E+02 -0.47618831825E+02  0.71374359890E+02  0.17770000000E+01 0. -1.
        -16    1    5    5    0    0  0.11311670224E+02 -0.22932334245E+02  0.53976157823E+01  0.26133887834E+02  0.00000000000E+00 0.  1.
          4    1    6    6  502    0  0.93063998301E+03  0.26781287606E+03 -0.97390288504E+03  0.13734268616E+04  0.00000000000E+00 0. -1.
         -3    1    6    6    0  502  0.15740306277E+04  0.55466962610E+03 -0.16227675565E+04  0.23277898001E+04  0.00000000000E+00 0.  1.
<mgrwt>
<rscale>  0 0.26913744E+04</rscale>
<asrwt>0</asrwt>
<pdfrwt beam="1">  1        1 0.64936314E+00 0.26913744E+04</pdfrwt>
<pdfrwt beam="2">  1       -2 0.36223105E+00 0.26913744E+04</pdfrwt>
<totfact> 0.56188985E-04</totfact>
</mgrwt>
</event>
<event>
12    3  0.1182097E-007  0.1263663E+04  0.7818608E-02  0.9058888E-01
          3   -1    0    0  501    0  0.00000000000E+00  0.00000000000E+00  0.15390813779E+04  0.15390813779E+04  0.00000000000E+00 0. -1.
         -4   -1    0    0    0  501 -0.00000000000E+00 -0.00000000000E+00 -0.10916287863E+04  0.10916287863E+04  0.00000000000E+00 0.  1.
        -24    2    1    2    0    0  0.10230734891E+03  0.11949222613E+04 -0.43453427651E+02  0.12026811230E+04  0.79042261564E+02 0.  0.
    5000000    2    1    2    0    0 -0.10230734891E+03 -0.11949222613E+04  0.49090601917E+03  0.14280290412E+04  0.59997684851E+03 0.  0.
        -24    2    4    4    0    0  0.12852014873E+03 -0.10154671237E+04  0.45215144590E+03  0.11218712742E+04  0.80394763734E+02 0.  0.
         24    2    4    4    0    0 -0.23082749764E+03 -0.17945513759E+03  0.38754573270E+02  0.30615776696E+03  0.82129052395E+02 0.  0.
         13    1    3    3    0    0 -0.12700647497E+02  0.17441300046E+03 -0.23892753497E+01  0.17489113704E+03  0.00000000000E+00 0. -1.
        -14    1    3    3    0    0  0.11500799641E+03  0.10205092608E+04 -0.41064152301E+02  0.10277899860E+04  0.00000000000E+00 0.  1.
         15    1    5    5    0    0  0.54648299298E+02 -0.18432388026E+03  0.80920397855E+02  0.20859769407E+03  0.17770000000E+01 0. -1.
        -16    1    5    5    0    0  0.73871849429E+02 -0.83114324342E+03  0.37123104804E+03  0.91327358017E+03  0.00000000000E+00 0.  1.
          2    1    6    6  502    0  0.19909601827E+01  0.25831616344E+01  0.84657901216E+01  0.90722791437E+01  0.00000000000E+00 0. -1.
         -1    1    6    6    0  502 -0.23281845782E+03 -0.18203829922E+03  0.30288783148E+02  0.29708548782E+03  0.00000000000E+00 0.  1.
<mgrwt>
<rscale>  0 0.12636626E+04</rscale>
<asrwt>0</asrwt>
<pdfrwt beam="1">  1        3 0.23678175E+00 0.12636626E+04</pdfrwt>
<pdfrwt beam="2">  1       -4 0.16794289E+00 0.12636626E+04</pdfrwt>
<totfact> 0.41609528E-02</totfact>
</mgrwt>
</event>
<event>
12    3  0.1182097E-007  0.5525078E+03  0.7818608E-02  0.1000915E+00
          1   -1    0    0  501    0  0.00000000000E+00  0.00000000000E+00  0.88255442832E+03  0.88255442832E+03  0.00000000000E+00 0. -1.
         -2   -1    0    0    0  501 -0.00000000000E+00 -0.00000000000E+00 -0.64978038212E+03  0.64978038212E+03  0.00000000000E+00 0.  1.
        -24    2    1    2    0    0 -0.41055777290E+03  0.25967036627E+02  0.58940636538E+03  0.72206932713E+03  0.68936766289E+02 0.  0.
    5000000    2    1    2    0    0  0.41055777290E+03 -0.25967036627E+02 -0.35663231918E+03  0.81026548331E+03  0.60009296819E+03 0.  0.
        -24    2    4    4    0    0  0.48738257977E+03 -0.17562345912E+03 -0.34022199050E+03  0.62481195898E+03  0.79079724338E+02 0.  0.
         24    2    4    4    0    0 -0.76824806872E+02  0.14965642249E+03 -0.16410328673E+02  0.18545352433E+03  0.76319165709E+02 0.  0.
         11    1    3    3    0    0 -0.21754526936E+03  0.47896049604E+02  0.32289872921E+03  0.39227995757E+03  0.00000000000E+00 0. -1.
        -12    1    3    3    0    0 -0.19301250354E+03 -0.21929012978E+02  0.26650763617E+03  0.32978936956E+03  0.00000000000E+00 0.  1.
         15    1    5    5    0    0  0.18149300998E+03 -0.86205229833E+02 -0.92687259531E+02  0.22128068179E+03  0.17770000000E+01 0. -1.
        -16    1    5    5    0    0  0.30588956979E+03 -0.89418229285E+02 -0.24753473097E+03  0.40353127719E+03  0.00000000000E+00 0.  1.
          2    1    6    6  502    0 -0.46727994619E+02  0.83110105049E+02  0.28746839907E+02  0.99585018186E+02  0.00000000000E+00 0. -1.
         -1    1    6    6    0  502 -0.30096812253E+02  0.66546317442E+02 -0.45157168580E+02  0.85868506142E+02  0.00000000000E+00 0.  1.
<mgrwt>
<rscale>  0 0.55250782E+03</rscale>
<asrwt>0</asrwt>
<pdfrwt beam="1">  1        1 0.13577760E+00 0.55250782E+03</pdfrwt>
<pdfrwt beam="2">  1       -2 0.99966213E-01 0.55250782E+03</pdfrwt>
<totfact> 0.14282239E+01</totfact>
</mgrwt>
</event>
<event>
12    3  0.1182097E-007  0.9896757E+03  0.7818608E-02  0.9319941E-01
         -2   -1    0    0    0  501 -0.00000000000E+00  0.00000000000E+00  0.89503255909E+03  0.89503255909E+03  0.00000000000E+00 0.  1.
          1   -1    0    0  501    0  0.00000000000E+00 -0.00000000000E+00 -0.14831027159E+04  0.14831027159E+04  0.00000000000E+00 0. -1.
        -24    2    1    2    0    0  0.93499839263E+03  0.88475593543E+02  0.25990937501E+03  0.97777762596E+03  0.80288714937E+02 0.  0.
    5000000    2    1    2    0    0 -0.93499839263E+03 -0.88475593543E+02 -0.84797953186E+03  0.14003576491E+04  0.59990193695E+03 0.  0.
        -24    2    4    4    0    0 -0.73041798260E+03 -0.24330721852E+03 -0.38326667614E+03  0.86377700429E+03  0.80675499519E+02 0.  0.
         24    2    4    4    0    0 -0.20458041003E+03  0.15483162498E+03 -0.46471285571E+03  0.53658064476E+03  0.78324796898E+02 0.  0.
         13    1    3    3    0    0  0.57650370776E+03  0.32507477217E+02  0.19301709889E+03  0.60882580563E+03  0.00000000000E+00 0. -1.
        -14    1    3    3    0    0  0.35849468487E+03  0.55968116325E+02  0.66892276124E+02  0.36895182033E+03  0.00000000000E+00 0.  1.
         15    1    5    5    0    0 -0.73902229581E+02 -0.49720674254E+02 -0.54654430547E+02  0.10451769942E+03  0.17770000000E+01 0. -1.
        -16    1    5    5    0    0 -0.65651575302E+03 -0.19358654426E+03 -0.32861224560E+03  0.75925930487E+03  0.00000000000E+00 0.  1.
          4    1    6    6  502    0 -0.95546698782E+02  0.11487971672E+03 -0.22315069780E+03  0.26855680012E+03  0.00000000000E+00 0. -1.
         -3    1    6    6    0  502 -0.10903371125E+03  0.39951908253E+02 -0.24156215791E+03  0.26802384464E+03  0.00000000000E+00 0.  1.
<mgrwt>
<rscale>  0 0.98967572E+03</rscale>
<asrwt>0</asrwt>
<pdfrwt beam="1">  1        1 0.22816965E+00 0.98967572E+03</pdfrwt>
<pdfrwt beam="2">  1       -2 0.13769732E+00 0.98967572E+03</pdfrwt>
<totfact> 0.22100335E+00</totfact>
</mgrwt>
</event>
<event>
12    3  0.1182097E-007  0.9187006E+03  0.7818608E-02  0.9402502E-01
          1   -1    0    0  501    0  0.00000000000E+00  0.00000000000E+00  0.97010494681E+03  0.97010494681E+03  0.00000000000E+00 0. -1.
         -2   -1    0    0    0  501 -0.00000000000E+00 -0.00000000000E+00 -0.91827137539E+03  0.91827137539E+03  0.00000000000E+00 0.  1.
        -24    2    1    2    0    0 -0.70140620496E+03  0.47349814765E+03  0.23100859073E+02  0.85055791977E+03  0.82121647664E+02 0.  0.
    5000000    2    1    2    0    0  0.70140620496E+03 -0.47349814765E+03  0.28732712343E+02  0.10378184024E+04  0.60005858670E+03 0.  0.
        -24    2    4    4    0    0  0.44817165156E+03 -0.55405920107E+03 -0.11315509286E+03  0.72585847670E+03  0.78911504890E+02 0.  0.
         24    2    4    4    0    0  0.25323455339E+03  0.80561053416E+02  0.14188780521E+03  0.31195992572E+03  0.81049513463E+02 0.  0.
         11    1    3    3    0    0 -0.26249103567E+03  0.16237719264E+03 -0.29146202645E+02  0.31002805942E+03  0.00000000000E+00 0. -1.
        -12    1    3    3    0    0 -0.43891516929E+03  0.31112095502E+03  0.52247061719E+02  0.54052986036E+03  0.00000000000E+00 0.  1.
         15    1    5    5    0    0  0.63806581704E+02 -0.68229307034E+02  0.10911100709E+02  0.94067678056E+02  0.17770000000E+01 0. -1.
        -16    1    5    5    0    0  0.38436506986E+03 -0.48582989403E+03 -0.12406619357E+03  0.63179079864E+03  0.00000000000E+00 0.  1.
          4    1    6    6  502    0  0.61186724285E+02 -0.15461199526E+02  0.32187689808E+02  0.70844274960E+02  0.00000000000E+00 0. -1.
         -3    1    6    6    0  502  0.19204782911E+03  0.96022252943E+02  0.10970011540E+03  0.24111565076E+03  0.00000000000E+00 0.  1.
<mgrwt>
<rscale>  0 0.91870061E+03</rscale>
<asrwt>0</asrwt>
<pdfrwt beam="1">  1        1 0.14924691E+00 0.91870061E+03</pdfrwt>
<pdfrwt beam="2">  1       -2 0.14127252E+00 0.91870061E+03</pdfrwt>
<totfact> 0.49347678E+00</totfact>
</mgrwt>
</event>
<event>
12    3  0.1182097E-007  0.9511029E+03  0.7818608E-02  0.9363862E-01
         -2   -1    0    0    0  501 -0.00000000000E+00  0.00000000000E+00  0.84924822377E+03  0.84924822377E+03  0.00000000000E+00 0.  1.
          1   -1    0    0  501    0  0.00000000000E+00 -0.00000000000E+00 -0.11301253262E+04  0.11301253262E+04  0.00000000000E+00 0. -1.
        -24    2    1    2    0    0  0.29471144536E+03 -0.83267830561E+03 -0.19642369701E+03  0.90829100117E+03  0.78754538848E+02 0.  0.
    5000000    2    1    2    0    0 -0.29471144536E+03  0.83267830561E+03 -0.84453405400E+02  0.10710825488E+04  0.59989786792E+03 0.  0.
        -24    2    4    4    0    0 -0.31807224834E+03  0.18899183493E+03 -0.17493752900E+03  0.41583515478E+03  0.73674066422E+02 0.  0.
         24    2    4    4    0    0  0.23360802986E+02  0.64368647068E+03  0.90484123600E+02  0.65524739399E+03  0.79270240656E+02 0.  0.
         11    1    3    3    0    0  0.77808286831E+02 -0.26048323571E+03 -0.95235394049E+02  0.28805455363E+03  0.00000000000E+00 0. -1.
        -12    1    3    3    0    0  0.21690315853E+03 -0.57219506990E+03 -0.10118830296E+03  0.62023644754E+03  0.00000000000E+00 0.  1.
         15    1    5    5    0    0 -0.99254541180E+02  0.71363403753E+02 -0.22346883382E+02  0.12428491568E+03  0.17770000000E+01 0. -1.
        -16    1    5    5    0    0 -0.21881770716E+03  0.11762843118E+03 -0.15259064562E+03  0.29155023910E+03  0.00000000000E+00 0.  1.
          2    1    6    6  502    0 -0.22857421216E+02  0.13203981275E+03  0.24291365377E+01  0.13402564889E+03  0.00000000000E+00 0. -1.
         -1    1    6    6    0  502  0.46218224203E+02  0.51164665793E+03  0.88054987062E+02  0.52122174510E+03  0.00000000000E+00 0.  1.
<mgrwt>
<rscale>  0 0.95110291E+03</rscale>
<asrwt>0</asrwt>
<pdfrwt beam="1">  1        1 0.17386544E+00 0.95110291E+03</pdfrwt>
<pdfrwt beam="2">  1       -2 0.13065357E+00 0.95110291E+03</pdfrwt>
<totfact> 0.45349794E+00</totfact>
</mgrwt>
</event>
<event>
12    3  0.1182097E-007  0.6619485E+03  0.7818608E-02  0.9784613E-01
         -2   -1    0    0    0  501 -0.00000000000E+00  0.00000000000E+00  0.48662067639E+03  0.48662067639E+03  0.00000000000E+00 0.  1.
          1   -1    0    0  501    0  0.00000000000E+00 -0.00000000000E+00 -0.11669377460E+04  0.11669377460E+04  0.00000000000E+00 0. -1.
        -24    2    1    2    0    0 -0.50598761841E+03 -0.36398767781E+03 -0.40516603433E+03  0.74575463465E+03  0.58991187040E+02 0.  0.
    5000000    2    1    2    0    0  0.50598761841E+03  0.36398767781E+03 -0.27515103531E+03  0.90780378777E+03  0.59990759728E+03 0.  0.
        -24    2    4    4    0    0  0.51941235851E+03  0.23396972252E+03 -0.40683067099E+03  0.70590460286E+03  0.90879504035E+02 0.  0.
         24    2    4    4    0    0 -0.13424740099E+02  0.13001795529E+03  0.13167963568E+03  0.20189918490E+03  0.79616970980E+02 0.  0.
         13    1    3    3    0    0 -0.23190114868E+03 -0.16252173579E+03 -0.21896520141E+03  0.35796259133E+03  0.00000000000E+00 0. -1.
        -14    1    3    3    0    0 -0.27408646973E+03 -0.20146594202E+03 -0.18620083291E+03  0.38779204332E+03  0.00000000000E+00 0.  1.
         15    1    5    5    0    0  0.36997092923E+03  0.16215101955E+03 -0.23597206322E+03  0.46782198961E+03  0.17770000000E+01 0. -1.
        -16    1    5    5    0    0  0.14944142928E+03  0.71818702972E+02 -0.17085860778E+03  0.23808261325E+03  0.00000000000E+00 0.  1.
          2    1    6    6  502    0 -0.43258666878E+01  0.65564448836E+02  0.11848211196E+03  0.13548217937E+03  0.00000000000E+00 0. -1.
         -1    1    6    6    0  502 -0.90988734111E+01  0.64453506452E+02  0.13197523724E+02  0.66417005531E+02  0.00000000000E+00 0.  1.
<mgrwt>
<rscale>  0 0.66194847E+03</rscale>
<asrwt>0</asrwt>
<pdfrwt beam="1">  1        1 0.17952888E+00 0.66194847E+03</pdfrwt>
<pdfrwt beam="2">  1       -2 0.74864719E-01 0.66194847E+03</pdfrwt>
<totfact> 0.16480662E+01</totfact>
</mgrwt>
</event>
<event>
12    3  0.1182097E-007  0.1173409E+04  0.7818608E-02  0.9136455E-01
         -2   -1    0    0    0  501 -0.00000000000E+00  0.00000000000E+00  0.18384825561E+04  0.18384825561E+04  0.00000000000E+00 0.  1.
          1   -1    0    0  501    0  0.00000000000E+00 -0.00000000000E+00 -0.99034923751E+03  0.99034923751E+03  0.00000000000E+00 0. -1.
        -24    2    1    2    0    0  0.11029648401E+04  0.29730209338E+03 -0.20473398584E+03  0.11635113140E+04  0.83202161694E+02 0.  0.
    5000000    2    1    2    0    0 -0.11029648401E+04 -0.29730209338E+03  0.10528673044E+04  0.16653204796E+04  0.59986895724E+03 0.  0.
        -24    2    4    4    0    0 -0.24407771527E+03 -0.23917743006E+03  0.58522074508E+03  0.68232590166E+03  0.79407439591E+02 0.  0.
         24    2    4    4    0    0 -0.85888712479E+03 -0.58124663317E+02  0.46764655931E+03  0.98299457790E+03  0.80743211086E+02 0.  0.
         11    1    3    3    0    0  0.84450072568E+03  0.20731711395E+03 -0.18560514769E+03  0.88916316402E+03  0.00000000000E+00 0. -1.
        -12    1    3    3    0    0  0.25846411438E+03  0.89984979429E+02 -0.19128838149E+02  0.27434814998E+03  0.00000000000E+00 0.  1.
         15    1    5    5    0    0 -0.23143697165E+03 -0.22938584221E+03  0.50845579876E+03  0.60391339899E+03  0.17770000000E+01 0. -1.
        -16    1    5    5    0    0 -0.12640743618E+02 -0.97915878479E+01  0.76764946321E+02  0.78412502673E+02  0.00000000000E+00 0.  1.
          4    1    6    6  502    0 -0.38222644964E+03 -0.66838054423E+01  0.16755961397E+03  0.41739424564E+03  0.00000000000E+00 0. -1.
         -3    1    6    6    0  502 -0.47666067515E+03 -0.51440857874E+02  0.30008694534E+03  0.56560033226E+03  0.00000000000E+00 0.  1.
<mgrwt>
<rscale>  0 0.11734089E+04</rscale>
<asrwt>0</asrwt>
<pdfrwt beam="1">  1        1 0.15236142E+00 0.11734089E+04</pdfrwt>
<pdfrwt beam="2">  1       -2 0.28284347E+00 0.11734089E+04</pdfrwt>
<totfact> 0.53682259E-01</totfact>
</mgrwt>
</event>
<event>
12    3  0.1182097E-007  0.1256247E+04  0.7818608E-02  0.9065000E-01
         -2   -1    0    0    0  501 -0.00000000000E+00  0.00000000000E+00  0.69368273736E+03  0.69368273736E+03  0.00000000000E+00 0.  1.
          1   -1    0    0  501    0  0.00000000000E+00 -0.00000000000E+00 -0.23362615837E+04  0.23362615837E+04  0.00000000000E+00 0. -1.
        -24    2    1    2    0    0  0.83444699935E+03  0.84627814138E+03 -0.98233230052E+03  0.15438973287E+04  0.78445685286E+02 0.  0.
    5000000    2    1    2    0    0 -0.83444699935E+03 -0.84627814138E+03 -0.66024654579E+03  0.14860469924E+04  0.59993472560E+03 0.  0.
        -24    2    4    4    0    0 -0.58324955591E+02 -0.42986678967E+03 -0.27143052222E+03  0.51948352025E+03  0.89450221471E+02 0.  0.
         24    2    4    4    0    0 -0.77612204376E+03 -0.41641135171E+03 -0.38881602357E+03  0.96656347211E+03  0.85458789968E+02 0.  0.
         11    1    3    3    0    0  0.13924576994E+03  0.15847093540E+03 -0.21102950372E+03  0.29838879546E+03  0.00000000000E+00 0. -1.
        -12    1    3    3    0    0  0.69520122941E+03  0.68780720598E+03 -0.77130279680E+03  0.12455085332E+04  0.00000000000E+00 0.  1.
         15    1    5    5    0    0 -0.12564905235E+01 -0.26108622351E+03 -0.12814154356E+03  0.29084533310E+03  0.17770000000E+01 0. -1.
        -16    1    5    5    0    0 -0.57068465068E+02 -0.16878056616E+03 -0.14328897866E+03  0.22863818715E+03  0.00000000000E+00 0.  1.
          4    1    6    6  502    0 -0.63934747119E+03 -0.30731022316E+03 -0.29775189337E+03  0.76932499777E+03  0.00000000000E+00 0. -1.
         -3    1    6    6    0  502 -0.13677457256E+03 -0.10910112855E+03 -0.91064130200E+02  0.19723847434E+03  0.00000000000E+00 0.  1.
<mgrwt>
<rscale>  0 0.12562474E+04</rscale>
<asrwt>0</asrwt>
<pdfrwt beam="1">  1        1 0.35942486E+00 0.12562474E+04</pdfrwt>
<pdfrwt beam="2">  1       -2 0.10672042E+00 0.12562474E+04</pdfrwt>
<totfact> 0.10660776E+00</totfact>
</mgrwt>
</event>
<event>
12    3  0.1182097E-007  0.6904926E+03  0.7818608E-02  0.9733631E-01
         -2   -1    0    0    0  501 -0.00000000000E+00  0.00000000000E+00  0.93059037218E+03  0.93059037218E+03  0.00000000000E+00 0.  1.
          1   -1    0    0  501    0  0.00000000000E+00 -0.00000000000E+00 -0.54170293596E+03  0.54170293596E+03  0.00000000000E+00 0. -1.
        -24    2    1    2    0    0 -0.56537006602E+03 -0.39768665310E+02  0.32527564509E+02  0.57330663106E+03  0.79984951483E+02 0.  0.
    5000000    2    1    2    0    0  0.56537006602E+03  0.39768665310E+02  0.35635987171E+03  0.89898667709E+03  0.59996652334E+03 0.  0.
        -24    2    4    4    0    0  0.65724889101E+03  0.11743260776E+03  0.33582011105E+03  0.75157158101E+03  0.79486931664E+02 0.  0.
         24    2    4    4    0    0 -0.91878824987E+02 -0.77663942447E+02  0.20539760661E+02  0.14741509608E+03  0.82679636825E+02 0.  0.
         13    1    3    3    0    0 -0.15105577479E+03 -0.16639445989E+02  0.43926964759E+02  0.15819069660E+03  0.00000000000E+00 0. -1.
        -14    1    3    3    0    0 -0.41431429124E+03 -0.23129219321E+02 -0.11399400250E+02  0.41511593445E+03  0.00000000000E+00 0.  1.
         15    1    5    5    0    0  0.31259615106E+03  0.95182976547E+02  0.17311759640E+03  0.36979590668E+03  0.17770000000E+01 0. -1.
        -16    1    5    5    0    0  0.34465273995E+03  0.22249631211E+02  0.16270251465E+03  0.38177567434E+03  0.00000000000E+00 0.  1.
          2    1    6    6  502    0 -0.20690447045E+02  0.14641746589E+02 -0.94493752057E+01  0.27051174353E+02  0.00000000000E+00 0. -1.
         -1    1    6    6    0  502 -0.71188377942E+02 -0.92305689036E+02  0.29989135867E+02  0.12036392172E+03  0.00000000000E+00 0.  1.
<mgrwt>
<rscale>  0 0.69049264E+03</rscale>
<asrwt>0</asrwt>
<pdfrwt beam="1">  1        1 0.83338914E-01 0.69049264E+03</pdfrwt>
<pdfrwt beam="2">  1       -2 0.14316775E+00 0.69049264E+03</pdfrwt>
<totfact> 0.12054908E+01</totfact>
</mgrwt>
</event>
<event>
12    3  0.1182097E-007  0.5668413E+03  0.7818608E-02  0.9976693E-01
         -2   -1    0    0    0  501 -0.00000000000E+00  0.00000000000E+00  0.57499459615E+03  0.57499459615E+03  0.00000000000E+00 0.  1.
          1   -1    0    0  501    0  0.00000000000E+00 -0.00000000000E+00 -0.69207655872E+03  0.69207655872E+03  0.00000000000E+00 0. -1.
        -24    2    1    2    0    0  0.32756972358E+03 -0.35265287310E+03 -0.96359486261E+02  0.49758182839E+03  0.81465039384E+02 0.  0.
    5000000    2    1    2    0    0 -0.32756972358E+03  0.35265287310E+03 -0.20722476310E+02  0.76948932648E+03  0.60001535800E+03 0.  0.
        -24    2    4    4    0    0  0.64596367150E+02  0.20479627590E+03  0.18648053272E+03  0.29514529765E+03  0.78876817707E+02 0.  0.
         24    2    4    4    0    0 -0.39216609073E+03  0.14785659719E+03 -0.20720300903E+03  0.47434402883E+03  0.80083423251E+02 0.  0.
         11    1    3    3    0    0  0.18203022919E+03 -0.24661674354E+03 -0.41354671951E+02  0.30929764213E+03  0.00000000000E+00 0. -1.
        -12    1    3    3    0    0  0.14553949440E+03 -0.10603612955E+03 -0.55004814309E+02  0.18828418627E+03  0.00000000000E+00 0.  1.
         15    1    5    5    0    0  0.45364269476E+02  0.60795537829E+02  0.29916869874E+02  0.81560966136E+02  0.17770000000E+01 0. -1.
        -16    1    5    5    0    0  0.19232097674E+02  0.14400073808E+03  0.15656366284E+03  0.21358433152E+03  0.00000000000E+00 0.  1.
          2    1    6    6  502    0 -0.19122752810E+03  0.11263591540E+03 -0.12207897366E+03  0.25329447833E+03  0.00000000000E+00 0. -1.
         -1    1    6    6    0  502 -0.20093856264E+03  0.35220681793E+02 -0.85124035371E+02  0.22104955050E+03  0.00000000000E+00 0.  1.
<mgrwt>
<rscale>  0 0.56684133E+03</rscale>
<asrwt>0</asrwt>
<pdfrwt beam="1">  1        1 0.10647332E+00 0.56684133E+03</pdfrwt>
<pdfrwt beam="2">  1       -2 0.88460708E-01 0.56684133E+03</pdfrwt>
<totfact> 0.27724683E+01</totfact>
</mgrwt>
</event>
<event>
12    3  0.1182097E-007  0.5043674E+03  0.7818608E-02  0.1012645E+00
          1   -1    0    0  501    0  0.00000000000E+00  0.00000000000E+00  0.48883680076E+03  0.48883680076E+03  0.00000000000E+00 0. -1.
         -2   -1    0    0    0  501 -0.00000000000E+00 -0.00000000000E+00 -0.60316731354E+03  0.60316731354E+03  0.00000000000E+00 0.  1.
        -24    2    1    2    0    0 -0.37500415495E+02  0.33766660485E+03 -0.19163525669E+03  0.39819048873E+03  0.80041092684E+02 0.  0.
    5000000    2    1    2    0    0  0.37500415495E+02 -0.33766660485E+03  0.77304743907E+02  0.69381362558E+03  0.59998025502E+03 0.  0.
        -24    2    4    4    0    0  0.30104675496E+03 -0.11134615260E+03  0.13861848584E+02  0.33133357994E+03  0.81010344889E+02 0.  0.
         24    2    4    4    0    0 -0.26354633947E+03 -0.22632045225E+03  0.63442895323E+02  0.36248004563E+03  0.81787299520E+02 0.  0.
         11    1    3    3    0    0 -0.30918898778E+02  0.29275193619E+03 -0.13041049425E+03  0.32197293590E+03  0.00000000000E+00 0. -1.
        -12    1    3    3    0    0 -0.65815167169E+01  0.44914668659E+02 -0.61224762444E+02  0.76217552830E+02  0.00000000000E+00 0.  1.
         15    1    5    5    0    0  0.19171295762E+03 -0.69429718554E+02  0.47775651434E+02  0.20942782656E+03  0.17770000000E+01 0. -1.
        -16    1    5    5    0    0  0.10933379734E+03 -0.41916434042E+02 -0.33913802850E+02  0.12190575338E+03  0.00000000000E+00 0.  1.
          4    1    6    6  502    0 -0.13557880058E+02 -0.18103364535E+02  0.26816719619E+02  0.35081111304E+02  0.00000000000E+00 0. -1.
         -3    1    6    6    0  502 -0.24998845941E+03 -0.20821708771E+03  0.36626175704E+02  0.32739893433E+03  0.00000000000E+00 0.  1.
<mgrwt>
<rscale>  0 0.50436736E+03</rscale>
<asrwt>0</asrwt>
<pdfrwt beam="1">  1        1 0.75205662E-01 0.50436736E+03</pdfrwt>
<pdfrwt beam="2">  1       -2 0.92794971E-01 0.50436736E+03</pdfrwt>
<totfact> 0.40918104E+01</totfact>
</mgrwt>
</event>
<event>
12    3  0.1182097E-007  0.7550246E+03  0.7818608E-02  0.9627500E-01
         -2   -1    0    0    0  501 -0.00000000000E+00  0.00000000000E+00  0.11515386426E+04  0.11515386426E+04  0.00000000000E+00 0.  1.
          1   -1    0    0  501    0  0.00000000000E+00 -0.00000000000E+00 -0.57693989861E+03  0.57693989861E+03  0.00000000000E+00 0. -1.
        -24    2    1    2    0    0  0.61803236353E+03  0.33209564297E+03  0.22143658465E+03  0.74002350327E+03  0.79681277147E+02 0.  0.
    5000000    2    1    2    0    0 -0.61803236353E+03 -0.33209564297E+03  0.35316215930E+03  0.98845503790E+03  0.60005694126E+03 0.  0.
        -24    2    4    4    0    0 -0.54565680566E+03 -0.10357219236E+03  0.44790824350E+03  0.71793489915E+03  0.79625223554E+02 0.  0.
         24    2    4    4    0    0 -0.72375557869E+02 -0.22852345061E+03 -0.94746084202E+02  0.27052013876E+03  0.82116600921E+02 0.  0.
         11    1    3    3    0    0  0.35199468152E+03  0.16732218083E+03  0.86413553281E+02  0.39920454682E+03  0.00000000000E+00 0. -1.
        -12    1    3    3    0    0  0.26603768201E+03  0.16477346214E+03  0.13502303137E+03  0.34081895645E+03  0.00000000000E+00 0.  1.
         15    1    5    5    0    0 -0.17405833242E+03 -0.57077982126E+02  0.11098505185E+03  0.21418458999E+03  0.17770000000E+01 0. -1.
        -16    1    5    5    0    0 -0.37159847324E+03 -0.46494210234E+02  0.33692319165E+03  0.50375030915E+03  0.00000000000E+00 0.  1.
          2    1    6    6  502    0 -0.79876699792E+02 -0.14262010696E+03 -0.83509320928E+02  0.18356085847E+03  0.00000000000E+00 0. -1.
         -1    1    6    6    0  502  0.75011419230E+01 -0.85903343642E+02 -0.11236763275E+02  0.86959280287E+02  0.00000000000E+00 0.  1.
<mgrwt>
<rscale>  0 0.75502457E+03</rscale>
<asrwt>0</asrwt>
<pdfrwt beam="1">  1        1 0.88759984E-01 0.75502457E+03</pdfrwt>
<pdfrwt beam="2">  1       -2 0.17715979E+00 0.75502457E+03</pdfrwt>
<totfact> 0.61540205E+00</totfact>
</mgrwt>
</event>
<event>
12    3  0.1182097E-007  0.8407519E+03  0.7818608E-02  0.9502834E-01
          3   -1    0    0  501    0  0.00000000000E+00  0.00000000000E+00  0.13118205233E+04  0.13118205233E+04  0.00000000000E+00 0. -1.
         -4   -1    0    0    0  501 -0.00000000000E+00 -0.00000000000E+00 -0.63779752413E+03  0.63779752413E+03  0.00000000000E+00 0.  1.
        -24    2    1    2    0    0 -0.33193912452E+03  0.72941860809E+03  0.45435360222E+03  0.92458293404E+03  0.78621357558E+02 0.  0.
    5000000    2    1    2    0    0  0.33193912452E+03 -0.72941860809E+03  0.21966939700E+03  0.10250351134E+04  0.60017268479E+03 0.  0.
        -24    2    4    4    0    0  0.11725416298E+03 -0.61348690861E+03 -0.70629393472E+02  0.63769345427E+03  0.10746955207E+03 0.  0.
         24    2    4    4    0    0  0.21468496153E+03 -0.11593169948E+03  0.29029879048E+03  0.38734165916E+03  0.78932765820E+02 0.  0.
         13    1    3    3    0    0 -0.17132026029E+03  0.29305580207E+03  0.21213970291E+03  0.40029437701E+03  0.00000000000E+00 0. -1.
        -14    1    3    3    0    0 -0.16061886423E+03  0.43636280602E+03  0.24221389931E+03  0.52428855704E+03  0.00000000000E+00 0.  1.
         15    1    5    5    0    0  0.44229519356E+02 -0.44678201322E+03 -0.77292011566E+02  0.45557395722E+03  0.17770000000E+01 0. -1.
        -16    1    5    5    0    0  0.73024643628E+02 -0.16670489539E+03  0.66626180940E+01  0.18211949705E+03  0.00000000000E+00 0.  1.
          4    1    6    6  502    0  0.51770839996E+02 -0.44255369362E+02  0.13466667197E+03  0.15091013925E+03  0.00000000000E+00 0. -1.
         -3    1    6    6    0  502  0.16291412154E+03 -0.71676330121E+02  0.15563211851E+03  0.23643151991E+03  0.00000000000E+00 0.  1.
<mgrwt>
<rscale>  0 0.84075189E+03</rscale>
<asrwt>0</asrwt>
<pdfrwt beam="1">  1        3 0.20181854E+00 0.84075189E+03</pdfrwt>
<pdfrwt beam="2">  1       -4 0.98122696E-01 0.84075189E+03</pdfrwt>
<totfact> 0.27813915E-01</totfact>
</mgrwt>
</event>
<event>
12    3  0.1182097E-007  0.3230036E+03  0.7818608E-02  0.1074275E+00
         -2   -1    0    0    0  501 -0.00000000000E+00  0.00000000000E+00  0.14533827389E+03  0.14533827389E+03  0.00000000000E+00 0.  1.
          1   -1    0    0  501    0  0.00000000000E+00 -0.00000000000E+00 -0.25623218211E+04  0.25623218211E+04  0.00000000000E+00 0. -1.
        -24    2    1    2    0    0  0.38404928156E+02  0.13303241210E+03 -0.18911062715E+04  0.18978905378E+04  0.80826988534E+02 0.  0.
    5000000    2    1    2    0    0 -0.38404928156E+02 -0.13303241210E+03 -0.52587727568E+03  0.80976955720E+03  0.60000605456E+03 0.  0.
        -24    2    4    4    0    0  0.70130019991E+02  0.16303677522E+03 -0.43277628630E+03  0.47142265401E+03  0.58692375618E+02 0.  0.
         24    2    4    4    0    0 -0.10853494815E+03 -0.29606918731E+03 -0.93100989386E+02  0.33834690318E+03  0.79837547708E+02 0.  0.
         11    1    3    3    0    0  0.50427794634E+02  0.11921491621E+03 -0.18150562808E+04  0.18196660301E+04  0.00000000000E+00 0. -1.
        -12    1    3    3    0    0 -0.12022866478E+02  0.13817495886E+02 -0.76049990713E+02  0.78224507659E+02  0.00000000000E+00 0.  1.
         15    1    5    5    0    0  0.11839617750E+02  0.42714398968E+01 -0.70185667135E+02  0.71327465590E+02  0.17770000000E+01 0. -1.
        -16    1    5    5    0    0  0.58290402241E+02  0.15876533532E+03 -0.36259061916E+03  0.40009518842E+03  0.00000000000E+00 0.  1.
          4    1    6    6  502    0 -0.50784592311E+02 -0.17590731776E+03 -0.14692555430E+02  0.18367996745E+03  0.00000000000E+00 0. -1.
         -3    1    6    6    0  502 -0.57750355836E+02 -0.12016186955E+03 -0.78408433956E+02  0.15466693573E+03  0.00000000000E+00 0.  1.
<mgrwt>
<rscale>  0 0.32300364E+03</rscale>
<asrwt>0</asrwt>
<pdfrwt beam="1">  1        1 0.39420334E+00 0.32300364E+03</pdfrwt>
<pdfrwt beam="2">  1       -2 0.22359736E-01 0.32300364E+03</pdfrwt>
<totfact> 0.21675150E+01</totfact>
</mgrwt>
</event>
<event>
12    3  0.1182097E-007  0.9498387E+03  0.7818608E-02  0.9365339E-01
         -2   -1    0    0    0  501 -0.00000000000E+00  0.00000000000E+00  0.31322307269E+03  0.31322307269E+03  0.00000000000E+00 0.  1.
          1   -1    0    0  501    0  0.00000000000E+00 -0.00000000000E+00 -0.33092225021E+04  0.33092225021E+04  0.00000000000E+00 0. -1.
        -24    2    1    2    0    0 -0.20521816423E+02  0.91588172314E+03 -0.11129715246E+04  0.14441293710E+04  0.86853612509E+02 0.  0.
    5000000    2    1    2    0    0  0.20521816423E+02 -0.91588172314E+03 -0.18830279048E+04  0.21783162037E+04  0.60000576451E+03 0.  0.
        -24    2    4    4    0    0  0.10014360629E+03 -0.85124153655E+03 -0.18584188269E+04  0.20481240465E+04  0.80316116157E+02 0.  0.
         24    2    4    4    0    0 -0.79621789865E+02 -0.64640186591E+02 -0.24609077933E+02  0.13019215720E+03  0.76330910742E+02 0.  0.
         11    1    3    3    0    0  0.22699988280E+02  0.61327906226E+03 -0.77176807823E+03  0.98602863257E+03  0.00000000000E+00 0. -1.
        -12    1    3    3    0    0 -0.43221804704E+02  0.30260266088E+03 -0.34120344637E+03  0.45810073847E+03  0.00000000000E+00 0.  1.
         15    1    5    5    0    0  0.86405628243E+02 -0.57094218313E+03 -0.11712898383E+04  0.13058958427E+04  0.17770000000E+01 0. -1.
        -16    1    5    5    0    0  0.13737978045E+02 -0.28029935342E+03 -0.68712898860E+03  0.74222820382E+03  0.00000000000E+00 0.  1.
          2    1    6    6  502    0 -0.13830904832E+02  0.14007623753E+02  0.98595960950E+01  0.22016336817E+02  0.00000000000E+00 0. -1.
         -1    1    6    6    0  502 -0.65790885032E+02 -0.78647810344E+02 -0.34468674028E+02  0.10817582038E+03  0.00000000000E+00 0.  1.
<mgrwt>
<rscale>  0 0.94983872E+03</rscale>
<asrwt>0</asrwt>
<pdfrwt beam="1">  1        1 0.50911116E+00 0.94983872E+03</pdfrwt>
<pdfrwt beam="2">  1       -2 0.48188165E-01 0.94983872E+03</pdfrwt>
<totfact> 0.13104238E+00</totfact>
</mgrwt>
</event>
<event>
12    3  0.1182097E-007  0.1372133E+04  0.7818608E-02  0.8974241E-01
         -2   -1    0    0    0  501 -0.00000000000E+00  0.00000000000E+00  0.71489921010E+03  0.71489921010E+03  0.00000000000E+00 0.  1.
          1   -1    0    0  501    0  0.00000000000E+00 -0.00000000000E+00 -0.32945814855E+04  0.32945814855E+04  0.00000000000E+00 0. -1.
        -24    2    1    2    0    0  0.83304056374E+03 -0.10244588764E+04 -0.38299255930E+03  0.13771616586E+04  0.80114686545E+02 0.  0.
    5000000    2    1    2    0    0 -0.83304056374E+03  0.10244588764E+04 -0.21966897161E+04  0.26323190371E+04  0.60015434152E+03 0.  0.
        -24    2    4    4    0    0 -0.88071212085E+02 -0.43159614429E+02 -0.32814536142E+03  0.35361556867E+03  0.88007394378E+02 0.  0.
         24    2    4    4    0    0 -0.74496935166E+03  0.10676184909E+04 -0.18685443547E+04  0.22787034684E+04  0.79012116002E+02 0.  0.
         11    1    3    3    0    0  0.64040424119E+03 -0.76557702435E+03 -0.25630358937E+03  0.10304937177E+04  0.00000000000E+00 0. -1.
        -12    1    3    3    0    0  0.19263632255E+03 -0.25888185208E+03 -0.12668896993E+03  0.34666794084E+03  0.00000000000E+00 0.  1.
         15    1    5    5    0    0 -0.91265660528E+02 -0.56050951960E+02 -0.22036982656E+03  0.24502479098E+03  0.17770000000E+01 0. -1.
        -16    1    5    5    0    0  0.31944484432E+01  0.12891337531E+02 -0.10777553486E+03  0.10859077769E+03  0.00000000000E+00 0.  1.
          2    1    6    6  502    0 -0.18293351115E+03  0.30618911430E+03 -0.46919279634E+03  0.58937112531E+03  0.00000000000E+00 0. -1.
         -1    1    6    6    0  502 -0.56203584051E+03  0.76142937655E+03 -0.13993515583E+04  0.16893323431E+04  0.00000000000E+00 0.  1.
<mgrwt>
<rscale>  0 0.13721334E+04</rscale>
<asrwt>0</asrwt>
<pdfrwt beam="1">  1        1 0.50685868E+00 0.13721334E+04</pdfrwt>
<pdfrwt beam="2">  1       -2 0.10998450E+00 0.13721334E+04</pdfrwt>
<totfact> 0.20224106E-01</totfact>
</mgrwt>
</event>
<event>
12    3  0.1182097E-007  0.4825631E+03  0.7818608E-02  0.1018433E+00
         -2   -1    0    0    0  501 -0.00000000000E+00  0.00000000000E+00  0.10015883998E+04  0.10015883998E+04  0.00000000000E+00 0.  1.
          1   -1    0    0  501    0  0.00000000000E+00 -0.00000000000E+00 -0.70961670344E+03  0.70961670344E+03  0.00000000000E+00 0. -1.
        -24    2    1    2    0    0 -0.21695069786E+03 -0.21965253161E+03 -0.54787602013E+03  0.63387220387E+03  0.79441786582E+02 0.  0.
    5000000    2    1    2    0    0  0.21695069786E+03  0.21965253161E+03  0.83984771645E+03  0.10773328993E+04  0.59998929091E+03 0.  0.
        -24    2    4    4    0    0 -0.97826382077E+02  0.29442478917E+03  0.27744263703E+03  0.42394126457E+03  0.80596659081E+02 0.  0.
         24    2    4    4    0    0  0.31477707994E+03 -0.74772257552E+02  0.56240507942E+03  0.65339163477E+03  0.77108070058E+02 0.  0.
         13    1    3    3    0    0 -0.17814514368E+03 -0.13340245921E+03 -0.35382306388E+03  0.41799840775E+03  0.00000000000E+00 0. -1.
        -14    1    3    3    0    0 -0.38805554182E+02 -0.86250072400E+02 -0.19405295625E+03  0.21587379613E+03  0.00000000000E+00 0.  1.
         15    1    5    5    0    0 -0.69380450090E+02  0.99532606328E+02  0.81856341278E+02  0.14636941249E+03  0.17770000000E+01 0. -1.
        -16    1    5    5    0    0 -0.28445931987E+02  0.19489218284E+03  0.19558629575E+03  0.27757185207E+03  0.00000000000E+00 0.  1.
          4    1    6    6  502    0  0.77507678717E+02  0.90908903344E+01  0.17244287870E+03  0.18927924071E+03  0.00000000000E+00 0. -1.
         -3    1    6    6    0  502  0.23726940122E+03 -0.83863147887E+02  0.38996220072E+03  0.46411239406E+03  0.00000000000E+00 0.  1.
<mgrwt>
<rscale>  0 0.48256315E+03</rscale>
<asrwt>0</asrwt>
<pdfrwt beam="1">  1        1 0.10917180E+00 0.48256315E+03</pdfrwt>
<pdfrwt beam="2">  1       -2 0.15409052E+00 0.48256315E+03</pdfrwt>
<totfact> 0.69313229E+00</totfact>
</mgrwt>
</event>
<event>
12    3  0.1182097E-007  0.5685898E+03  0.7818608E-02  0.9972804E-01
         -2   -1    0    0    0  501 -0.00000000000E+00  0.00000000000E+00  0.55247752405E+03  0.55247752405E+03  0.00000000000E+00 0.  1.
          1   -1    0    0  501    0  0.00000000000E+00 -0.00000000000E+00 -0.82062270644E+03  0.82062270644E+03  0.00000000000E+00 0. -1.
        -24    2    1    2    0    0 -0.33467220687E+03  0.41805830851E+03 -0.82141769332E+02  0.54770444571E+03  0.80340862676E+02 0.  0.
    5000000    2    1    2    0    0  0.33467220687E+03 -0.41805830851E+03 -0.18600341306E+03  0.82539578477E+03  0.59991890825E+03 0.  0.
        -24    2    4    4    0    0  0.32131728290E+03 -0.24355524925E+03 -0.37481413017E+03  0.55604151576E+03  0.78310786938E+02 0.  0.
         24    2    4    4    0    0  0.13354923976E+02 -0.17450305927E+03  0.18881071711E+03  0.26935426901E+03  0.79199517982E+02 0.  0.
         13    1    3    3    0    0 -0.13535329045E+03  0.18009889859E+03 -0.74199676097E+02  0.23719552787E+03  0.00000000000E+00 0. -1.
        -14    1    3    3    0    0 -0.19931891642E+03  0.23795940993E+03 -0.79420932348E+01  0.31050891785E+03  0.00000000000E+00 0.  1.
         15    1    5    5    0    0  0.21010712967E+03 -0.20326377807E+03 -0.27236489968E+03  0.39955846346E+03  0.17770000000E+01 0. -1.
        -16    1    5    5    0    0  0.11121015322E+03 -0.40291471173E+02 -0.10244923050E+03  0.15648305231E+03  0.00000000000E+00 0.  1.
          4    1    6    6  502    0  0.42695882035E+02 -0.67237268344E+02  0.94099161511E+02  0.12328195648E+03  0.00000000000E+00 0. -1.
         -3    1    6    6    0  502 -0.29340958059E+02 -0.10726579092E+03  0.94711555599E+02  0.14607231252E+03  0.00000000000E+00 0.  1.
<mgrwt>
<rscale>  0 0.56858977E+03</rscale>
<asrwt>0</asrwt>
<pdfrwt beam="1">  1        1 0.12624965E+00 0.56858977E+03</pdfrwt>
<pdfrwt beam="2">  1       -2 0.84996542E-01 0.56858977E+03</pdfrwt>
<totfact> 0.23337067E+01</totfact>
</mgrwt>
</event>
<event>
12    3  0.1182097E-007  0.4646941E+03  0.7818608E-02  0.1023429E+00
         -2   -1    0    0    0  501 -0.00000000000E+00  0.00000000000E+00  0.17033305510E+03  0.17033305510E+03  0.00000000000E+00 0.  1.
          1   -1    0    0  501    0  0.00000000000E+00 -0.00000000000E+00 -0.32914207149E+04  0.32914207149E+04  0.00000000000E+00 0. -1.
        -24    2    1    2    0    0  0.35739045265E+03  0.12609194407E+03 -0.24644417030E+04  0.24946688802E+04  0.79201011802E+02 0.  0.
    5000000    2    1    2    0    0 -0.35739045265E+03 -0.12609194407E+03 -0.65664595677E+03  0.96708488979E+03  0.60036835153E+03 0.  0.
        -24    2    4    4    0    0 -0.28564421886E+03 -0.26044244576E+03 -0.68648595187E+03  0.79193969317E+03  0.80514769927E+02 0.  0.
         24    2    4    4    0    0 -0.71746233796E+02  0.13435050168E+03  0.29839995101E+02  0.17514519663E+03  0.81165480517E+02 0.  0.
         11    1    3    3    0    0  0.13664373336E+03  0.65646981539E+02 -0.76410980477E+03  0.77900245814E+03  0.00000000000E+00 0. -1.
        -12    1    3    3    0    0  0.22074671930E+03  0.60444962535E+02 -0.17003318982E+04  0.17156664220E+04  0.00000000000E+00 0.  1.
         15    1    5    5    0    0 -0.25922380332E+03 -0.19539287036E+03 -0.56151200137E+03  0.64859404823E+03  0.17770000000E+01 0. -1.
        -16    1    5    5    0    0 -0.26420415536E+02 -0.65049575395E+02 -0.12497395051E+03  0.14334564493E+03  0.00000000000E+00 0.  1.
          4    1    6    6  502    0 -0.38491178978E+02  0.95409534324E+02 -0.18723412962E+02  0.10457110639E+03  0.00000000000E+00 0. -1.
         -3    1    6    6    0  502 -0.33255054819E+02  0.38940967359E+02  0.48563408063E+02  0.70574090235E+02  0.00000000000E+00 0.  1.
<mgrwt>
<rscale>  0 0.46469407E+03</rscale>
<asrwt>0</asrwt>
<pdfrwt beam="1">  1        1 0.50637242E+00 0.46469407E+03</pdfrwt>
<pdfrwt beam="2">  1       -2 0.26205085E-01 0.46469407E+03</pdfrwt>
<totfact> 0.48065085E+00</totfact>
</mgrwt>
</event>
<event>
12    3  0.1182097E-007  0.8370898E+03  0.7818608E-02  0.9507830E-01
         -2   -1    0    0    0  501 -0.00000000000E+00  0.00000000000E+00  0.13418674973E+04  0.13418674973E+04  0.00000000000E+00 0.  1.
          1   -1    0    0  501    0  0.00000000000E+00 -0.00000000000E+00 -0.11391619231E+04  0.11391619231E+04  0.00000000000E+00 0. -1.
        -24    2    1    2    0    0  0.35190605844E+02  0.78186656447E+03  0.95751411419E+03  0.12392805348E+04  0.80182677695E+02 0.  0.
    5000000    2    1    2    0    0 -0.35190605844E+02 -0.78186656447E+03 -0.75480854000E+03  0.12417488856E+04  0.59970881229E+03 0.  0.
        -24    2    4    4    0    0 -0.12861530980E+03 -0.69794549381E+02  0.33786909470E+02  0.17242458079E+03  0.84708345333E+02 0.  0.
         24    2    4    4    0    0  0.93424703959E+02 -0.71207201509E+03 -0.78859544947E+03  0.10693243048E+04  0.76137743795E+02 0.  0.
         13    1    3    3    0    0  0.71941977518E+01  0.69643513353E+03  0.83541557818E+03  0.10876547430E+04  0.00000000000E+00 0. -1.
        -14    1    3    3    0    0  0.27996408092E+02  0.85431430933E+02  0.12209853601E+03  0.15162579184E+03  0.00000000000E+00 0.  1.
         15    1    5    5    0    0 -0.10113869262E+03 -0.11094572740E+02  0.34968197554E+02  0.10760138131E+03  0.17770000000E+01 0. -1.
        -16    1    5    5    0    0 -0.27476617179E+02 -0.58699976641E+02 -0.11812880838E+01  0.64823199480E+02  0.00000000000E+00 0.  1.
          2    1    6    6  502    0 -0.21473069509E+01 -0.21750257828E+03 -0.26364072874E+03  0.34178709212E+03  0.00000000000E+00 0. -1.
         -1    1    6    6    0  502  0.95572010910E+02 -0.49456943680E+03 -0.52495472073E+03  0.72753721273E+03  0.00000000000E+00 0.  1.
<mgrwt>
<rscale>  0 0.83708984E+03</rscale>
<asrwt>0</asrwt>
<pdfrwt beam="1">  1        1 0.17525568E+00 0.83708984E+03</pdfrwt>
<pdfrwt beam="2">  1       -2 0.20644115E+00 0.83708984E+03</pdfrwt>
<totfact> 0.12803856E+00</totfact>
</mgrwt>
</event>
<event>
12    3  0.1182097E-007  0.4682534E+03  0.7818608E-02  0.1022414E+00
         -2   -1    0    0    0  501 -0.00000000000E+00  0.00000000000E+00  0.29654835628E+03  0.29654835628E+03  0.00000000000E+00 0.  1.
          1   -1    0    0  501    0  0.00000000000E+00 -0.00000000000E+00 -0.87825693339E+03  0.87825693339E+03  0.00000000000E+00 0. -1.
        -24    2    1    2    0    0 -0.30653236217E+03  0.10053244146E+03 -0.25550897360E+03  0.41957271621E+03  0.81777550407E+02 0.  0.
    5000000    2    1    2    0    0  0.30653236217E+03 -0.10053244146E+03 -0.32619960351E+03  0.75523257346E+03  0.59991765921E+03 0.  0.
        -24    2    4    4    0    0  0.21816562476E+03 -0.30168481043E+03 -0.32058280343E+02  0.37961822893E+03  0.66875269909E+02 0.  0.
         24    2    4    4    0    0  0.88366737417E+02  0.20115236897E+03 -0.29414132317E+03  0.37561434453E+03  0.79347728370E+02 0.  0.
         11    1    3    3    0    0 -0.90015194267E+02 -0.84107256670E+01 -0.71075510802E+02  0.11500088583E+03  0.00000000000E+00 0. -1.
        -12    1    3    3    0    0 -0.21651716791E+03  0.10894316713E+03 -0.18443346279E+03  0.30457183038E+03  0.00000000000E+00 0.  1.
         15    1    5    5    0    0  0.19819687829E+03 -0.25667375978E+03 -0.48073018635E+02  0.32783775617E+03  0.17770000000E+01 0. -1.
        -16    1    5    5    0    0  0.19968746472E+02 -0.45011050650E+02  0.16014738292E+02  0.51780472756E+02  0.00000000000E+00 0.  1.
          4    1    6    6  502    0  0.41175262022E+02  0.25797082460E+02 -0.38261067026E+02  0.61844974864E+02  0.00000000000E+00 0. -1.
         -3    1    6    6    0  502  0.47191475395E+02  0.17535528651E+03 -0.25588025614E+03  0.31376936966E+03  0.00000000000E+00 0.  1.
<mgrwt>
<rscale>  0 0.46825340E+03</rscale>
<asrwt>0</asrwt>
<pdfrwt beam="1">  1        1 0.13511645E+00 0.46825340E+03</pdfrwt>
<pdfrwt beam="2">  1       -2 0.45622825E-01 0.46825340E+03</pdfrwt>
<totfact> 0.79182524E+01</totfact>
</mgrwt>
</event>
<event>
12    3  0.1182097E-007  0.3814166E+03  0.7818608E-02  0.1050411E+00
         -2   -1    0    0    0  501 -0.00000000000E+00  0.00000000000E+00  0.15897000142E+04  0.15897000142E+04  0.00000000000E+00 0.  1.
          1   -1    0    0  501    0  0.00000000000E+00 -0.00000000000E+00 -0.21620693317E+03  0.21620693317E+03  0.00000000000E+00 0. -1.
        -24    2    1    2    0    0  0.29779501963E+02 -0.29741867797E+03  0.98240478830E+03  0.10298662917E+04  0.78490266908E+02 0.  0.
    5000000    2    1    2    0    0 -0.29779501963E+02  0.29741867797E+03  0.39108829270E+03  0.77604065561E+03  0.59995362965E+03 0.  0.
        -24    2    4    4    0    0 -0.18214184294E+03  0.15334907489E+03  0.47412962112E+03  0.53670099765E+03  0.80978228726E+02 0.  0.
         24    2    4    4    0    0  0.15236234097E+03  0.14406960308E+03 -0.83041328424E+02  0.23933965797E+03  0.80107903299E+02 0.  0.
         11    1    3    3    0    0 -0.22776836039E+01 -0.91363676198E+02  0.19563476059E+03  0.21592931418E+03  0.00000000000E+00 0. -1.
        -12    1    3    3    0    0  0.32057185567E+02 -0.20605500178E+03  0.78677002771E+03  0.81393697754E+03  0.00000000000E+00 0.  1.
         15    1    5    5    0    0 -0.30446260839E+01  0.37998201658E+02  0.81886046180E+02  0.90341659079E+02  0.17770000000E+01 0. -1.
        -16    1    5    5    0    0 -0.17909721685E+03  0.11535087324E+03  0.39224357494E+03  0.44635933857E+03  0.00000000000E+00 0.  1.
          2    1    6    6  502    0  0.82206020040E+02  0.57655673689E+02  0.99415540853E-01  0.10040924421E+03  0.00000000000E+00 0. -1.
         -1    1    6    6    0  502  0.70156320933E+02  0.86413929392E+02 -0.83140743965E+02  0.13893041376E+03  0.00000000000E+00 0.  1.
<mgrwt>
<rscale>  0 0.38141659E+03</rscale>
<asrwt>0</asrwt>
<pdfrwt beam="1">  1        1 0.33262606E-01 0.38141659E+03</pdfrwt>
<pdfrwt beam="2">  1       -2 0.24456923E+00 0.38141659E+03</pdfrwt>
<totfact> 0.88333727E+00</totfact>
</mgrwt>
</event>
<event>
12    3  0.1182097E-007  0.1028664E+04  0.7818608E-02  0.9277654E-01
         -2   -1    0    0    0  501 -0.00000000000E+00  0.00000000000E+00  0.11925082389E+04  0.11925082389E+04  0.00000000000E+00 0.  1.
          1   -1    0    0  501    0  0.00000000000E+00 -0.00000000000E+00 -0.10257100230E+04  0.10257100230E+04  0.00000000000E+00 0. -1.
        -24    2    1    2    0    0  0.95111338117E+03 -0.37607668686E+03  0.90459331421E+02  0.10299282836E+04  0.80740575540E+02 0.  0.
    5000000    2    1    2    0    0 -0.95111338117E+03  0.37607668686E+03  0.76338884469E+02  0.11882899783E+04  0.60012924358E+03 0.  0.
        -24    2    4    4    0    0 -0.48810191941E+03  0.23053483772E+03  0.32712193573E+03  0.63602252027E+03  0.78269344712E+02 0.  0.
         24    2    4    4    0    0 -0.46301146176E+03  0.14554184914E+03 -0.25078305126E+03  0.55226745803E+03  0.80902180582E+02 0.  0.
         13    1    3    3    0    0  0.75907337512E+02 -0.54486810240E+02  0.43118780691E+01  0.93537846195E+02  0.00000000000E+00 0. -1.
        -14    1    3    3    0    0  0.87520604366E+03 -0.32158987662E+03  0.86147453352E+02  0.93639043743E+03  0.00000000000E+00 0.  1.
         15    1    5    5    0    0 -0.31809820533E+03  0.11345137000E+03  0.22413751673E+03  0.40533747140E+03  0.17770000000E+01 0. -1.
        -16    1    5    5    0    0 -0.17000371408E+03  0.11708346772E+03  0.10298441900E+03  0.23068504887E+03  0.00000000000E+00 0.  1.
          4    1    6    6  502    0 -0.22143117459E+03  0.46710282353E+02 -0.15471111124E+03  0.27413344104E+03  0.00000000000E+00 0. -1.
         -3    1    6    6    0  502 -0.24158028718E+03  0.98831566792E+02 -0.96071940022E+02  0.27813401699E+03  0.00000000000E+00 0.  1.
<mgrwt>
<rscale>  0 0.10286635E+04</rscale>
<asrwt>0</asrwt>
<pdfrwt beam="1">  1        1 0.15780154E+00 0.10286635E+04</pdfrwt>
<pdfrwt beam="2">  1       -2 0.18346281E+00 0.10286635E+04</pdfrwt>
<totfact> 0.21589707E+00</totfact>
</mgrwt>
</event>
<event>
12    3  0.1182097E-007  0.1055574E+04  0.7818608E-02  0.9249608E-01
          1   -1    0    0  501    0  0.00000000000E+00  0.00000000000E+00  0.17252932789E+04  0.17252932789E+04  0.00000000000E+00 0. -1.
         -2   -1    0    0    0  501 -0.00000000000E+00 -0.00000000000E+00 -0.67871772905E+03  0.67871772905E+03  0.00000000000E+00 0.  1.
        -24    2    1    2    0    0 -0.98371782665E+03  0.98431314984E+02  0.33992213808E+03  0.10486464468E+04  0.81992829998E+02 0.  0.
    5000000    2    1    2    0    0  0.98371782665E+03 -0.98431314984E+02  0.70665341181E+03  0.13553645612E+04  0.60022042877E+03 0.  0.
        -24    2    4    4    0    0  0.10325309826E+03 -0.19767399908E+03  0.31835904822E+02  0.23860937878E+03  0.78642854683E+02 0.  0.
         24    2    4    4    0    0  0.88046472839E+03  0.99242684094E+02  0.67481750698E+03  0.11167551824E+04  0.81830443338E+02 0.  0.
         13    1    3    3    0    0 -0.19527925379E+03  0.46863365176E+02  0.88760493943E+02  0.21956454003E+03  0.00000000000E+00 0. -1.
        -14    1    3    3    0    0 -0.78843857286E+03  0.51567949807E+02  0.25116164413E+03  0.82908190676E+03  0.00000000000E+00 0.  1.
         15    1    5    5    0    0 -0.57555285752E+01 -0.19036291035E+01  0.12123307113E+02  0.13670487091E+02  0.17770000000E+01 0. -1.
        -16    1    5    5    0    0  0.10900862683E+03 -0.19577036997E+03  0.19712597709E+02  0.22493889168E+03  0.00000000000E+00 0.  1.
          4    1    6    6  502    0  0.29811948406E+02 -0.11552332032E+02  0.23917740748E+02  0.39928272760E+02  0.00000000000E+00 0. -1.
         -3    1    6    6    0  502  0.85065277999E+03  0.11079501613E+03  0.65089976624E+03  0.10768269097E+04  0.00000000000E+00 0.  1.
<mgrwt>
<rscale>  0 0.10555737E+04</rscale>
<asrwt>0</asrwt>
<pdfrwt beam="1">  1        1 0.26542973E+00 0.10555737E+04</pdfrwt>
<pdfrwt beam="2">  1       -2 0.10441811E+00 0.10555737E+04</pdfrwt>
<totfact> 0.29822471E+00</totfact>
</mgrwt>
</event>
<event>
12    3  0.1182097E-007  0.8687015E+03  0.7818608E-02  0.9465575E-01
          1   -1    0    0  501    0  0.00000000000E+00  0.00000000000E+00  0.17394289971E+04  0.17394289971E+04  0.00000000000E+00 0. -1.
         -2   -1    0    0    0  501 -0.00000000000E+00 -0.00000000000E+00 -0.44672460353E+03  0.44672460353E+03  0.00000000000E+00 0.  1.
        -24    2    1    2    0    0  0.16172618997E+03 -0.75015670001E+03  0.72436221840E+03  0.10582587687E+04  0.79501968789E+02 0.  0.
    5000000    2    1    2    0    0 -0.16172618997E+03  0.75015670001E+03  0.56834217514E+03  0.11278948319E+04  0.60020287290E+03 0.  0.
        -24    2    4    4    0    0  0.21240256873E+03  0.19539427477E+03  0.15690296478E+03  0.33822788905E+03  0.80534407294E+02 0.  0.
         24    2    4    4    0    0 -0.37412875870E+03  0.55476242524E+03  0.41143921036E+03  0.78966694283E+03  0.80981357314E+02 0.  0.
         13    1    3    3    0    0  0.24140794923E+02 -0.32177669929E+02  0.43721982240E+02  0.59412053934E+02  0.00000000000E+00 0. -1.
        -14    1    3    3    0    0  0.13758539505E+03 -0.71797903008E+03  0.68064023616E+03  0.99884671479E+03  0.00000000000E+00 0.  1.
         15    1    5    5    0    0  0.77994237657E+02  0.31224465352E+02  0.68343499911E+02  0.10831463453E+03  0.17770000000E+01 0. -1.
        -16    1    5    5    0    0  0.13440833107E+03  0.16416980942E+03  0.88559464873E+02  0.22991325452E+03  0.00000000000E+00 0.  1.
          4    1    6    6  502    0 -0.81714731714E+02  0.14652872453E+03  0.14195095989E+03  0.21976814944E+03  0.00000000000E+00 0. -1.
         -3    1    6    6    0  502 -0.29241402699E+03  0.40823370070E+03  0.26948825046E+03  0.56989879339E+03  0.00000000000E+00 0.  1.
<mgrwt>
<rscale>  0 0.86870152E+03</rscale>
<asrwt>0</asrwt>
<pdfrwt beam="1">  1        1 0.26760446E+00 0.86870152E+03</pdfrwt>
<pdfrwt beam="2">  1       -2 0.68726863E-01 0.86870152E+03</pdfrwt>
<totfact> 0.77656066E+00</totfact>
</mgrwt>
</event>
<event>
12    3  0.1182097E-007  0.9851548E+03  0.7818608E-02  0.9324978E-01
         -2   -1    0    0    0  501 -0.00000000000E+00  0.00000000000E+00  0.16164275163E+04  0.16164275163E+04  0.00000000000E+00 0.  1.
          1   -1    0    0  501    0  0.00000000000E+00 -0.00000000000E+00 -0.71128871215E+03  0.71128871215E+03  0.00000000000E+00 0. -1.
        -24    2    1    2    0    0  0.93306444197E+03  0.17448418778E+03  0.12571139457E+03  0.96074468095E+03  0.78568458046E+02 0.  0.
    5000000    2    1    2    0    0 -0.93306444197E+03 -0.17448418778E+03  0.77942740962E+03  0.13669715475E+04  0.60004178207E+03 0.  0.
        -24    2    4    4    0    0 -0.74867368653E+03 -0.27337932101E+03  0.81369526695E+03  0.11419381007E+04  0.81695142153E+02 0.  0.
         24    2    4    4    0    0 -0.18439075544E+03  0.98895133232E+02 -0.34267857334E+02  0.22503344685E+03  0.75402706095E+02 0.  0.
         13    1    3    3    0    0  0.56672120812E+03  0.13486634167E+03  0.10284730055E+03  0.59155678094E+03  0.00000000000E+00 0. -1.
        -14    1    3    3    0    0  0.36634323385E+03  0.39617846107E+02  0.22864094017E+02  0.36918790001E+03  0.00000000000E+00 0.  1.
         15    1    5    5    0    0 -0.49685201824E+03 -0.18325404022E+03  0.48431243806E+03  0.71763895287E+03  0.17770000000E+01 0. -1.
        -16    1    5    5    0    0 -0.25182166828E+03 -0.90125280789E+02  0.32938282890E+03  0.42429914780E+03  0.00000000000E+00 0.  1.
          4    1    6    6  502    0 -0.17239509684E+03  0.61600558889E+02 -0.24931831369E+02  0.18476009982E+03  0.00000000000E+00 0. -1.
         -3    1    6    6    0  502 -0.11995658608E+02  0.37294574342E+02 -0.93360259650E+01  0.40273347038E+02  0.00000000000E+00 0.  1.
<mgrwt>
<rscale>  0 0.98515476E+03</rscale>
<asrwt>0</asrwt>
<pdfrwt beam="1">  1        1 0.10942903E+00 0.98515476E+03</pdfrwt>
<pdfrwt beam="2">  1       -2 0.24868116E+00 0.98515476E+03</pdfrwt>
<totfact> 0.15305635E+00</totfact>
</mgrwt>
</event>
<event>
12    3  0.1182097E-007  0.6674500E+03  0.7818608E-02  0.9774575E-01
         -2   -1    0    0    0  501 -0.00000000000E+00  0.00000000000E+00  0.65741916573E+03  0.65741916573E+03  0.00000000000E+00 0.  1.
          1   -1    0    0  501    0  0.00000000000E+00 -0.00000000000E+00 -0.94060624712E+03  0.94060624712E+03  0.00000000000E+00 0. -1.
        -24    2    1    2    0    0 -0.41243042862E+03  0.38267956259E+03  0.24663925838E+03  0.61963765205E+03  0.81101109662E+02 0.  0.
    5000000    2    1    2    0    0  0.41243042862E+03 -0.38267956259E+03 -0.52982633977E+03  0.97838776080E+03  0.59998679492E+03 0.  0.
        -24    2    4    4    0    0 -0.11185601939E+03 -0.14582692415E+03 -0.28475987450E+03  0.34803723445E+03  0.79148402119E+02 0.  0.
         24    2    4    4    0    0  0.52428644801E+03 -0.23685263844E+03 -0.24506646527E+03  0.63035052635E+03  0.79427714033E+02 0.  0.
         13    1    3    3    0    0 -0.19595282621E+03  0.17812525037E+03  0.72199237112E+02  0.27447922464E+03  0.00000000000E+00 0. -1.
        -14    1    3    3    0    0 -0.21647760242E+03  0.20455431222E+03  0.17444002127E+03  0.34515842742E+03  0.00000000000E+00 0.  1.
         15    1    5    5    0    0 -0.17378529615E+02 -0.67729825063E+02 -0.60576289247E+02  0.92531005844E+02  0.17770000000E+01 0. -1.
        -16    1    5    5    0    0 -0.94477489778E+02 -0.78097099090E+02 -0.22418358525E+03  0.25550622860E+03  0.00000000000E+00 0.  1.
          4    1    6    6  502    0  0.11311030275E+03 -0.84684983403E+02 -0.43813161756E+02  0.14793606776E+03  0.00000000000E+00 0. -1.
         -3    1    6    6    0  502  0.41117614526E+03 -0.15216765504E+03 -0.20125330352E+03  0.48241445858E+03  0.00000000000E+00 0.  1.
<mgrwt>
<rscale>  0 0.66745000E+03</rscale>
<asrwt>0</asrwt>
<pdfrwt beam="1">  1        1 0.14470865E+00 0.66745000E+03</pdfrwt>
<pdfrwt beam="2">  1       -2 0.10114141E+00 0.66745000E+03</pdfrwt>
<totfact> 0.12281634E+01</totfact>
</mgrwt>
</event>
<event>
12    3  0.1182097E-007  0.5527808E+03  0.7818608E-02  0.1000852E+00
          1   -1    0    0  501    0  0.00000000000E+00  0.00000000000E+00  0.52745144275E+03  0.52745144275E+03  0.00000000000E+00 0. -1.
         -2   -1    0    0    0  501 -0.00000000000E+00 -0.00000000000E+00 -0.10010895823E+04  0.10010895823E+04  0.00000000000E+00 0.  1.
        -24    2    1    2    0    0  0.69551512545E+02 -0.51687830380E+03  0.11424545775E+03  0.53977029805E+03  0.79368483697E+02 0.  0.
    5000000    2    1    2    0    0 -0.69551512545E+02  0.51687830380E+03 -0.58788359733E+03  0.98877072702E+03  0.60004985856E+03 0.  0.
        -24    2    4    4    0    0 -0.14361747330E+03  0.36671978003E+03 -0.67376465886E+03  0.78434618680E+03  0.78299102943E+02 0.  0.
         24    2    4    4    0    0  0.74065960756E+02  0.15015852377E+03  0.85881061529E+02  0.20442454021E+03  0.79877951322E+02 0.  0.
         13    1    3    3    0    0 -0.58515100775E+01 -0.21989160737E+03  0.30117960482E+02  0.22202173476E+03  0.00000000000E+00 0. -1.
        -14    1    3    3    0    0  0.75403022623E+02 -0.29698669644E+03  0.84127497269E+02  0.31774856330E+03  0.00000000000E+00 0.  1.
         15    1    5    5    0    0 -0.97534873989E+02  0.23281002282E+03 -0.35555154947E+03  0.43604314056E+03  0.17770000000E+01 0. -1.
        -16    1    5    5    0    0 -0.46082599312E+02  0.13390975721E+03 -0.31821310939E+03  0.34830304625E+03  0.00000000000E+00 0.  1.
          4    1    6    6  502    0  0.40473694434E+02  0.14574794002E+03  0.75025889042E+02  0.16884746367E+03  0.00000000000E+00 0. -1.
         -3    1    6    6    0  502  0.33592266322E+02  0.44105837544E+01  0.10855172487E+02  0.35577076544E+02  0.00000000000E+00 0.  1.
<mgrwt>
<rscale>  0 0.55278080E+03</rscale>
<asrwt>0</asrwt>
<pdfrwt beam="1">  1        1 0.81146377E-01 0.55278080E+03</pdfrwt>
<pdfrwt beam="2">  1       -2 0.15401378E+00 0.55278080E+03</pdfrwt>
<totfact> 0.10501534E+01</totfact>
</mgrwt>
</event>
<event>
12    3  0.1182097E-007  0.1263450E+04  0.7818608E-02  0.9059063E-01
         -2   -1    0    0    0  501 -0.00000000000E+00  0.00000000000E+00  0.15044740027E+04  0.15044740027E+04  0.00000000000E+00 0.  1.
          1   -1    0    0  501    0  0.00000000000E+00 -0.00000000000E+00 -0.12593396686E+04  0.12593396686E+04  0.00000000000E+00 0. -1.
        -24    2    1    2    0    0  0.91549927837E+03  0.81194343990E+03 -0.35245997671E+03  0.12758771924E+04  0.79015799382E+02 0.  0.
    5000000    2    1    2    0    0 -0.91549927837E+03 -0.81194343990E+03  0.59759431086E+03  0.14879364790E+04  0.59953726050E+03 0.  0.
        -24    2    4    4    0    0 -0.53515072919E+03 -0.72936585963E+03  0.60511783928E+03  0.10911474983E+04  0.77938459385E+02 0.  0.
         24    2    4    4    0    0 -0.38034854918E+03 -0.82577580277E+02 -0.75235284173E+01  0.39678898068E+03  0.76816769492E+02 0.  0.
         11    1    3    3    0    0  0.67289072052E+03  0.57571326614E+03 -0.22177309578E+03  0.91291346391E+03  0.00000000000E+00 0. -1.
        -12    1    3    3    0    0  0.24260855785E+03  0.23623017377E+03 -0.13068688093E+03  0.36296372847E+03  0.00000000000E+00 0.  1.
         15    1    5    5    0    0 -0.10322956875E+03 -0.10611420100E+03  0.75281713156E+02  0.16609353263E+03  0.17770000000E+01 0. -1.
        -16    1    5    5    0    0 -0.43192116044E+03 -0.62325165863E+03  0.52983612612E+03  0.92505396565E+03  0.00000000000E+00 0.  1.
          4    1    6    6  502    0 -0.32184523542E+03 -0.96951294840E+02 -0.12308421562E+02  0.33635607081E+03  0.00000000000E+00 0. -1.
         -3    1    6    6    0  502 -0.58503313766E+02  0.14373714563E+02  0.47848931450E+01  0.60432909861E+02  0.00000000000E+00 0.  1.
<mgrwt>
<rscale>  0 0.12634501E+04</rscale>
<asrwt>0</asrwt>
<pdfrwt beam="1">  1        1 0.19374457E+00 0.12634501E+04</pdfrwt>
<pdfrwt beam="2">  1       -2 0.23145754E+00 0.12634501E+04</pdfrwt>
<totfact> 0.68744308E-01</totfact>
</mgrwt>
</event>
<event>
12    3  0.1182097E-007  0.1238987E+04  0.7818608E-02  0.9079399E-01
         -2   -1    0    0    0  501 -0.00000000000E+00  0.00000000000E+00  0.26026583795E+04  0.26026583795E+04  0.00000000000E+00 0.  1.
          1   -1    0    0  501    0  0.00000000000E+00 -0.00000000000E+00 -0.64325098976E+03  0.64325098976E+03  0.00000000000E+00 0. -1.
        -24    2    1    2    0    0 -0.30391463103E+03 -0.11291803743E+04  0.47889180121E+03  0.12661556368E+04  0.80001991499E+02 0.  0.
    5000000    2    1    2    0    0  0.30391463103E+03  0.11291803743E+04  0.14805155885E+04  0.19797537325E+04  0.60007167315E+03 0.  0.
        -24    2    4    4    0    0  0.15906632983E+03  0.11345904552E+04  0.12787423187E+04  0.17189885099E+04  0.84510242200E+02 0.  0.
         24    2    4    4    0    0  0.14484830120E+03 -0.54100809342E+01  0.20177326983E+03  0.26076522266E+03  0.79219628848E+02 0.  0.
         13    1    3    3    0    0 -0.20080205888E+03 -0.62082308118E+03  0.24213145123E+03  0.69596724395E+03  0.00000000000E+00 0. -1.
        -14    1    3    3    0    0 -0.10311257215E+03 -0.50835729308E+03  0.23676034998E+03  0.57018839280E+03  0.00000000000E+00 0.  1.
         15    1    5    5    0    0  0.67551357903E+02  0.52307491898E+03  0.52649876663E+03  0.74523463809E+03  0.17770000000E+01 0. -1.
        -16    1    5    5    0    0  0.91514971924E+02  0.61151553621E+03  0.75224355209E+03  0.97375387176E+03  0.00000000000E+00 0.  1.
          2    1    6    6  502    0  0.13678528091E+03  0.16409773075E+02  0.19000954040E+03  0.23469793175E+03  0.00000000000E+00 0. -1.
         -1    1    6    6    0  502  0.80630202931E+01 -0.21819854009E+02  0.11763729428E+02  0.26067290908E+02  0.00000000000E+00 0.  1.
<mgrwt>
<rscale>  0 0.12389871E+04</rscale>
<asrwt>0</asrwt>
<pdfrwt beam="1">  1        1 0.98961692E-01 0.12389871E+04</pdfrwt>
<pdfrwt beam="2">  1       -2 0.40040898E+00 0.12389871E+04</pdfrwt>
<totfact> 0.19749788E-01</totfact>
</mgrwt>
</event>
<event>
12    3  0.1182097E-007  0.7729736E+03  0.7818608E-02  0.9599982E-01
          1   -1    0    0  501    0  0.00000000000E+00  0.00000000000E+00  0.52047100024E+03  0.52047100024E+03  0.00000000000E+00 0. -1.
         -2   -1    0    0    0  501 -0.00000000000E+00 -0.00000000000E+00 -0.11851296649E+04  0.11851296649E+04  0.00000000000E+00 0.  1.
        -24    2    1    2    0    0 -0.58639139523E+03  0.31581850949E+03 -0.34068900026E+03  0.75240112536E+03  0.80263685436E+02 0.  0.
    5000000    2    1    2    0    0  0.58639139523E+03 -0.31581850949E+03 -0.32396966437E+03  0.95319953976E+03  0.60003068241E+03 0.  0.
        -24    2    4    4    0    0  0.61089845032E+03 -0.41834217370E+03 -0.32686783800E+03  0.81335146049E+03  0.80566269952E+02 0.  0.
         24    2    4    4    0    0 -0.24507055090E+02  0.10252366421E+03  0.28981736278E+01  0.13984807927E+03  0.91855257844E+02 0.  0.
         13    1    3    3    0    0 -0.31639646751E+03  0.20369293983E+03 -0.16136560487E+03  0.40943423993E+03  0.00000000000E+00 0. -1.
        -14    1    3    3    0    0 -0.26999492772E+03  0.11212556966E+03 -0.17932339539E+03  0.34296688543E+03  0.00000000000E+00 0.  1.
         15    1    5    5    0    0  0.10135127779E+03 -0.10153145782E+03 -0.44425245328E+02  0.15019147309E+03  0.17770000000E+01 0. -1.
        -16    1    5    5    0    0  0.50954717253E+03 -0.31681071588E+03 -0.28244259267E+03  0.66315998739E+03  0.00000000000E+00 0.  1.
          4    1    6    6  502    0 -0.16158376501E+02 -0.11285552757E+02 -0.14427108740E+02  0.24425361794E+02  0.00000000000E+00 0. -1.
         -3    1    6    6    0  502 -0.83486785894E+01  0.11380921697E+03  0.17325282368E+02  0.11542271748E+03  0.00000000000E+00 0.  1.
<mgrwt>
<rscale>  0 0.77297363E+03</rscale>
<asrwt>0</asrwt>
<pdfrwt beam="1">  1        1 0.80072462E-01 0.77297363E+03</pdfrwt>
<pdfrwt beam="2">  1       -2 0.18232764E+00 0.77297363E+03</pdfrwt>
<totfact> 0.65406308E+00</totfact>
</mgrwt>
</event>
<event>
12    3  0.1182097E-007  0.1396369E+04  0.7818608E-02  0.8956451E-01
         -2   -1    0    0    0  501 -0.00000000000E+00  0.00000000000E+00  0.10364734671E+04  0.10364734671E+04  0.00000000000E+00 0.  1.
          1   -1    0    0  501    0  0.00000000000E+00 -0.00000000000E+00 -0.19378794746E+04  0.19378794746E+04  0.00000000000E+00 0. -1.
        -24    2    1    2    0    0 -0.13326157776E+04 -0.10975089433E+03 -0.21663247336E+03  0.13567321376E+04  0.76696774009E+02 0.  0.
    5000000    2    1    2    0    0  0.13326157776E+04  0.10975089433E+03 -0.68477353413E+03  0.16176208041E+04  0.59989349331E+03 0.  0.
        -24    2    4    4    0    0  0.20147756976E+03 -0.19505955827E+03 -0.96764566459E+02  0.30445936391E+03  0.68488543286E+02 0.  0.
         24    2    4    4    0    0  0.11311382079E+04  0.30481045260E+03 -0.58800896767E+03  0.13131614402E+04  0.79090863603E+02 0.  0.
         13    1    3    3    0    0 -0.84138248952E+03 -0.10622227049E+03 -0.14059033078E+03  0.85963556554E+03  0.00000000000E+00 0. -1.
        -14    1    3    3    0    0 -0.49123328810E+03 -0.35286238381E+01 -0.76042142583E+02  0.49709657208E+03  0.00000000000E+00 0.  1.
         15    1    5    5    0    0  0.59385992177E+02 -0.43943296176E+02 -0.56829535021E+02  0.93222653499E+02  0.17770000000E+01 0. -1.
        -16    1    5    5    0    0  0.14209157758E+03 -0.15111626209E+03 -0.39935031438E+02  0.21123671041E+03  0.00000000000E+00 0.  1.
          4    1    6    6  502    0  0.62052358089E+03  0.18682534052E+03 -0.36353692788E+03  0.74304260997E+03  0.00000000000E+00 0. -1.
         -3    1    6    6    0  502  0.51061462697E+03  0.11798511208E+03 -0.22447203979E+03  0.57011883024E+03  0.00000000000E+00 0.  1.
<mgrwt>
<rscale>  0 0.13963693E+04</rscale>
<asrwt>0</asrwt>
<pdfrwt beam="1">  1        1 0.29813530E+00 0.13963693E+04</pdfrwt>
<pdfrwt beam="2">  1       -2 0.15945746E+00 0.13963693E+04</pdfrwt>
<totfact> 0.69967989E-01</totfact>
</mgrwt>
</event>
<event>
12    3  0.1182097E-007  0.4925910E+03  0.7818608E-02  0.1015731E+00
          3   -1    0    0  501    0  0.00000000000E+00  0.00000000000E+00  0.48446669649E+03  0.48446669649E+03  0.00000000000E+00 0. -1.
         -4   -1    0    0    0  501 -0.00000000000E+00 -0.00000000000E+00 -0.70291290328E+03  0.70291290328E+03  0.00000000000E+00 0.  1.
        -24    2    1    2    0    0  0.27833323730E+03 -0.23699606505E+03  0.13828244379E+03  0.39939083190E+03  0.82185622297E+02 0.  0.
    5000000    2    1    2    0    0 -0.27833323730E+03  0.23699606505E+03 -0.35672865057E+03  0.78798876787E+03  0.60002870124E+03 0.  0.
        -24    2    4    4    0    0  0.81412658395E+02  0.22400587689E+03 -0.33487995573E+03  0.41854378915E+03  0.78915555270E+02 0.  0.
         24    2    4    4    0    0 -0.35974589569E+03  0.12990188165E+02 -0.21848694849E+02  0.36944497872E+03  0.80164657905E+02 0.  0.
         13    1    3    3    0    0  0.14610311419E+03 -0.72537366232E+02  0.70983881412E+02  0.17789463425E+03  0.00000000000E+00 0. -1.
        -14    1    3    3    0    0  0.13223012311E+03 -0.16445869882E+03  0.67298562374E+02  0.22149619765E+03  0.00000000000E+00 0.  1.
         15    1    5    5    0    0  0.78735978162E+02  0.23074039420E+03 -0.32461748396E+03  0.40598048277E+03  0.17770000000E+01 0. -1.
        -16    1    5    5    0    0  0.26766802333E+01 -0.67345173078E+01 -0.10262471765E+02  0.12563306379E+02  0.00000000000E+00 0.  1.
          4    1    6    6  502    0 -0.25392316527E+03  0.94044281765E+01 -0.51976307085E+02  0.25935873540E+03  0.00000000000E+00 0. -1.
         -3    1    6    6    0  502 -0.10582273042E+03  0.35857599885E+01  0.30127612237E+02  0.11008624332E+03  0.00000000000E+00 0.  1.
<mgrwt>
<rscale>  0 0.49259105E+03</rscale>
<asrwt>0</asrwt>
<pdfrwt beam="1">  1        3 0.74533338E-01 0.49259105E+03</pdfrwt>
<pdfrwt beam="2">  1       -4 0.10814045E+00 0.49259105E+03</pdfrwt>
<totfact> 0.26275964E+00</totfact>
</mgrwt>
</event>
<event>
12    3  0.1182097E-007  0.8949097E+03  0.7818608E-02  0.9431967E-01
         -2   -1    0    0    0  501 -0.00000000000E+00  0.00000000000E+00  0.57556991618E+03  0.57556991618E+03  0.00000000000E+00 0.  1.
          1   -1    0    0  501    0  0.00000000000E+00 -0.00000000000E+00 -0.16153753973E+04  0.16153753973E+04  0.00000000000E+00 0. -1.
        -24    2    1    2    0    0 -0.75558539487E+03 -0.30397799957E+03 -0.12634142659E+03  0.82803643182E+03  0.79813928583E+02 0.  0.
    5000000    2    1    2    0    0  0.75558539487E+03  0.30397799957E+03 -0.91346405453E+03  0.13629088816E+04  0.59982674799E+03 0.  0.
        -24    2    4    4    0    0  0.66739913102E+02  0.27144947531E+03 -0.13400574082E+03  0.31914064975E+03  0.75856325391E+02 0.  0.
         24    2    4    4    0    0  0.68884548176E+03  0.32528524260E+02 -0.77945831371E+03  0.10437682319E+04  0.79565422600E+02 0.  0.
         11    1    3    3    0    0 -0.57649828038E+03 -0.24862719965E+03 -0.66843600487E+02  0.63137454701E+03  0.00000000000E+00 0. -1.
        -12    1    3    3    0    0 -0.17908711448E+03 -0.55350799923E+02 -0.59497826108E+02  0.19666188481E+03  0.00000000000E+00 0.  1.
         15    1    5    5    0    0  0.26490185534E+02  0.15230462243E+03 -0.11333457294E+03  0.19169327347E+03  0.17770000000E+01 0. -1.
        -16    1    5    5    0    0  0.40249727568E+02  0.11914485288E+03 -0.20671167879E+02  0.12744737628E+03  0.00000000000E+00 0.  1.
          2    1    6    6  502    0  0.22235522218E+03  0.47845093358E+02 -0.25649282990E+03  0.34281127400E+03  0.00000000000E+00 0. -1.
         -1    1    6    6    0  502  0.46649025958E+03 -0.15316569097E+02 -0.52296548381E+03  0.70095695790E+03  0.00000000000E+00 0.  1.
<mgrwt>
<rscale>  0 0.89490965E+03</rscale>
<asrwt>0</asrwt>
<pdfrwt beam="1">  1        1 0.24851929E+00 0.89490965E+03</pdfrwt>
<pdfrwt beam="2">  1       -2 0.88549220E-01 0.89490965E+03</pdfrwt>
<totfact> 0.53224084E+00</totfact>
</mgrwt>
</event>
<event>
12    3  0.1182097E-007  0.4440458E+03  0.7818608E-02  0.1029513E+00
          1   -1    0    0  501    0  0.00000000000E+00  0.00000000000E+00  0.58365452214E+03  0.58365452214E+03  0.00000000000E+00 0. -1.
         -2   -1    0    0    0  501 -0.00000000000E+00 -0.00000000000E+00 -0.39259169780E+03  0.39259169780E+03  0.00000000000E+00 0.  1.
        -24    2    1    2    0    0  0.14883677691E+02  0.28180779126E+03  0.38542951312E+02  0.29586565192E+03  0.80086015090E+02 0.  0.
    5000000    2    1    2    0    0 -0.14883677691E+02 -0.28180779126E+03  0.15251987304E+03  0.68038056802E+03  0.60001520864E+03 0.  0.
        -24    2    4    4    0    0  0.72004830230E+02 -0.41836176405E+03  0.22410067740E+03  0.48609226412E+03  0.76506956782E+02 0.  0.
         24    2    4    4    0    0 -0.86888507921E+02  0.13655397279E+03 -0.71580804364E+02  0.19428830390E+03  0.80171897725E+02 0.  0.
         13    1    3    3    0    0  0.42876926296E+02  0.19051874263E+03  0.73760962371E+01  0.19542320461E+03  0.00000000000E+00 0. -1.
        -14    1    3    3    0    0 -0.27993248606E+02  0.91289048626E+02  0.31166855075E+02  0.10044244731E+03  0.00000000000E+00 0.  1.
         15    1    5    5    0    0  0.83391231715E+02 -0.35363466294E+03  0.17083538209E+03  0.40149652285E+03  0.17770000000E+01 0. -1.
        -16    1    5    5    0    0 -0.11386401485E+02 -0.64727101105E+02  0.53265295314E+02  0.84595741271E+02  0.00000000000E+00 0.  1.
          2    1    6    6  502    0 -0.21893534464E+02  0.77203184716E+02 -0.69638598978E+02  0.10625061435E+03  0.00000000000E+00 0. -1.
         -1    1    6    6    0  502 -0.64994973457E+02  0.59350788075E+02 -0.19422053860E+01  0.88037689551E+02  0.00000000000E+00 0.  1.
<mgrwt>
<rscale>  0 0.44404581E+03</rscale>
<asrwt>0</asrwt>
<pdfrwt beam="1">  1        1 0.89793004E-01 0.44404581E+03</pdfrwt>
<pdfrwt beam="2">  1       -2 0.60398723E-01 0.44404581E+03</pdfrwt>
<totfact> 0.83000178E+01</totfact>
</mgrwt>
</event>
<event>
12    3  0.1182097E-007  0.6240606E+03  0.7818608E-02  0.9856708E-01
         -2   -1    0    0    0  501 -0.00000000000E+00  0.00000000000E+00  0.53598680559E+03  0.53598680559E+03  0.00000000000E+00 0.  1.
          1   -1    0    0  501    0  0.00000000000E+00 -0.00000000000E+00 -0.80561275751E+03  0.80561275751E+03  0.00000000000E+00 0. -1.
        -24    2    1    2    0    0  0.40965328430E+03  0.27939830626E+03  0.39420052288E+02  0.50425411268E+03  0.82698505173E+02 0.  0.
    5000000    2    1    2    0    0 -0.40965328430E+03 -0.27939830626E+03 -0.30904600421E+03  0.83734545041E+03  0.59979891942E+03 0.  0.
        -24    2    4    4    0    0 -0.50105178891E+03 -0.55634516255E+02 -0.12692483956E+03  0.52473402729E+03  0.71328745412E+02 0.  0.
         24    2    4    4    0    0  0.91398504618E+02 -0.22376379000E+03 -0.18212116465E+03  0.31261142313E+03  0.78318981690E+02 0.  0.
         13    1    3    3    0    0  0.24147164736E+03  0.19753871473E+03  0.54098465261E+02  0.31663345407E+03  0.00000000000E+00 0. -1.
        -14    1    3    3    0    0  0.16818163694E+03  0.81859591526E+02 -0.14678412972E+02  0.18762065861E+03  0.00000000000E+00 0.  1.
         15    1    5    5    0    0 -0.24723350993E+03  0.13002340778E+01 -0.83795054824E+02  0.26105721209E+03  0.17770000000E+01 0. -1.
        -16    1    5    5    0    0 -0.25381827899E+03 -0.56934750333E+02 -0.43129784733E+02  0.26367681520E+03  0.00000000000E+00 0.  1.
          2    1    6    6  502    0  0.39071473142E+02 -0.99606107954E+02 -0.12945935892E+03  0.16795142860E+03  0.00000000000E+00 0. -1.
         -1    1    6    6    0  502  0.52327031475E+02 -0.12415768205E+03 -0.52661805730E+02  0.14465999453E+03  0.00000000000E+00 0.  1.
<mgrwt>
<rscale>  0 0.62406063E+03</rscale>
<asrwt>0</asrwt>
<pdfrwt beam="1">  1        1 0.12394042E+00 0.62406063E+03</pdfrwt>
<pdfrwt beam="2">  1       -2 0.82459509E-01 0.62406063E+03</pdfrwt>
<totfact> 0.25570355E+01</totfact>
</mgrwt>
</event>
<event>
12    3  0.1182097E-007  0.2476914E+04  0.7818608E-02  0.8411257E-01
         -2   -1    0    0    0  501 -0.00000000000E+00  0.00000000000E+00  0.33034658852E+04  0.33034658852E+04  0.00000000000E+00 0.  1.
          1   -1    0    0  501    0  0.00000000000E+00 -0.00000000000E+00 -0.19001467422E+04  0.19001467422E+04  0.00000000000E+00 0. -1.
        -24    2    1    2    0    0 -0.15934139251E+04  0.18634982601E+04  0.99217885675E+03  0.26461631067E+04  0.78527711297E+02 0.  0.
    5000000    2    1    2    0    0  0.15934139251E+04 -0.18634982601E+04  0.41114028625E+03  0.25574495207E+04  0.59993167427E+03 0.  0.
        -24    2    4    4    0    0  0.10467843959E+03 -0.39350987491E+03  0.17598738576E+03  0.45051344398E+03  0.78633363719E+02 0.  0.
         24    2    4    4    0    0  0.14887354855E+04 -0.14699883852E+04  0.23515290049E+03  0.21069360767E+04  0.81752959083E+02 0.  0.
         11    1    3    3    0    0 -0.66784678487E+03  0.83560156701E+03  0.45007093155E+03  0.11605227918E+04  0.00000000000E+00 0. -1.
        -12    1    3    3    0    0 -0.92556714023E+03  0.10278966931E+04  0.54210792520E+03  0.14856403149E+04  0.00000000000E+00 0.  1.
         15    1    5    5    0    0  0.61169034059E+02 -0.29146277340E+03  0.93093299270E+02  0.31202839471E+03  0.17770000000E+01 0. -1.
        -16    1    5    5    0    0  0.43509405529E+02 -0.10204710152E+03  0.82894086488E+02  0.13848504927E+03  0.00000000000E+00 0.  1.
          2    1    6    6  502    0  0.48906141742E+03 -0.48420691558E+03  0.38769774085E+02  0.68930436129E+03  0.00000000000E+00 0. -1.
         -1    1    6    6    0  502  0.99967406810E+03 -0.98578146959E+03  0.19638312641E+03  0.14176317154E+04  0.00000000000E+00 0.  1.
<mgrwt>
<rscale>  0 0.24769135E+04</rscale>
<asrwt>0</asrwt>
<pdfrwt beam="1">  1        1 0.29233027E+00 0.24769135E+04</pdfrwt>
<pdfrwt beam="2">  1       -2 0.50822552E+00 0.24769135E+04</pdfrwt>
<totfact> 0.37580514E-03</totfact>
</mgrwt>
</event>
<event>
12    3  0.1182097E-007  0.4293978E+03  0.7818608E-02  0.1034050E+00
         -2   -1    0    0    0  501 -0.00000000000E+00  0.00000000000E+00  0.13795844210E+03  0.13795844210E+03  0.00000000000E+00 0.  1.
          1   -1    0    0  501    0  0.00000000000E+00 -0.00000000000E+00 -0.24727074663E+04  0.24727074663E+04  0.00000000000E+00 0. -1.
        -24    2    1    2    0    0  0.27394069801E+03  0.22024314336E+03 -0.14009336565E+04  0.14463222130E+04  0.75380938295E+02 0.  0.
    5000000    2    1    2    0    0 -0.27394069801E+03 -0.22024314336E+03 -0.93381536776E+03  0.11643436954E+04  0.60011211596E+03 0.  0.
        -24    2    4    4    0    0 -0.78787321957E+02 -0.28239299153E+03 -0.12927164424E+03  0.32997041032E+03  0.78842056765E+02 0.  0.
         24    2    4    4    0    0 -0.19515337605E+03  0.62149848176E+02 -0.80454372352E+03  0.83437328507E+03  0.83311055552E+02 0.  0.
         11    1    3    3    0    0  0.16337440276E+03  0.93080329329E+02 -0.64585692067E+03  0.67267102299E+03  0.00000000000E+00 0. -1.
        -12    1    3    3    0    0  0.11056629525E+03  0.12716281403E+03 -0.75507673578E+03  0.77365119003E+03  0.00000000000E+00 0.  1.
         15    1    5    5    0    0 -0.39040021855E+02 -0.73040199964E+02 -0.43316105857E+01  0.82951279053E+02  0.17770000000E+01 0. -1.
        -16    1    5    5    0    0 -0.39747300101E+02 -0.20935279157E+03 -0.12494003365E+03  0.24701913127E+03  0.00000000000E+00 0.  1.
          2    1    6    6  502    0 -0.10653641024E+03  0.20847964304E+02 -0.27079497722E+03  0.29174400424E+03  0.00000000000E+00 0. -1.
         -1    1    6    6    0  502 -0.88616965811E+02  0.41301883872E+02 -0.53374874630E+03  0.54262928084E+03  0.00000000000E+00 0.  1.
<mgrwt>
<rscale>  0 0.42939780E+03</rscale>
<asrwt>0</asrwt>
<pdfrwt beam="1">  1        1 0.38041652E+00 0.42939780E+03</pdfrwt>
<pdfrwt beam="2">  1       -2 0.21224376E-01 0.42939780E+03</pdfrwt>
<totfact> 0.26449965E+01</totfact>
</mgrwt>
</event>
<event>
12    3  0.1182097E-007  0.1780026E+04  0.7818608E-02  0.8716994E-01
         -2   -1    0    0    0  501 -0.00000000000E+00  0.00000000000E+00  0.18343298460E+04  0.18343298460E+04  0.00000000000E+00 0.  1.
          1   -1    0    0  501    0  0.00000000000E+00 -0.00000000000E+00 -0.18563027389E+04  0.18563027389E+04  0.00000000000E+00 0. -1.
        -24    2    1    2    0    0  0.24377946280E+02  0.17320608031E+04 -0.48358406522E+03  0.18002435673E+04  0.79965264793E+02 0.  0.
    5000000    2    1    2    0    0 -0.24377946280E+02 -0.17320608031E+04  0.46161117229E+03  0.18903890176E+04  0.59988069935E+03 0.  0.
        -24    2    4    4    0    0  0.26895241565E+03 -0.10315034504E+04  0.29037834797E+03  0.11073407077E+04  0.74492199873E+02 0.  0.
         24    2    4    4    0    0 -0.29333036193E+03 -0.70055735274E+03  0.17123282432E+03  0.78304830993E+03  0.83789437544E+02 0.  0.
         13    1    3    3    0    0 -0.48334307426E+01  0.40825937879E+03 -0.14770559562E+03  0.43418432192E+03  0.00000000000E+00 0. -1.
        -14    1    3    3    0    0  0.29211377023E+02  0.13238014243E+04 -0.33587846960E+03  0.13660592454E+04  0.00000000000E+00 0.  1.
         15    1    5    5    0    0  0.24003945564E+03 -0.81230317388E+03  0.21701024198E+03  0.87438663611E+03  0.17770000000E+01 0. -1.
        -16    1    5    5    0    0  0.28912960013E+02 -0.21920027651E+03  0.73368105990E+02  0.23295407156E+03  0.00000000000E+00 0.  1.
          4    1    6    6  502    0 -0.22960706882E+03 -0.54181530079E+03  0.96237967533E+02  0.59627591987E+03  0.00000000000E+00 0. -1.
         -3    1    6    6    0  502 -0.63723293108E+02 -0.15874205195E+03  0.74994856789E+02  0.18677239005E+03  0.00000000000E+00 0.  1.
<mgrwt>
<rscale>  0 0.17800264E+04</rscale>
<asrwt>0</asrwt>
<pdfrwt beam="1">  1        1 0.28558504E+00 0.17800264E+04</pdfrwt>
<pdfrwt beam="2">  1       -2 0.28220459E+00 0.17800264E+04</pdfrwt>
<totfact> 0.12185087E-01</totfact>
</mgrwt>
</event>
<event>
12    3  0.1182097E-007  0.8290158E+03  0.7818608E-02  0.9518942E-01
         -2   -1    0    0    0  501 -0.00000000000E+00  0.00000000000E+00  0.13888228140E+04  0.13888228140E+04  0.00000000000E+00 0.  1.
          1   -1    0    0  501    0  0.00000000000E+00 -0.00000000000E+00 -0.57694626431E+03  0.57694626431E+03  0.00000000000E+00 0. -1.
        -24    2    1    2    0    0 -0.78283758310E+03 -0.74827866755E+02  0.25420503649E+03  0.83023393798E+03  0.78957583823E+02 0.  0.
    5000000    2    1    2    0    0  0.78283758310E+03  0.74827866755E+02  0.55767151325E+03  0.11355351404E+04  0.60000720592E+03 0.  0.
        -24    2    4    4    0    0  0.14453774453E+03 -0.12637316186E+03  0.39035878341E+03  0.44091793140E+03  0.71883981633E+02 0.  0.
         24    2    4    4    0    0  0.63829983857E+03  0.20120102861E+03  0.16731272985E+03  0.69461720897E+03  0.81184848270E+02 0.  0.
         13    1    3    3    0    0 -0.15821953432E+03 -0.25246449729E+02  0.20686839023E+02  0.16155107420E+03  0.00000000000E+00 0. -1.
        -14    1    3    3    0    0 -0.62461804878E+03 -0.49581417026E+02  0.23351819746E+03  0.66868286379E+03  0.00000000000E+00 0.  1.
         15    1    5    5    0    0  0.58411640632E+02 -0.85726360809E+02  0.25604673299E+03  0.27626801462E+03  0.17770000000E+01 0. -1.
        -16    1    5    5    0    0  0.86126103897E+02 -0.40646801048E+02  0.13431205042E+03  0.16464991678E+03  0.00000000000E+00 0.  1.
          4    1    6    6  502    0  0.29710452718E+03  0.12678413083E+03  0.54214255104E+02  0.32754312900E+03  0.00000000000E+00 0. -1.
         -3    1    6    6    0  502  0.34119531139E+03  0.74416897779E+02  0.11309847474E+03  0.36707407996E+03  0.00000000000E+00 0.  1.
<mgrwt>
<rscale>  0 0.82901579E+03</rscale>
<asrwt>0</asrwt>
<pdfrwt beam="1">  1        1 0.88760964E-01 0.82901579E+03</pdfrwt>
<pdfrwt beam="2">  1       -2 0.21366505E+00 0.82901579E+03</pdfrwt>
<totfact> 0.35031784E+00</totfact>
</mgrwt>
</event>
<event>
12    3  0.1182097E-007  0.1182987E+04  0.7818608E-02  0.9127880E-01
         -2   -1    0    0    0  501 -0.00000000000E+00  0.00000000000E+00  0.12596015321E+04  0.12596015321E+04  0.00000000000E+00 0.  1.
          1   -1    0    0  501    0  0.00000000000E+00 -0.00000000000E+00 -0.13292437980E+04  0.13292437980E+04  0.00000000000E+00 0. -1.
        -24    2    1    2    0    0 -0.10729102279E+04 -0.38543096690E+03  0.41046964555E+03  0.12139534410E+04  0.74190562777E+02 0.  0.
    5000000    2    1    2    0    0  0.10729102279E+04  0.38543096690E+03 -0.48011191146E+03  0.13748918891E+04  0.60010571711E+03 0.  0.
        -24    2    4    4    0    0  0.78213896035E+02  0.18128199994E+03  0.61309039128E+02  0.22138434898E+03  0.79193779165E+02 0.  0.
         24    2    4    4    0    0  0.99469633191E+03  0.20414896696E+03 -0.54142095059E+03  0.11535075401E+04  0.79658056436E+02 0.  0.
         13    1    3    3    0    0 -0.13233184167E+03 -0.72947555495E+02  0.46306000209E+02  0.15804210777E+03  0.00000000000E+00 0. -1.
        -14    1    3    3    0    0 -0.94057838627E+03 -0.31248341140E+03  0.36416364535E+03  0.10559113333E+04  0.00000000000E+00 0.  1.
         15    1    5    5    0    0  0.46378750037E+02  0.41476802397E+02  0.45561211160E+02  0.77138157117E+02  0.17770000000E+01 0. -1.
        -16    1    5    5    0    0  0.31835145998E+02  0.13980519754E+03  0.15747827968E+02  0.14424619186E+03  0.00000000000E+00 0.  1.
          4    1    6    6  502    0  0.46912007645E+03  0.58685997768E+02 -0.23456032086E+03  0.52776532340E+03  0.00000000000E+00 0. -1.
         -3    1    6    6    0  502  0.52557625547E+03  0.14546296919E+03 -0.30686062973E+03  0.62574221673E+03  0.00000000000E+00 0.  1.
<mgrwt>
<rscale>  0 0.11829870E+04</rscale>
<asrwt>0</asrwt>
<pdfrwt beam="1">  1        1 0.20449905E+00 0.11829870E+04</pdfrwt>
<pdfrwt beam="2">  1       -2 0.19378485E+00 0.11829870E+04</pdfrwt>
<totfact> 0.10788413E+00</totfact>
</mgrwt>
</event>
<event>
12    3  0.1182097E-007  0.4470475E+03  0.7818608E-02  0.1028606E+00
          1   -1    0    0  501    0  0.00000000000E+00  0.00000000000E+00  0.78420343525E+03  0.78420343525E+03  0.00000000000E+00 0. -1.
         -2   -1    0    0    0  501 -0.00000000000E+00 -0.00000000000E+00 -0.36798126464E+03  0.36798126464E+03  0.00000000000E+00 0.  1.
        -24    2    1    2    0    0 -0.11571100548E+03  0.22804620368E+03 -0.13285760930E+03  0.29953759120E+03  0.81716071808E+02 0.  0.
    5000000    2    1    2    0    0  0.11571100548E+03 -0.22804620368E+03  0.54907977991E+03  0.85264710869E+03  0.60010364059E+03 0.  0.
        -24    2    4    4    0    0 -0.20982064589E+03 -0.21335616922E+03  0.34099603672E+03  0.46066365746E+03  0.79919646295E+02 0.  0.
         24    2    4    4    0    0  0.32553165136E+03 -0.14690034460E+02  0.20808374319E+03  0.39198345123E+03  0.64540907231E+02 0.  0.
         11    1    3    3    0    0 -0.90402393925E+02  0.11696076029E+03 -0.10760076726E+03  0.18283964939E+03  0.00000000000E+00 0. -1.
        -12    1    3    3    0    0 -0.25308611551E+02  0.11108544339E+03 -0.25256842034E+02  0.11669794180E+03  0.00000000000E+00 0.  1.
         15    1    5    5    0    0 -0.28253310544E+02 -0.11971348605E+02  0.90341122744E+01  0.32036473865E+02  0.17770000000E+01 0. -1.
        -16    1    5    5    0    0 -0.18156733534E+03 -0.20138482061E+03  0.33196192445E+03  0.42862718360E+03  0.00000000000E+00 0.  1.
          4    1    6    6  502    0  0.26404816318E+03  0.98960631306E+01  0.14963815604E+03  0.30366254673E+03  0.00000000000E+00 0. -1.
         -3    1    6    6    0  502  0.61483488181E+02 -0.24586097591E+02  0.58445587153E+02  0.88320904498E+02  0.00000000000E+00 0.  1.
<mgrwt>
<rscale>  0 0.44704745E+03</rscale>
<asrwt>0</asrwt>
<pdfrwt beam="1">  1        1 0.12064668E+00 0.44704745E+03</pdfrwt>
<pdfrwt beam="2">  1       -2 0.56612502E-01 0.44704745E+03</pdfrwt>
<totfact> 0.61431792E+01</totfact>
</mgrwt>
</event>
<event>
12    3  0.1182097E-007  0.1532523E+04  0.7818608E-02  0.8863109E-01
          1   -1    0    0  501    0  0.00000000000E+00  0.00000000000E+00  0.25656256883E+04  0.25656256883E+04  0.00000000000E+00 0. -1.
         -2   -1    0    0    0  501 -0.00000000000E+00 -0.00000000000E+00 -0.17593509238E+04  0.17593509238E+04  0.00000000000E+00 0.  1.
        -24    2    1    2    0    0  0.60093624837E+03  0.13893727964E+04  0.18492733847E+04  0.23912711117E+04  0.82971898929E+02 0.  0.
    5000000    2    1    2    0    0 -0.60093624837E+03 -0.13893727964E+04 -0.10429986203E+04  0.19337055004E+04  0.59990807500E+03 0.  0.
        -24    2    4    4    0    0 -0.11819203956E+03 -0.66895790456E+03 -0.74849898611E+03  0.10140129410E+04  0.80606922830E+02 0.  0.
         24    2    4    4    0    0 -0.48274420880E+03 -0.72041489184E+03 -0.29449963416E+03  0.91969255941E+03  0.84052256362E+02 0.  0.
         13    1    3    3    0    0  0.15429337621E+03  0.37571928391E+03  0.44061107618E+03  0.59925749615E+03  0.00000000000E+00 0. -1.
        -14    1    3    3    0    0  0.44664287216E+03  0.10136535125E+04  0.14086623085E+04  0.17920136155E+04  0.00000000000E+00 0.  1.
         15    1    5    5    0    0 -0.95954335902E+02 -0.31783609058E+03 -0.34971699299E+03  0.48221587278E+03  0.17770000000E+01 0. -1.
        -16    1    5    5    0    0 -0.22237703660E+02 -0.35112181398E+03 -0.39878199313E+03  0.53179706821E+03  0.00000000000E+00 0.  1.
          4    1    6    6  502    0 -0.44149771048E+03 -0.65041612724E+03 -0.29143130615E+03  0.83838748388E+03  0.00000000000E+00 0. -1.
         -3    1    6    6    0  502 -0.41246498323E+02 -0.69998764604E+02 -0.30683280110E+01  0.81305075529E+02  0.00000000000E+00 0.  1.
<mgrwt>
<rscale>  0 0.15325232E+04</rscale>
<asrwt>0</asrwt>
<pdfrwt beam="1">  1        1 0.39471164E+00 0.15325232E+04</pdfrwt>
<pdfrwt beam="2">  1       -2 0.27066937E+00 0.15325232E+04</pdfrwt>
<totfact> 0.48063978E-02</totfact>
</mgrwt>
</event>
<event>
12    3  0.1182097E-007  0.9109488E+03  0.7818608E-02  0.9411997E-01
          1   -1    0    0  501    0  0.00000000000E+00  0.00000000000E+00  0.10687191936E+04  0.10687191936E+04  0.00000000000E+00 0. -1.
         -2   -1    0    0    0  501 -0.00000000000E+00 -0.00000000000E+00 -0.88389703270E+03  0.88389703270E+03  0.00000000000E+00 0.  1.
        -24    2    1    2    0    0 -0.79686329888E+03 -0.21668015536E+03  0.38116947989E+03  0.91301896218E+03  0.79825096732E+02 0.  0.
    5000000    2    1    2    0    0  0.79686329888E+03  0.21668015536E+03 -0.19634731899E+03  0.10395972641E+04  0.60022395409E+03 0.  0.
        -24    2    4    4    0    0 -0.72581457259E+02 -0.64351668902E+01 -0.69798201984E+02  0.12978363286E+03  0.81624279760E+02 0.  0.
         24    2    4    4    0    0  0.86944475614E+03  0.22311532225E+03 -0.12654911701E+03  0.90981363127E+03  0.77662948797E+02 0.  0.
         11    1    3    3    0    0 -0.59628901307E+03 -0.18342472121E+03  0.25655665276E+03  0.67455654436E+03  0.00000000000E+00 0. -1.
        -12    1    3    3    0    0 -0.20057428581E+03 -0.33255434157E+02  0.12461282712E+03  0.23846241782E+03  0.00000000000E+00 0.  1.
         15    1    5    5    0    0 -0.50321856251E+02  0.26843308527E+02 -0.69266492592E+02  0.89743284731E+02  0.17770000000E+01 0. -1.
        -16    1    5    5    0    0 -0.22259601007E+02 -0.33278475417E+02 -0.53170939206E+00  0.40040348125E+02  0.00000000000E+00 0.  1.
          2    1    6    6  502    0  0.63777609098E+03  0.16535176372E+03 -0.12731813189E+03  0.67105100753E+03  0.00000000000E+00 0. -1.
         -1    1    6    6    0  502  0.23166866516E+03  0.57763558537E+02  0.76901488474E+00  0.23876262374E+03  0.00000000000E+00 0.  1.
<mgrwt>
<rscale>  0 0.91094880E+03</rscale>
<asrwt>0</asrwt>
<pdfrwt beam="1">  1        1 0.16441834E+00 0.91094880E+03</pdfrwt>
<pdfrwt beam="2">  1       -2 0.13598416E+00 0.91094880E+03</pdfrwt>
<totfact> 0.45738001E+00</totfact>
</mgrwt>
</event>
<event>
12    3  0.1182097E-007  0.4840997E+03  0.7818608E-02  0.1018014E+00
         -2   -1    0    0    0  501 -0.00000000000E+00  0.00000000000E+00  0.32883737239E+03  0.32883737239E+03  0.00000000000E+00 0.  1.
          1   -1    0    0  501    0  0.00000000000E+00 -0.00000000000E+00 -0.11244984121E+04  0.11244984121E+04  0.00000000000E+00 0. -1.
        -24    2    1    2    0    0  0.30977738810E+03 -0.81707821341E+02 -0.69010770254E+03  0.76502299302E+03  0.79833204176E+02 0.  0.
    5000000    2    1    2    0    0 -0.30977738810E+03  0.81707821341E+02 -0.10555333718E+03  0.68831279149E+03  0.59999566140E+03 0.  0.
        -24    2    4    4    0    0 -0.45956717574E+03  0.14893250292E+03 -0.26668990781E+02  0.49019059916E+03  0.78693767201E+02 0.  0.
         24    2    4    4    0    0  0.14978978764E+03 -0.67224681580E+02 -0.78884346395E+02  0.19812219233E+03  0.77932821646E+02 0.  0.
         11    1    3    3    0    0  0.18976237870E+03 -0.59320695657E+02 -0.51051451331E+03  0.54786291497E+03  0.00000000000E+00 0. -1.
        -12    1    3    3    0    0  0.12001500939E+03 -0.22387125684E+02 -0.17959318924E+03  0.21716007804E+03  0.00000000000E+00 0.  1.
         15    1    5    5    0    0 -0.18991031289E+03  0.61342975851E+02 -0.49874210692E+02  0.20571699553E+03  0.17770000000E+01 0. -1.
        -16    1    5    5    0    0 -0.26965686285E+03  0.87589527070E+02  0.23205219911E+02  0.28447360364E+03  0.00000000000E+00 0.  1.
          4    1    6    6  502    0  0.68744693553E+02 -0.29993967917E+02 -0.79001589300E+02  0.10893448543E+03  0.00000000000E+00 0. -1.
         -3    1    6    6    0  502  0.81045094091E+02 -0.37230713664E+02  0.11724290496E+00  0.89187706900E+02  0.00000000000E+00 0.  1.
<mgrwt>
<rscale>  0 0.48409972E+03</rscale>
<asrwt>0</asrwt>
<pdfrwt beam="1">  1        1 0.17299976E+00 0.48409972E+03</pdfrwt>
<pdfrwt beam="2">  1       -2 0.50590365E-01 0.48409972E+03</pdfrwt>
<totfact> 0.41581839E+01</totfact>
</mgrwt>
</event>
<event>
12    3  0.1182097E-007  0.4991661E+03  0.7818608E-02  0.1013997E+00
         -2   -1    0    0    0  501 -0.00000000000E+00  0.00000000000E+00  0.74403668367E+03  0.74403668367E+03  0.00000000000E+00 0.  1.
          1   -1    0    0  501    0  0.00000000000E+00 -0.00000000000E+00 -0.70092047330E+03  0.70092047330E+03  0.00000000000E+00 0. -1.
        -24    2    1    2    0    0 -0.45179629077E+02 -0.39500316452E+03  0.45993411414E+03  0.61320900179E+03  0.80107375828E+02 0.  0.
    5000000    2    1    2    0    0  0.45179629077E+02  0.39500316452E+03 -0.41681790377E+03  0.83174815517E+03  0.59999927489E+03 0.  0.
        -24    2    4    4    0    0 -0.16115879593E+03  0.31961263164E+03 -0.14970636313E+02  0.36757473925E+03  0.82235498248E+02 0.  0.
         24    2    4    4    0    0  0.20633842501E+03  0.75390532884E+02 -0.40184726746E+03  0.46417341593E+03  0.75607245734E+02 0.  0.
         13    1    3    3    0    0 -0.22624871302E+02 -0.66651155377E+02  0.12609707618E+03  0.14441168213E+03  0.00000000000E+00 0. -1.
        -14    1    3    3    0    0 -0.22554757775E+02 -0.32835200915E+03  0.33383703796E+03  0.46879731966E+03  0.00000000000E+00 0.  1.
         15    1    5    5    0    0 -0.35292930394E+02  0.16065191575E+03 -0.48249401891E+01  0.16456326063E+03  0.17770000000E+01 0. -1.
        -16    1    5    5    0    0 -0.12586586554E+03  0.15896071589E+03 -0.10145696124E+02  0.20301147862E+03  0.00000000000E+00 0.  1.
          2    1    6    6  502    0  0.45705891177E+02 -0.13919917303E+02 -0.68501142910E+02  0.83517657810E+02  0.00000000000E+00 0. -1.
         -1    1    6    6    0  502  0.16063253383E+03  0.89310450187E+02 -0.33334612455E+03  0.38065575812E+03  0.00000000000E+00 0.  1.
<mgrwt>
<rscale>  0 0.49916613E+03</rscale>
<asrwt>0</asrwt>
<pdfrwt beam="1">  1        1 0.10783392E+00 0.49916613E+03</pdfrwt>
<pdfrwt beam="2">  1       -2 0.11446718E+00 0.49916613E+03</pdfrwt>
<totfact> 0.14942809E+01</totfact>
</mgrwt>
</event>
<event>
12    3  0.1182097E-007  0.8870811E+03  0.7818608E-02  0.9441876E-01
          1   -1    0    0  501    0  0.00000000000E+00  0.00000000000E+00  0.34836651959E+04  0.34836651959E+04  0.00000000000E+00 0. -1.
         -2   -1    0    0    0  501 -0.00000000000E+00 -0.00000000000E+00 -0.26579152267E+03  0.26579152267E+03  0.00000000000E+00 0.  1.
        -24    2    1    2    0    0  0.67896988817E+03  0.43082302086E+03  0.82536130718E+03  0.11551091908E+04  0.80295522921E+02 0.  0.
    5000000    2    1    2    0    0 -0.67896988817E+03 -0.43082302086E+03  0.23925123661E+04  0.25943475278E+04  0.59992923639E+03 0.  0.
        -24    2    4    4    0    0  0.61313242807E+02  0.52647362166E+02  0.22735393648E+03  0.25414001488E+03  0.79788948111E+02 0.  0.
         24    2    4    4    0    0 -0.74028313098E+03 -0.48347038303E+03  0.21651584296E+04  0.23402075129E+04  0.83050905446E+02 0.  0.
         13    1    3    3    0    0  0.20269561629E+03  0.10440026272E+03  0.19217615502E+03  0.29818887014E+03  0.00000000000E+00 0. -1.
        -14    1    3    3    0    0  0.47627427188E+03  0.32642275814E+03  0.63318515216E+03  0.85692032069E+03  0.00000000000E+00 0.  1.
         15    1    5    5    0    0  0.57266888331E+02  0.51961979880E+02  0.23393147097E+03  0.24638716422E+03  0.17770000000E+01 0. -1.
        -16    1    5    5    0    0  0.40463544754E+01  0.68538228600E+00 -0.65775344866E+01  0.77528506590E+01  0.00000000000E+00 0.  1.
          2    1    6    6  502    0 -0.56615427693E+03 -0.40623973035E+03  0.16596431803E+04  0.17999935749E+04  0.00000000000E+00 0. -1.
         -1    1    6    6    0  502 -0.17412885405E+03 -0.77230652674E+02  0.50551524927E+03  0.54021393797E+03  0.00000000000E+00 0.  1.
<mgrwt>
<rscale>  0 0.88708106E+03</rscale>
<asrwt>0</asrwt>
<pdfrwt beam="1">  1        1 0.53594846E+00 0.88708106E+03</pdfrwt>
<pdfrwt beam="2">  1       -2 0.40891006E-01 0.88708106E+03</pdfrwt>
<totfact> 0.13525647E+00</totfact>
</mgrwt>
</event>
<event>
12    3  0.1182097E-007  0.1202168E+04  0.7818608E-02  0.9110961E-01
         -2   -1    0    0    0  501 -0.00000000000E+00  0.00000000000E+00  0.23371878233E+04  0.23371878233E+04  0.00000000000E+00 0.  1.
          1   -1    0    0  501    0  0.00000000000E+00 -0.00000000000E+00 -0.81037114440E+03  0.81037114440E+03  0.00000000000E+00 0. -1.
        -24    2    1    2    0    0  0.43006295990E+03 -0.10441086429E+04 -0.30801265081E+02  0.11322889712E+04  0.77540883593E+02 0.  0.
    5000000    2    1    2    0    0 -0.43006295990E+03  0.10441086429E+04  0.15576179440E+04  0.20152699965E+04  0.60001874279E+03 0.  0.
        -24    2    4    4    0    0 -0.55406338583E+03  0.95008651049E+03  0.13611667661E+04  0.17517891372E+04  0.79621626402E+02 0.  0.
         24    2    4    4    0    0  0.12400042593E+03  0.94022132439E+02  0.19645117789E+03  0.26348085924E+03  0.81319314280E+02 0.  0.
         13    1    3    3    0    0  0.31919912468E+03 -0.81964970410E+03  0.34144894010E+01  0.87961660816E+03  0.00000000000E+00 0. -1.
        -14    1    3    3    0    0  0.11086383521E+03 -0.22445893883E+03 -0.34215754482E+02  0.25267236302E+03  0.00000000000E+00 0.  1.
         15    1    5    5    0    0 -0.22516872257E+03  0.40045922758E+03  0.63037890111E+03  0.78003157838E+03  0.17770000000E+01 0. -1.
        -16    1    5    5    0    0 -0.32889466326E+03  0.54962728291E+03  0.73078786495E+03  0.97175755886E+03  0.00000000000E+00 0.  1.
          4    1    6    6  502    0 -0.19771883671E+00 -0.11478393139E+02  0.64458384114E+01  0.13165919437E+02  0.00000000000E+00 0. -1.
         -3    1    6    6    0  502  0.12419814477E+03  0.10550052558E+03  0.19000533947E+03  0.25031493981E+03  0.00000000000E+00 0.  1.
<mgrwt>
<rscale>  0 0.12021680E+04</rscale>
<asrwt>0</asrwt>
<pdfrwt beam="1">  1        1 0.12467248E+00 0.12021680E+04</pdfrwt>
<pdfrwt beam="2">  1       -2 0.35956735E+00 0.12021680E+04</pdfrwt>
<totfact> 0.25376617E-01</totfact>
</mgrwt>
</event>
<event>
12    3  0.1182097E-007  0.1337337E+04  0.7818608E-02  0.9000470E-01
          1   -1    0    0  501    0  0.00000000000E+00  0.00000000000E+00  0.39955922065E+04  0.39955922065E+04  0.00000000000E+00 0. -1.
         -2   -1    0    0    0  501 -0.00000000000E+00 -0.00000000000E+00 -0.55490158747E+03  0.55490158747E+03  0.00000000000E+00 0.  1.
        -24    2    1    2    0    0  0.35678596339E+03 -0.12780934373E+04  0.24556160108E+04  0.27923295920E+04  0.78965183560E+02 0.  0.
    5000000    2    1    2    0    0 -0.35678596339E+03  0.12780934373E+04  0.98507460827E+03  0.17581642019E+04  0.59995859779E+03 0.  0.
        -24    2    4    4    0    0 -0.30747339994E+03  0.77482300936E+03  0.91585257197E+03  0.12409901098E+04  0.79874474166E+02 0.  0.
         24    2    4    4    0    0 -0.49312563454E+02  0.50327042791E+03  0.69222036304E+02  0.51717409211E+03  0.83453572199E+02 0.  0.
         11    1    3    3    0    0  0.12624764472E+03 -0.37114507781E+03  0.66589665968E+03  0.77272601739E+03  0.00000000000E+00 0. -1.
        -12    1    3    3    0    0  0.23053831867E+03 -0.90694835945E+03  0.17897193511E+04  0.20196035747E+04  0.00000000000E+00 0.  1.
         15    1    5    5    0    0  0.33408771139E+01  0.31494517211E+02  0.35425640293E+02  0.47552074544E+02  0.17770000000E+01 0. -1.
        -16    1    5    5    0    0 -0.31081427705E+03  0.74332849215E+03  0.88042693167E+03  0.11934380353E+04  0.00000000000E+00 0.  1.
          4    1    6    6  502    0 -0.45301398732E+01  0.36672085577E+00  0.71595482596E+01  0.84803173725E+01  0.00000000000E+00 0. -1.
         -3    1    6    6    0  502 -0.44782423581E+02  0.50290370705E+03  0.62062488044E+02  0.50869377473E+03  0.00000000000E+00 0.  1.
<mgrwt>
<rscale>  0 0.13373366E+04</rscale>
<asrwt>0</asrwt>
<pdfrwt beam="1">  1        1 0.61470647E+00 0.13373366E+04</pdfrwt>
<pdfrwt beam="2">  1       -2 0.85369478E-01 0.13373366E+04</pdfrwt>
<totfact> 0.10060405E-01</totfact>
</mgrwt>
</event>
<event>
12    3  0.1182097E-007  0.3779745E+03  0.7818608E-02  0.1051685E+00
         -2   -1    0    0    0  501 -0.00000000000E+00  0.00000000000E+00  0.11590569994E+03  0.11590569994E+03  0.00000000000E+00 0.  1.
          1   -1    0    0  501    0  0.00000000000E+00 -0.00000000000E+00 -0.21163085118E+04  0.21163085118E+04  0.00000000000E+00 0. -1.
        -24    2    1    2    0    0 -0.18595774002E+02 -0.23448704094E+03 -0.18074953663E+03  0.30182467318E+03  0.55657552657E+02 0.  0.
    5000000    2    1    2    0    0  0.18595774002E+02  0.23448704094E+03 -0.18196532752E+04  0.19303895386E+04  0.59994645878E+03 0.  0.
        -24    2    4    4    0    0 -0.70717629160E+02 -0.11203456188E+03 -0.12024109982E+04  0.12124316663E+04  0.81520615693E+02 0.  0.
         24    2    4    4    0    0  0.89313403162E+02  0.34652160282E+03 -0.61724227708E+03  0.71795787230E+03  0.80133467255E+02 0.  0.
         11    1    3    3    0    0 -0.18222465901E+02 -0.11610054349E+03 -0.57172385313E+02  0.13069076518E+03  0.00000000000E+00 0. -1.
        -12    1    3    3    0    0 -0.37330810151E+00 -0.11838649745E+03 -0.12357715132E+03  0.17113390799E+03  0.00000000000E+00 0.  1.
         15    1    5    5    0    0 -0.85152563983E+02 -0.71417179364E+02 -0.79162834477E+03  0.79939349924E+03  0.17770000000E+01 0. -1.
        -16    1    5    5    0    0  0.14434934824E+02 -0.40617382518E+02 -0.41078265339E+03  0.41303816704E+03  0.00000000000E+00 0.  1.
          2    1    6    6  502    0 -0.95160017891E+01  0.96025079442E+02 -0.14107937287E+03  0.17092325653E+03  0.00000000000E+00 0. -1.
         -1    1    6    6    0  502  0.98829404951E+02  0.25049652338E+03 -0.47616290421E+03  0.54703461577E+03  0.00000000000E+00 0.  1.
<mgrwt>
<rscale>  0 0.37797450E+03</rscale>
<asrwt>0</asrwt>
<pdfrwt beam="1">  1        1 0.32558591E+00 0.37797450E+03</pdfrwt>
<pdfrwt beam="2">  1       -2 0.17831647E-01 0.37797450E+03</pdfrwt>
<totfact> 0.62343390E+01</totfact>
</mgrwt>
</event>
<event>
12    3  0.1182097E-007  0.5650490E+03  0.7818608E-02  0.9980695E-01
          1   -1    0    0  501    0  0.00000000000E+00  0.00000000000E+00  0.22045110436E+04  0.22045110436E+04  0.00000000000E+00 0. -1.
         -2   -1    0    0    0  501 -0.00000000000E+00 -0.00000000000E+00 -0.16128786346E+03  0.16128786346E+03  0.00000000000E+00 0.  1.
        -24    2    1    2    0    0 -0.41593999332E+03  0.13410349730E+03  0.65146322452E+03  0.78843687410E+03  0.78984463777E+02 0.  0.
    5000000    2    1    2    0    0  0.41593999332E+03 -0.13410349730E+03  0.13917599557E+04  0.15773620330E+04  0.60007114820E+03 0.  0.
        -24    2    4    4    0    0  0.46947357257E+03 -0.26325895550E+03  0.82577031246E+03  0.98888786956E+03  0.79321476518E+02 0.  0.
         24    2    4    4    0    0 -0.53533579252E+02  0.12915545820E+03  0.56598964320E+03  0.58847416343E+03  0.80066149620E+02 0.  0.
         13    1    3    3    0    0 -0.41080579889E+03  0.13449790630E+03  0.65295868273E+03  0.78307479371E+03  0.00000000000E+00 0. -1.
        -14    1    3    3    0    0 -0.51341944238E+01 -0.39440900296E+00 -0.14954582081E+01  0.53620803887E+01  0.00000000000E+00 0.  1.
         15    1    5    5    0    0  0.33254459919E+03 -0.16483761732E+03  0.50799924538E+03  0.62914524680E+03  0.17770000000E+01 0. -1.
        -16    1    5    5    0    0  0.13692897338E+03 -0.98421338182E+02  0.31777106708E+03  0.35974262276E+03  0.00000000000E+00 0.  1.
          2    1    6    6  502    0 -0.29279247855E+02  0.12487921793E+03  0.52678339349E+03  0.54217417596E+03  0.00000000000E+00 0. -1.
         -1    1    6    6    0  502 -0.24254331397E+02  0.42762402747E+01  0.39206249715E+02  0.46299987463E+02  0.00000000000E+00 0.  1.
<mgrwt>
<rscale>  0 0.56504895E+03</rscale>
<asrwt>0</asrwt>
<pdfrwt beam="1">  1        1 0.33915552E+00 0.56504895E+03</pdfrwt>
<pdfrwt beam="2">  1       -2 0.24813519E-01 0.56504895E+03</pdfrwt>
<totfact> 0.29491315E+01</totfact>
</mgrwt>
</event>
<event>
12    3  0.1182097E-007  0.1091191E+04  0.7818608E-02  0.9213821E-01
         -2   -1    0    0    0  501 -0.00000000000E+00  0.00000000000E+00  0.80670738992E+03  0.80670738992E+03  0.00000000000E+00 0.  1.
          1   -1    0    0  501    0  0.00000000000E+00 -0.00000000000E+00 -0.18557116606E+04  0.18557116606E+04  0.00000000000E+00 0. -1.
        -24    2    1    2    0    0 -0.73697367057E+03 -0.72871360856E+03 -0.10317495816E+04  0.14647493119E+04  0.82641594776E+02 0.  0.
    5000000    2    1    2    0    0  0.73697367057E+03  0.72871360856E+03 -0.17254689080E+02  0.11976697386E+04  0.59996780253E+03 0.  0.
        -24    2    4    4    0    0  0.26657491950E+03  0.59356025615E+03 -0.17836811133E+03  0.67877220618E+03  0.74434933738E+02 0.  0.
         24    2    4    4    0    0  0.47039875107E+03  0.13515335241E+03  0.16111342225E+03  0.51889753243E+03  0.61283771542E+02 0.  0.
         11    1    3    3    0    0 -0.59555965782E+03 -0.55723966105E+03 -0.77401806457E+03  0.11244159863E+04  0.00000000000E+00 0. -1.
        -12    1    3    3    0    0 -0.14141401275E+03 -0.17147394751E+03 -0.25773151705E+03  0.34033332566E+03  0.00000000000E+00 0.  1.
         15    1    5    5    0    0  0.94774313906E+02  0.29691387505E+03 -0.72590696667E+02  0.32001966619E+03  0.17770000000E+01 0. -1.
        -16    1    5    5    0    0  0.17180060559E+03  0.29664638109E+03 -0.10577741466E+03  0.35875253999E+03  0.00000000000E+00 0.  1.
          2    1    6    6  502    0  0.17604111301E+03  0.62863671103E+02  0.90465435576E+02  0.20766874981E+03  0.00000000000E+00 0. -1.
         -1    1    6    6    0  502  0.29435763806E+03  0.72289681310E+02  0.70647986675E+02  0.31122878262E+03  0.00000000000E+00 0.  1.
<mgrwt>
<rscale>  0 0.10911906E+04</rscale>
<asrwt>0</asrwt>
<pdfrwt beam="1">  1        1 0.28549410E+00 0.10911906E+04</pdfrwt>
<pdfrwt beam="2">  1       -2 0.12410883E+00 0.10911906E+04</pdfrwt>
<totfact> 0.15854092E+00</totfact>
</mgrwt>
</event>
<event>
12    3  0.1182097E-007  0.3599469E+03  0.7818608E-02  0.1058605E+00
          1   -1    0    0  501    0  0.00000000000E+00  0.00000000000E+00  0.18030777147E+04  0.18030777147E+04  0.00000000000E+00 0. -1.
         -2   -1    0    0    0  501 -0.00000000000E+00 -0.00000000000E+00 -0.11134360145E+03  0.11134360145E+03  0.00000000000E+00 0.  1.
        -24    2    1    2    0    0 -0.83165162324E+02 -0.22147772207E+03  0.45596339197E+03  0.52047733093E+03  0.83816535347E+02 0.  0.
    5000000    2    1    2    0    0  0.83165162324E+02  0.22147772207E+03  0.12357707213E+04  0.13939439852E+04  0.59998477710E+03 0.  0.
        -24    2    4    4    0    0 -0.15199919990E+03  0.15293789671E+03  0.14014228340E+03  0.26841133458E+03  0.76883209547E+02 0.  0.
         24    2    4    4    0    0  0.23516436222E+03  0.68539825353E+02  0.10956284379E+04  0.11255326507E+04  0.80137936406E+02 0.  0.
         11    1    3    3    0    0  0.61625748269E+01 -0.30246511287E+02  0.11841504595E+03  0.12237218590E+03  0.00000000000E+00 0. -1.
        -12    1    3    3    0    0 -0.89327737151E+02 -0.19123121078E+03  0.33754834602E+03  0.39810514503E+03  0.00000000000E+00 0.  1.
         15    1    5    5    0    0 -0.40168033772E+02  0.94590325284E+02  0.63530196649E+02  0.12083064259E+03  0.17770000000E+01 0. -1.
        -16    1    5    5    0    0 -0.11183116613E+03  0.58347571430E+02  0.76612086754E+02  0.14758069198E+03  0.00000000000E+00 0.  1.
          2    1    6    6  502    0  0.19513316131E+03  0.73889523384E+02  0.78371148720E+03  0.81101190341E+03  0.00000000000E+00 0. -1.
         -1    1    6    6    0  502  0.40031200910E+02 -0.53496980311E+01  0.31191695070E+03  0.31452074725E+03  0.00000000000E+00 0.  1.
<mgrwt>
<rscale>  0 0.35994687E+03</rscale>
<asrwt>0</asrwt>
<pdfrwt beam="1">  1        1 0.27739655E+00 0.35994687E+03</pdfrwt>
<pdfrwt beam="2">  1       -2 0.17129786E-01 0.35994687E+03</pdfrwt>
<totfact> 0.10753075E+02</totfact>
</mgrwt>
</event>
<event>
12    3  0.1182097E-007  0.5561599E+03  0.7818608E-02  0.1000078E+00
          1   -1    0    0  501    0  0.00000000000E+00  0.00000000000E+00  0.10414578835E+04  0.10414578835E+04  0.00000000000E+00 0. -1.
         -2   -1    0    0    0  501 -0.00000000000E+00 -0.00000000000E+00 -0.32525415373E+03  0.32525415373E+03  0.00000000000E+00 0.  1.
        -24    2    1    2    0    0 -0.33608578733E+03 -0.24874688196E+03  0.33442667382E+03  0.54171743924E+03  0.82388810404E+02 0.  0.
    5000000    2    1    2    0    0  0.33608578733E+03  0.24874688196E+03  0.38177705595E+03  0.82499459798E+03  0.60002808144E+03 0.  0.
        -24    2    4    4    0    0  0.25715144512E+03  0.42199183045E+03  0.36069461640E+03  0.61703579370E+03  0.80178511541E+02 0.  0.
         24    2    4    4    0    0  0.78934342209E+02 -0.17324494849E+03  0.21082439544E+02  0.20795880428E+03  0.80981185852E+02 0.  0.
         13    1    3    3    0    0 -0.19935407922E+03 -0.15535437653E+03  0.25141302424E+03  0.35649058889E+03  0.00000000000E+00 0. -1.
        -14    1    3    3    0    0 -0.13673170811E+03 -0.93392505435E+02  0.83013649580E+02  0.18522685035E+03  0.00000000000E+00 0.  1.
         15    1    5    5    0    0  0.91922023703E+02  0.84536397259E+02  0.90189004455E+02  0.15405607796E+03  0.17770000000E+01 0. -1.
        -16    1    5    5    0    0  0.16522942142E+03  0.33745543319E+03  0.27050561195E+03  0.46297971574E+03  0.00000000000E+00 0.  1.
          4    1    6    6  502    0  0.51031091502E+02 -0.14475831698E+03  0.46851522395E+02  0.16048117580E+03  0.00000000000E+00 0. -1.
         -3    1    6    6    0  502  0.27903250707E+02 -0.28486631504E+02 -0.25769082852E+02  0.47477628474E+02  0.00000000000E+00 0.  1.
<mgrwt>
<rscale>  0 0.55615986E+03</rscale>
<asrwt>0</asrwt>
<pdfrwt beam="1">  1        1 0.16022429E+00 0.55615986E+03</pdfrwt>
<pdfrwt beam="2">  1       -2 0.50039101E-01 0.55615986E+03</pdfrwt>
<totfact> 0.48529579E+01</totfact>
</mgrwt>
</event>
<event>
12    3  0.1182097E-007  0.5342000E+03  0.7818608E-02  0.1005219E+00
         -2   -1    0    0    0  501 -0.00000000000E+00  0.00000000000E+00  0.54571530406E+03  0.54571530406E+03  0.00000000000E+00 0.  1.
          1   -1    0    0  501    0  0.00000000000E+00 -0.00000000000E+00 -0.90413333929E+03  0.90413333929E+03  0.00000000000E+00 0. -1.
        -24    2    1    2    0    0  0.50443399130E+02  0.51412124366E+03 -0.39818984675E+03  0.65703246224E+03  0.79191620006E+02 0.  0.
    5000000    2    1    2    0    0 -0.50443399130E+02 -0.51412124366E+03  0.39771811524E+02  0.79281618112E+03  0.60009208489E+03 0.  0.
        -24    2    4    4    0    0 -0.10837108077E+03 -0.31168900076E+03  0.29675443705E+03  0.45121267649E+03  0.81457714030E+02 0.  0.
         24    2    4    4    0    0  0.57927681642E+02 -0.20243224290E+03 -0.25698262553E+03  0.34160350462E+03  0.79488711666E+02 0.  0.
         13    1    3    3    0    0  0.37772792568E+02  0.27691410314E+03 -0.26271010204E+03  0.38356851030E+03  0.00000000000E+00 0. -1.
        -14    1    3    3    0    0  0.12670606562E+02  0.23720714052E+03 -0.13547974471E+03  0.27346395194E+03  0.00000000000E+00 0.  1.
         15    1    5    5    0    0 -0.37186769543E+02 -0.16890376146E+03  0.20086596107E+03  0.26506910139E+03  0.17770000000E+01 0. -1.
        -16    1    5    5    0    0 -0.71184311228E+02 -0.14278523930E+03  0.95888475983E+02  0.18614357511E+03  0.00000000000E+00 0.  1.
          2    1    6    6  502    0  0.52083750659E+02 -0.75026722768E+02 -0.14765177012E+03  0.17361673719E+03  0.00000000000E+00 0. -1.
         -1    1    6    6    0  502  0.58439309825E+01 -0.12740552013E+03 -0.10933085541E+03  0.16798676743E+03  0.00000000000E+00 0.  1.
<mgrwt>
<rscale>  0 0.53420003E+03</rscale>
<asrwt>0</asrwt>
<pdfrwt beam="1">  1        1 0.13909744E+00 0.53420003E+03</pdfrwt>
<pdfrwt beam="2">  1       -2 0.83956200E-01 0.53420003E+03</pdfrwt>
<totfact> 0.20573827E+01</totfact>
</mgrwt>
</event>
<event>
12    3  0.1182097E-007  0.2153567E+03  0.7818608E-02  0.1137393E+00
         -2   -1    0    0    0  501 -0.00000000000E+00  0.00000000000E+00  0.14424332516E+03  0.14424332516E+03  0.00000000000E+00 0.  1.
          1   -1    0    0  501    0  0.00000000000E+00 -0.00000000000E+00 -0.12750609470E+04  0.12750609470E+04  0.00000000000E+00 0. -1.
        -24    2    1    2    0    0  0.12578099196E+03 -0.13172252272E+03 -0.46006596061E+03  0.50114007144E+03  0.79429227375E+02 0.  0.
    5000000    2    1    2    0    0 -0.12578099196E+03  0.13172252272E+03 -0.67075166119E+03  0.91816420068E+03  0.59995502123E+03 0.  0.
        -24    2    4    4    0    0 -0.63114694199E+02  0.15197651632E+03 -0.76004076725E+03  0.78177098136E+03  0.80147197617E+02 0.  0.
         24    2    4    4    0    0 -0.62666297757E+02 -0.20253993604E+02  0.89289106061E+02  0.13639321932E+03  0.79330175116E+02 0.  0.
         11    1    3    3    0    0  0.50960341335E+02 -0.10915100534E+03 -0.28615993896E+03  0.31048093182E+03  0.00000000000E+00 0. -1.
        -12    1    3    3    0    0  0.74820650621E+02 -0.22571517383E+02 -0.17390602164E+03  0.19065913962E+03  0.00000000000E+00 0.  1.
         15    1    5    5    0    0 -0.59175126890E+02  0.11882630214E+03 -0.42952181109E+03  0.44957038343E+03  0.17770000000E+01 0. -1.
        -16    1    5    5    0    0 -0.39395673089E+01  0.33150214187E+02 -0.33051895616E+03  0.33220059794E+03  0.00000000000E+00 0.  1.
          4    1    6    6  502    0 -0.38505321975E+02 -0.10560723275E+02 -0.34437620216E+01  0.40075531105E+02  0.00000000000E+00 0. -1.
         -3    1    6    6    0  502 -0.24160975783E+02 -0.96932703286E+01  0.92732868083E+02  0.96317688216E+02  0.00000000000E+00 0.  1.
<mgrwt>
<rscale>  0 0.21535674E+03</rscale>
<asrwt>0</asrwt>
<pdfrwt beam="1">  1        1 0.19616322E+00 0.21535674E+03</pdfrwt>
<pdfrwt beam="2">  1       -2 0.22191281E-01 0.21535674E+03</pdfrwt>
<totfact> 0.15972771E+02</totfact>
</mgrwt>
</event>
<event>
12    3  0.1182097E-007  0.4998932E+03  0.7818608E-02  0.1013807E+00
          1   -1    0    0  501    0  0.00000000000E+00  0.00000000000E+00  0.24893265511E+04  0.24893265511E+04  0.00000000000E+00 0. -1.
         -2   -1    0    0    0  501 -0.00000000000E+00 -0.00000000000E+00 -0.14954180349E+03  0.14954180349E+03  0.00000000000E+00 0.  1.
        -24    2    1    2    0    0  0.76904895659E+02  0.45115196581E+03  0.92837746305E+03  0.10382514607E+04  0.81418195280E+02 0.  0.
    5000000    2    1    2    0    0 -0.76904895659E+02 -0.45115196581E+03  0.14114072846E+04  0.16006168939E+04  0.60037609787E+03 0.  0.
        -24    2    4    4    0    0 -0.17134448007E+03 -0.36198452004E+03  0.38155161091E+03  0.55918997802E+03  0.81976070417E+02 0.  0.
         24    2    4    4    0    0  0.94439584416E+02 -0.89167445763E+02  0.10298556736E+04  0.10414269159E+04  0.84247516825E+02 0.  0.
         11    1    3    3    0    0  0.77422270244E+02  0.21221410957E+03  0.45474406802E+03  0.50776097096E+03  0.00000000000E+00 0. -1.
        -12    1    3    3    0    0 -0.51737458525E+00  0.23893785623E+03  0.47363339504E+03  0.53049048975E+03  0.00000000000E+00 0.  1.
         15    1    5    5    0    0 -0.14490531667E+02 -0.89284461103E+02  0.55619699258E+02  0.10619980780E+03  0.17770000000E+01 0. -1.
        -16    1    5    5    0    0 -0.15685394841E+03 -0.27270005894E+03  0.32593191165E+03  0.45299017021E+03  0.00000000000E+00 0.  1.
          2    1    6    6  502    0  0.39819932888E+02 -0.36761642895E+02  0.17434023884E+03  0.18256934113E+03  0.00000000000E+00 0. -1.
         -1    1    6    6    0  502  0.54619651528E+02 -0.52405802868E+02  0.85551543480E+03  0.85885757474E+03  0.00000000000E+00 0.  1.
<mgrwt>
<rscale>  0 0.49989317E+03</rscale>
<asrwt>0</asrwt>
<pdfrwt beam="1">  1        1 0.38297328E+00 0.49989317E+03</pdfrwt>
<pdfrwt beam="2">  1       -2 0.23006433E-01 0.49989317E+03</pdfrwt>
<totfact> 0.22011811E+01</totfact>
</mgrwt>
</event>
<event>
12    3  0.1182097E-007  0.9285459E+03  0.7818608E-02  0.9390585E-01
         -2   -1    0    0    0  501 -0.00000000000E+00  0.00000000000E+00  0.11388048533E+04  0.11388048533E+04  0.00000000000E+00 0.  1.
          1   -1    0    0  501    0  0.00000000000E+00 -0.00000000000E+00 -0.78834311420E+03  0.78834311420E+03  0.00000000000E+00 0. -1.
        -24    2    1    2    0    0  0.71809582968E+03 -0.44447079683E+03  0.57875540912E+02  0.85062319663E+03  0.83632138425E+02 0.  0.
    5000000    2    1    2    0    0 -0.71809582968E+03  0.44447079683E+03  0.29258619818E+03  0.10765247709E+04  0.60006915357E+03 0.  0.
        -24    2    4    4    0    0 -0.62191913975E+03  0.78341936369E+02  0.77626397775E+02  0.63666531115E+03  0.79974904900E+02 0.  0.
         24    2    4    4    0    0 -0.96176689933E+02  0.36612886046E+03  0.21495980041E+03  0.43985945971E+03  0.62994685132E+02 0.  0.
         13    1    3    3    0    0  0.17001243931E+03 -0.90419615652E+02 -0.19553506968E+02  0.19355173998E+03  0.00000000000E+00 0. -1.
        -14    1    3    3    0    0  0.54808339037E+03 -0.35405118117E+03  0.77429047880E+02  0.65707145665E+03  0.00000000000E+00 0.  1.
         15    1    5    5    0    0 -0.41693432040E+03  0.29421447617E+02  0.21256704931E+02  0.41851505868E+03  0.17770000000E+01 0. -1.
        -16    1    5    5    0    0 -0.20498481935E+03  0.48920488751E+02  0.56369692843E+02  0.21815025247E+03  0.00000000000E+00 0.  1.
          2    1    6    6  502    0 -0.27671153905E+02  0.22223971073E+03  0.13587523152E+03  0.26195087388E+03  0.00000000000E+00 0. -1.
         -1    1    6    6    0  502 -0.68505536028E+02  0.14388914973E+03  0.79084568889E+02  0.17790858583E+03  0.00000000000E+00 0.  1.
<mgrwt>
<rscale>  0 0.92854588E+03</rscale>
<asrwt>0</asrwt>
<pdfrwt beam="1">  1        1 0.12128356E+00 0.92854588E+03</pdfrwt>
<pdfrwt beam="2">  1       -2 0.17520075E+00 0.92854588E+03</pdfrwt>
<totfact> 0.38981960E+00</totfact>
</mgrwt>
</event>
<event>
12    3  0.1182097E-007  0.5469652E+03  0.7818608E-02  0.1002199E+00
         -2   -1    0    0    0  501 -0.00000000000E+00  0.00000000000E+00  0.19149342630E+04  0.19149342630E+04  0.00000000000E+00 0.  1.
          1   -1    0    0  501    0  0.00000000000E+00 -0.00000000000E+00 -0.22715057687E+03  0.22715057687E+03  0.00000000000E+00 0. -1.
        -24    2    1    2    0    0 -0.28508833490E+03 -0.26774541431E+03  0.12269201377E+04  0.12904028990E+04  0.82726367143E+02 0.  0.
    5000000    2    1    2    0    0  0.28508833490E+03  0.26774541431E+03  0.46086354838E+03  0.85168194085E+03  0.60000329379E+03 0.  0.
        -24    2    4    4    0    0  0.12606617040E+03  0.43158897921E+03  0.20797859093E+03  0.50189797375E+03  0.80527979394E+02 0.  0.
         24    2    4    4    0    0  0.15902216450E+03 -0.16384356490E+03  0.25288495745E+03  0.34978396710E+03  0.79153391448E+02 0.  0.
         11    1    3    3    0    0 -0.60165621398E+02 -0.10838663850E+03  0.39642547499E+03  0.41535613951E+03  0.00000000000E+00 0. -1.
        -12    1    3    3    0    0 -0.22492271350E+03 -0.15935877581E+03  0.83049466271E+03  0.87504675948E+03  0.00000000000E+00 0.  1.
         15    1    5    5    0    0  0.10511360863E+03  0.24342277143E+03  0.96388227809E+02  0.28213004902E+03  0.17770000000E+01 0. -1.
        -16    1    5    5    0    0  0.20952561766E+02  0.18816620779E+03  0.11159036313E+03  0.21976792473E+03  0.00000000000E+00 0.  1.
          2    1    6    6  502    0  0.11975500198E+03 -0.71487427622E+02  0.12555148506E+03  0.18765630341E+03  0.00000000000E+00 0. -1.
         -1    1    6    6    0  502  0.39267162517E+02 -0.92356137279E+02  0.12733347238E+03  0.16212766369E+03  0.00000000000E+00 0.  1.
<mgrwt>
<rscale>  0 0.54696519E+03</rscale>
<asrwt>0</asrwt>
<pdfrwt beam="1">  1        1 0.34946244E-01 0.54696519E+03</pdfrwt>
<pdfrwt beam="2">  1       -2 0.29460526E+00 0.54696519E+03</pdfrwt>
<totfact> 0.40507623E+00</totfact>
</mgrwt>
</event>
<event>
12    3  0.1182097E-007  0.7493330E+03  0.7818608E-02  0.9636397E-01
         -2   -1    0    0    0  501 -0.00000000000E+00  0.00000000000E+00  0.59852700056E+03  0.59852700056E+03  0.00000000000E+00 0.  1.
          1   -1    0    0  501    0  0.00000000000E+00 -0.00000000000E+00 -0.12469936618E+04  0.12469936618E+04  0.00000000000E+00 0. -1.
        -24    2    1    2    0    0 -0.59335748644E+03  0.25985151329E+03  0.13318368866E+03  0.66629870626E+03  0.81364337207E+02 0.  0.
    5000000    2    1    2    0    0  0.59335748644E+03 -0.25985151329E+03 -0.78165034987E+03  0.11792219561E+04  0.59999269706E+03 0.  0.
        -24    2    4    4    0    0  0.68526590852E+03 -0.29026856154E+03 -0.72060096049E+03  0.10388895521E+04  0.78616499001E+02 0.  0.
         24    2    4    4    0    0 -0.91908422086E+02  0.30417048245E+02 -0.61049389378E+02  0.14033240400E+03  0.81202221611E+02 0.  0.
         11    1    3    3    0    0 -0.41931716681E+03  0.20009242973E+03  0.60854201429E+02  0.46857987649E+03  0.00000000000E+00 0. -1.
        -12    1    3    3    0    0 -0.17404031963E+03  0.59759083558E+02  0.72329487231E+02  0.19771882977E+03  0.00000000000E+00 0.  1.
         15    1    5    5    0    0  0.25985970690E+03 -0.83426867365E+02 -0.30426819604E+03  0.40874124128E+03  0.17770000000E+01 0. -1.
        -16    1    5    5    0    0  0.42540620163E+03 -0.20684169417E+03 -0.41633276444E+03  0.63014831078E+03  0.00000000000E+00 0.  1.
          4    1    6    6  502    0 -0.92896275063E+02  0.21811025815E+02 -0.76711693801E+02  0.12243415673E+03  0.00000000000E+00 0. -1.
         -1    1    6    6    0  502  0.98785297654E+00  0.86060224292E+01  0.15662304424E+02  0.17898247272E+02  0.00000000000E+00 0.  1.
<mgrwt>
<rscale>  0 0.74933298E+03</rscale>
<asrwt>0</asrwt>
<pdfrwt beam="1">  1        1 0.19184518E+00 0.74933298E+03</pdfrwt>
<pdfrwt beam="2">  1       -2 0.92081078E-01 0.74933298E+03</pdfrwt>
<totfact> 0.89266270E+00</totfact>
</mgrwt>
</event>
<event>
12    3  0.1182097E-007  0.6719666E+03  0.7818608E-02  0.9766412E-01
         -2   -1    0    0    0  501 -0.00000000000E+00  0.00000000000E+00  0.12062026588E+04  0.12062026588E+04  0.00000000000E+00 0.  1.
          1   -1    0    0  501    0  0.00000000000E+00 -0.00000000000E+00 -0.42727231752E+03  0.42727231752E+03  0.00000000000E+00 0. -1.
        -24    2    1    2    0    0  0.13090252300E+03  0.56392502207E+03  0.44857417174E+03  0.73667137127E+03  0.79492267897E+02 0.  0.
    5000000    2    1    2    0    0 -0.13090252300E+03 -0.56392502207E+03  0.33035616959E+03  0.89680360509E+03  0.59997883818E+03 0.  0.
        -24    2    4    4    0    0 -0.17069836398E+03  0.94224352126E+01  0.24588277777E+03  0.31002165559E+03  0.80177133786E+02 0.  0.
         24    2    4    4    0    0  0.39795840983E+02 -0.57334745728E+03  0.84473391820E+02  0.58678194949E+03  0.82863059279E+02 0.  0.
         11    1    3    3    0    0  0.37233429243E+02  0.91913009948E+02  0.46226157041E+02  0.10941292083E+03  0.00000000000E+00 0. -1.
        -12    1    3    3    0    0  0.93669093757E+02  0.47201201212E+03  0.40234801470E+03  0.62725845044E+03  0.00000000000E+00 0.  1.
         15    1    5    5    0    0 -0.10198486383E+03  0.44951339190E+02  0.14414506312E+03  0.18221551058E+03  0.17770000000E+01 0. -1.
        -16    1    5    5    0    0 -0.68713500153E+02 -0.35528903977E+02  0.10173771465E+03  0.12780614502E+03  0.00000000000E+00 0.  1.
          2    1    6    6  502    0  0.10351850726E+02 -0.15228056412E+03 -0.14248854259E+02  0.15329566487E+03  0.00000000000E+00 0. -1.
         -1    1    6    6    0  502  0.29443990257E+02 -0.42106689317E+03  0.98722246079E+02  0.43348628462E+03  0.00000000000E+00 0.  1.
<mgrwt>
<rscale>  0 0.67196658E+03</rscale>
<asrwt>0</asrwt>
<pdfrwt beam="1">  1        1 0.65734203E-01 0.67196658E+03</pdfrwt>
<pdfrwt beam="2">  1       -2 0.18556964E+00 0.67196658E+03</pdfrwt>
<totfact> 0.82250279E+00</totfact>
</mgrwt>
</event>
<event>
12    3  0.1182097E-007  0.1008809E+04  0.7818608E-02  0.9298935E-01
         -4   -1    0    0    0  501 -0.00000000000E+00  0.00000000000E+00  0.61931190883E+03  0.61931190883E+03  0.00000000000E+00 0.  1.
          1   -1    0    0  501    0  0.00000000000E+00 -0.00000000000E+00 -0.23687908397E+04  0.23687908397E+04  0.00000000000E+00 0. -1.
        -24    2    1    2    0    0  0.69934161417E+03 -0.63285126904E+03 -0.16018569613E+04  0.18605460215E+04  0.78143146732E+02 0.  0.
    5000000    2    1    2    0    0 -0.69934161417E+03  0.63285126904E+03 -0.14762196960E+03  0.11275567271E+04  0.60001042069E+03 0.  0.
        -24    2    4    4    0    0 -0.55222722912E+02  0.36261862745E+03  0.90188473309E+02  0.38539070641E+03  0.76486716254E+02 0.  0.
         24    2    4    4    0    0 -0.64411889126E+03  0.27023264159E+03 -0.23781044291E+03  0.74216602072E+03  0.79635223958E+02 0.  0.
         11    1    3    3    0    0  0.38021888481E+03 -0.32709447962E+03 -0.77865508250E+03  0.92620782574E+03  0.00000000000E+00 0. -1.
        -12    1    3    3    0    0  0.31912272936E+03 -0.30575678943E+03 -0.82320187882E+03  0.93433819571E+03  0.00000000000E+00 0.  1.
         15    1    5    5    0    0  0.84938331487E+01  0.14642159559E+03  0.13446853492E+02  0.14729359951E+03  0.17770000000E+01 0. -1.
        -16    1    5    5    0    0 -0.63716556061E+02  0.21619703186E+03  0.76741619817E+02  0.23809710690E+03  0.00000000000E+00 0.  1.
          2    1    6    6  502    0 -0.44006293524E+03  0.14857599556E+03 -0.17592386526E+03  0.49666831971E+03  0.00000000000E+00 0. -1.
         -1    1    6    6    0  502 -0.20405595601E+03  0.12165664603E+03 -0.61886577648E+02  0.24549770101E+03  0.00000000000E+00 0.  1.
<mgrwt>
<rscale>  0 0.10088093E+04</rscale>
<asrwt>0</asrwt>
<pdfrwt beam="1">  1        1 0.36442936E+00 0.10088093E+04</pdfrwt>
<pdfrwt beam="2">  1       -4 0.95278755E-01 0.10088093E+04</pdfrwt>
<totfact> 0.75013474E-01</totfact>
</mgrwt>
</event>
<event>
12    3  0.1182097E-007  0.3055485E+03  0.7818608E-02  0.1082499E+00
          1   -1    0    0  501    0  0.00000000000E+00  0.00000000000E+00  0.37079197704E+03  0.37079197704E+03  0.00000000000E+00 0. -1.
         -2   -1    0    0    0  501 -0.00000000000E+00 -0.00000000000E+00 -0.54185008286E+03  0.54185008286E+03  0.00000000000E+00 0.  1.
        -24    2    1    2    0    0  0.17236530831E+03  0.16341193188E+03 -0.31599639850E+02  0.25250352080E+03  0.79663239899E+02 0.  0.
    5000000    2    1    2    0    0 -0.17236530831E+03 -0.16341193188E+03 -0.13945846597E+03  0.66013853910E+03  0.59993413645E+03 0.  0.
        -24    2    4    4    0    0  0.39058635763E+01  0.40344605029E+02  0.19992359838E+03  0.21961389494E+03  0.81350321061E+02 0.  0.
         24    2    4    4    0    0 -0.17627117188E+03 -0.20375653691E+03 -0.33938206436E+03  0.44052464415E+03  0.79331734700E+02 0.  0.
         11    1    3    3    0    0  0.99524124669E+02  0.65121349672E+02 -0.49567766235E+02  0.12885187241E+03  0.00000000000E+00 0. -1.
        -12    1    3    3    0    0  0.72841183638E+02  0.98290582209E+02  0.17968126385E+02  0.12365164839E+03  0.00000000000E+00 0.  1.
         15    1    5    5    0    0 -0.38494873159E+02  0.15193374918E+02  0.84685861205E+02  0.94273785953E+02  0.17770000000E+01 0. -1.
        -16    1    5    5    0    0  0.42400736735E+02  0.25151230111E+02  0.11523773718E+03  0.12534010899E+03  0.00000000000E+00 0.  1.
          4    1    6    6  502    0 -0.71600882830E+02 -0.13805316518E+03 -0.16440787603E+03  0.22630800370E+03  0.00000000000E+00 0. -1.
         -1    1    6    6    0  502 -0.10467028905E+03 -0.65703371730E+02 -0.17497418832E+03  0.21421664045E+03  0.00000000000E+00 0.  1.
<mgrwt>
<rscale>  0 0.30554855E+03</rscale>
<asrwt>0</asrwt>
<pdfrwt beam="1">  1        1 0.57044920E-01 0.30554855E+03</pdfrwt>
<pdfrwt beam="2">  1       -2 0.83361551E-01 0.30554855E+03</pdfrwt>
<totfact> 0.76799736E+01</totfact>
</mgrwt>
</event>
<event>
12    3  0.1280448E-007  0.1289632E+04  0.7818608E-02  0.9037828E-01
         -2   -1    0    0    0  501 -0.00000000000E+00  0.00000000000E+00  0.15595619267E+04  0.15595619267E+04  0.00000000000E+00 0.  1.
          1   -1    0    0  501    0  0.00000000000E+00 -0.00000000000E+00 -0.11205452072E+04  0.11205452072E+04  0.00000000000E+00 0. -1.
        -24    2    1    2    0    0  0.12659224256E+03 -0.12311100643E+04  0.40404139090E+03  0.13043556936E+04  0.80229318618E+02 0.  0.
    5000000    2    1    2    0    0 -0.12659224256E+03  0.12311100643E+04  0.34975328528E+02  0.13757514403E+04  0.59984261727E+03 0.  0.
        -24    2    4    4    0    0  0.99798900599E+02  0.50609748948E+02  0.97756228067E+02  0.16975194141E+03  0.82086991891E+02 0.  0.
         24    2    4    4    0    0 -0.22639114316E+03  0.11805003154E+04 -0.62780899539E+02  0.12059994989E+04  0.75229021271E+02 0.  0.
         13    1    3    3    0    0  0.64771143582E+02 -0.43223841748E+03  0.10851959444E+03  0.45033526729E+03  0.00000000000E+00 0. -1.
        -14    1    3    3    0    0  0.61821098978E+02 -0.79887164684E+03  0.29552179646E+03  0.85402042632E+03  0.00000000000E+00 0.  1.
         15    1    5    5    0    0  0.10050186833E+02 -0.20749699911E+02  0.92474126006E+01  0.24904390588E+02  0.17770000000E+01 0. -1.
        -16    1    5    5    0    0  0.89748713767E+02  0.71359448859E+02  0.88508815467E+02  0.14484755082E+03  0.00000000000E+00 0.  1.
          2    1    6    6  502    0 -0.10507128352E+03  0.41463731551E+03 -0.48197034999E+02  0.43044980220E+03  0.00000000000E+00 0. -1.
         -1    1    6    6    0  502 -0.12131985964E+03  0.76586299986E+03 -0.14583864540E+02  0.77554969667E+03  0.00000000000E+00 0.  1.
<mgrwt>
<rscale>  0 0.12896322E+04</rscale>
<asrwt>0</asrwt>
<pdfrwt beam="1">  1        1 0.17239157E+00 0.12896322E+04</pdfrwt>
<pdfrwt beam="2">  1       -2 0.23993260E+00 0.12896322E+04</pdfrwt>
<totfact> 0.76861736E-01</totfact>
</mgrwt>
</event>
<event>
12    3  0.1182097E-007  0.3605355E+03  0.7818608E-02  0.1058372E+00
          1   -1    0    0  501    0  0.00000000000E+00  0.00000000000E+00  0.13346736339E+04  0.13346736339E+04  0.00000000000E+00 0. -1.
         -2   -1    0    0    0  501 -0.00000000000E+00 -0.00000000000E+00 -0.28244261732E+03  0.28244261732E+03  0.00000000000E+00 0.  1.
        -24    2    1    2    0    0  0.71170787153E+02 -0.16410101336E+03  0.96505811786E+03  0.98478590883E+03  0.80446826240E+02 0.  0.
    5000000    2    1    2    0    0 -0.71170787153E+02  0.16410101336E+03  0.87172898687E+02  0.63233034235E+03  0.60020673444E+03 0.  0.
        -24    2    4    4    0    0  0.56350539369E+02 -0.15326832105E+03 -0.12412909110E+03  0.22237464216E+03  0.85882994193E+02 0.  0.
         24    2    4    4    0    0 -0.12752132652E+03  0.31736933442E+03  0.21130198979E+03  0.40995570019E+03  0.80188291458E+02 0.  0.
         13    1    3    3    0    0  0.73318650400E+02 -0.76768220672E+02  0.44841578987E+03  0.46080983584E+03  0.00000000000E+00 0. -1.
        -14    1    3    3    0    0 -0.21478632471E+01 -0.87332792689E+02  0.51664232800E+03  0.52397607300E+03  0.00000000000E+00 0.  1.
         15    1    5    5    0    0  0.55360044047E+02 -0.50273827828E+02 -0.82276282285E+02  0.11119683717E+03  0.17770000000E+01 0. -1.
        -16    1    5    5    0    0  0.99049532202E+00 -0.10299449323E+03 -0.41852808816E+02  0.11117780499E+03  0.00000000000E+00 0.  1.
          4    1    6    6  502    0 -0.99769612683E+02  0.15032185452E+03  0.89744643696E+02  0.20150617021E+03  0.00000000000E+00 0. -1.
         -3    1    6    6    0  502 -0.27751713839E+02  0.16704747989E+03  0.12155734609E+03  0.20844952998E+03  0.00000000000E+00 0.  1.
<mgrwt>
<rscale>  0 0.36053547E+03</rscale>
<asrwt>0</asrwt>
<pdfrwt beam="1">  1        1 0.20533440E+00 0.36053547E+03</pdfrwt>
<pdfrwt beam="2">  1       -2 0.43452711E-01 0.36053547E+03</pdfrwt>
<totfact> 0.40881684E+01</totfact>
</mgrwt>
</event>
<event>
12    3  0.1182097E-007  0.5134458E+03  0.7818608E-02  0.1010328E+00
         -2   -1    0    0    0  501 -0.00000000000E+00  0.00000000000E+00  0.40851499635E+03  0.40851499635E+03  0.00000000000E+00 0.  1.
          1   -1    0    0  501    0  0.00000000000E+00 -0.00000000000E+00 -0.99117482029E+03  0.99117482029E+03  0.00000000000E+00 0. -1.
        -24    2    1    2    0    0 -0.10980507503E+03 -0.47222368988E+03 -0.31093471920E+03  0.58161665400E+03  0.80902192883E+02 0.  0.
    5000000    2    1    2    0    0  0.10980507503E+03  0.47222368988E+03 -0.27172510474E+03  0.81807316265E+03  0.60029725896E+03 0.  0.
        -24    2    4    4    0    0  0.36652219898E+02  0.20231176018E+02 -0.33748407324E+03  0.34872653878E+03  0.77214075450E+02 0.  0.
         24    2    4    4    0    0  0.73152855135E+02  0.45199251386E+03  0.65758968507E+02  0.46934662387E+03  0.79457149445E+02 0.  0.
         13    1    3    3    0    0 -0.35894926274E+02 -0.11831077717E+03 -0.12193255999E+03  0.17364744430E+03  0.00000000000E+00 0. -1.
        -14    1    3    3    0    0 -0.73910148759E+02 -0.35391291271E+03 -0.18900215922E+03  0.40796920969E+03  0.00000000000E+00 0.  1.
         15    1    5    5    0    0  0.24276690389E+02 -0.23308186696E+02 -0.73086767548E+02  0.80482684988E+02  0.17770000000E+01 0. -1.
        -16    1    5    5    0    0  0.12375529509E+02  0.43539362714E+02 -0.26439730570E+03  0.26824385379E+03  0.00000000000E+00 0.  1.
          2    1    6    6  502    0  0.35454488241E+02  0.37838272002E+03  0.70438205027E+02  0.38651267026E+03  0.00000000000E+00 0. -1.
         -1    1    6    6    0  502  0.37698366894E+02  0.73609793846E+02 -0.46792365202E+01  0.82833953611E+02  0.00000000000E+00 0.  1.
<mgrwt>
<rscale>  0 0.51344575E+03</rscale>
<asrwt>0</asrwt>
<pdfrwt beam="1">  1        1 0.15248843E+00 0.51344575E+03</pdfrwt>
<pdfrwt beam="2">  1       -2 0.62848462E-01 0.51344575E+03</pdfrwt>
<totfact> 0.33233125E+01</totfact>
</mgrwt>
</event>
<event>
12    3  0.1182097E-007  0.9751005E+03  0.7818608E-02  0.9336284E-01
          1   -1    0    0  501    0  0.00000000000E+00  0.00000000000E+00  0.73017043343E+03  0.73017043343E+03  0.00000000000E+00 0. -1.
         -2   -1    0    0    0  501 -0.00000000000E+00 -0.00000000000E+00 -0.15649177338E+04  0.15649177338E+04  0.00000000000E+00 0.  1.
        -24    2    1    2    0    0 -0.15285236351E+03  0.90142157897E+03  0.26847485009E+01  0.91772720398E+03  0.79317746966E+02 0.  0.
    5000000    2    1    2    0    0  0.15285236351E+03 -0.90142157897E+03 -0.83743204889E+03  0.13773609633E+04  0.59992172705E+03 0.  0.
        -24    2    4    4    0    0  0.17769232017E+03 -0.55514558634E+02 -0.33044886869E+03  0.38759301991E+03  0.79846524033E+02 0.  0.
         24    2    4    4    0    0 -0.24839956659E+02 -0.84590702034E+03 -0.50698318020E+03  0.98976794336E+03  0.80205524769E+02 0.  0.
         11    1    3    3    0    0 -0.77183868844E+02  0.49739227332E+03 -0.37344809675E+02  0.50472869740E+03  0.00000000000E+00 0. -1.
        -12    1    3    3    0    0 -0.75668494666E+02  0.40402930565E+03  0.40029558176E+02  0.41299850658E+03  0.00000000000E+00 0.  1.
         15    1    5    5    0    0  0.58394576234E+02 -0.23440045735E+02 -0.47521677861E+02  0.78872237659E+02  0.17770000000E+01 0. -1.
        -16    1    5    5    0    0  0.11929774394E+03 -0.32074512899E+02 -0.28292719083E+03  0.30872078226E+03  0.00000000000E+00 0.  1.
          4    1    6    6  502    0  0.24431789885E+02 -0.19011303375E+03 -0.97335081610E+02  0.21497440795E+03  0.00000000000E+00 0. -1.
         -3    1    6    6    0  502 -0.49271746545E+02 -0.65579398658E+03 -0.40964809859E+03  0.77479353542E+03  0.00000000000E+00 0.  1.
<mgrwt>
<rscale>  0 0.97510047E+03</rscale>
<asrwt>0</asrwt>
<pdfrwt beam="1">  1        1 0.11233391E+00 0.97510047E+03</pdfrwt>
<pdfrwt beam="2">  1       -2 0.24075657E+00 0.97510047E+03</pdfrwt>
<totfact> 0.16456895E+00</totfact>
</mgrwt>
</event>
<event>
12    3  0.1182097E-007  0.1558791E+04  0.7818608E-02  0.8846272E-01
          1   -1    0    0  501    0  0.00000000000E+00  0.00000000000E+00  0.72017854316E+03  0.72017854316E+03  0.00000000000E+00 0. -1.
         -2   -1    0    0    0  501 -0.00000000000E+00 -0.00000000000E+00 -0.35803407124E+04  0.35803407124E+04  0.00000000000E+00 0.  1.
        -24    2    1    2    0    0  0.46053427980E+03  0.14465530621E+04 -0.97192590605E+03  0.18044740607E+04  0.82940246500E+02 0.  0.
    5000000    2    1    2    0    0 -0.46053427980E+03 -0.14465530621E+04 -0.18882362632E+04  0.24960451949E+04  0.60016484823E+03 0.  0.
        -24    2    4    4    0    0 -0.44430752565E+03 -0.58458400155E+03 -0.11011148359E+04  0.13258846006E+04  0.79802631611E+02 0.  0.
         24    2    4    4    0    0 -0.16226754142E+02 -0.86196906053E+03 -0.78712142736E+03  0.11701605944E+04  0.80384739422E+02 0.  0.
         11    1    3    3    0    0  0.32404188792E+03  0.89385680325E+03 -0.59122276185E+03  0.11196104162E+04  0.00000000000E+00 0. -1.
        -12    1    3    3    0    0  0.13649239188E+03  0.55269625883E+03 -0.38070314420E+03  0.68486364451E+03  0.00000000000E+00 0.  1.
         15    1    5    5    0    0 -0.88248726512E+02 -0.13571464995E+03 -0.30119121806E+03  0.34194387187E+03  0.17770000000E+01 0. -1.
        -16    1    5    5    0    0 -0.35605879914E+03 -0.44886935161E+03 -0.79992361780E+03  0.98394072869E+03  0.00000000000E+00 0.  1.
          4    1    6    6  502    0  0.92087060298E+01 -0.23969685418E+03 -0.26519848559E+03  0.35758861689E+03  0.00000000000E+00 0. -1.
         -3    1    6    6    0  502 -0.25435460172E+02 -0.62227220635E+03 -0.52192294177E+03  0.81257197747E+03  0.00000000000E+00 0.  1.
<mgrwt>
<rscale>  0 0.15587905E+04</rscale>
<asrwt>0</asrwt>
<pdfrwt beam="1">  1        1 0.11079670E+00 0.15587905E+04</pdfrwt>
<pdfrwt beam="2">  1       -2 0.55082165E+00 0.15587905E+04</pdfrwt>
<totfact> 0.17943699E-02</totfact>
</mgrwt>
</event>
<event>
12    3  0.1661818E-007  0.8281522E+03  0.7818608E-02  0.9520139E-01
         -2   -1    0    0    0  501 -0.00000000000E+00  0.00000000000E+00  0.47021772128E+03  0.47021772128E+03  0.00000000000E+00 0.  1.
          1   -1    0    0  501    0  0.00000000000E+00 -0.00000000000E+00 -0.19203347658E+04  0.19203347658E+04  0.00000000000E+00 0. -1.
        -24    2    1    2    0    0 -0.40475282359E+03 -0.71114941539E+03 -0.34862053106E+03  0.89295116173E+03  0.79165417633E+02 0.  0.
    5000000    2    1    2    0    0  0.40475282359E+03  0.71114941539E+03 -0.11014965134E+04  0.14976013253E+04  0.59996401665E+03 0.  0.
        -24    2    4    4    0    0  0.21189286643E+03  0.26004129326E+03 -0.89538243034E+03  0.95953268987E+03  0.80456356668E+02 0.  0.
         24    2    4    4    0    0  0.19285995716E+03  0.45110812213E+03 -0.20611408310E+03  0.53806863545E+03  0.79632532750E+02 0.  0.
         13    1    3    3    0    0 -0.17906390440E+03 -0.38601393832E+03 -0.19996084848E+03  0.47016484701E+03  0.00000000000E+00 0. -1.
        -14    1    3    3    0    0 -0.22568891918E+03 -0.32513547707E+03 -0.14865968258E+03  0.42278631472E+03  0.00000000000E+00 0.  1.
         15    1    5    5    0    0  0.14945861704E+03  0.12469695123E+03 -0.54709145409E+03  0.58068875029E+03  0.17770000000E+01 0. -1.
        -16    1    5    5    0    0  0.62434249394E+02  0.13534434203E+03 -0.34829097625E+03  0.37884393957E+03  0.00000000000E+00 0.  1.
          2    1    6    6  502    0  0.10884061867E+03  0.22168307795E+03 -0.62830911917E+02  0.25482815938E+03  0.00000000000E+00 0. -1.
         -1    1    6    6    0  502  0.84019338487E+02  0.22942504418E+03 -0.14328317118E+03  0.28324047606E+03  0.00000000000E+00 0.  1.
<mgrwt>
<rscale>  0 0.82815220E+03</rscale>
<asrwt>0</asrwt>
<pdfrwt beam="1">  1        1 0.29543612E+00 0.82815220E+03</pdfrwt>
<pdfrwt beam="2">  1       -2 0.72341188E-01 0.82815220E+03</pdfrwt>
<totfact> 0.52752804E+00</totfact>
</mgrwt>
</event>
<event>
12    3  0.1182097E-007  0.6847706E+03  0.7818608E-02  0.9743637E-01
          1   -1    0    0  501    0  0.00000000000E+00  0.00000000000E+00  0.23429290825E+04  0.23429290825E+04  0.00000000000E+00 0. -1.
         -2   -1    0    0    0  501 -0.00000000000E+00 -0.00000000000E+00 -0.28517706138E+03  0.28517706138E+03  0.00000000000E+00 0.  1.
        -24    2    1    2    0    0  0.56872404725E+03  0.97158093054E+02  0.24193866899E+03  0.63062372752E+03  0.79153200735E+02 0.  0.
    5000000    2    1    2    0    0 -0.56872404725E+03 -0.97158093054E+02  0.18158133522E+04  0.19974824164E+04  0.59989260453E+03 0.  0.
        -24    2    4    4    0    0 -0.44703073338E+03 -0.29967129566E+03  0.93705511742E+03  0.10836013459E+04  0.80499823853E+02 0.  0.
         24    2    4    4    0    0 -0.12169331387E+03  0.20251320261E+03  0.87875823476E+03  0.91388107055E+03  0.84508674619E+02 0.  0.
         11    1    3    3    0    0  0.45107857094E+03  0.83924762290E+02  0.22503964818E+03  0.51103628652E+03  0.00000000000E+00 0. -1.
        -12    1    3    3    0    0  0.11764547631E+03  0.13233330764E+02  0.16899020806E+02  0.11958744100E+03  0.00000000000E+00 0.  1.
         15    1    5    5    0    0  0.21929938133E+01 -0.18113817855E+01  0.10829524899E+01  0.35243213436E+01  0.17770000000E+01 0.  1.
        -16    1    5    5    0    0 -0.44922372720E+03 -0.29785991388E+03  0.93597216493E+03  0.10800770245E+04  0.00000000000E+00 0.  1.
          2    1    6    6  502    0 -0.10867250633E+02  0.94840983071E+02  0.37484800217E+03  0.38681253074E+03  0.00000000000E+00 0. -1.
         -1    1    6    6    0  502 -0.11082606324E+03  0.10767221954E+03  0.50391023258E+03  0.52706853981E+03  0.00000000000E+00 0.  1.
<mgrwt>
<rscale>  0 0.68477064E+03</rscale>
<asrwt>0</asrwt>
<pdfrwt beam="1">  1        1 0.36045062E+00 0.68477064E+03</pdfrwt>
<pdfrwt beam="2">  1       -2 0.43873396E-01 0.68477064E+03</pdfrwt>
<totfact> 0.79784000E+00</totfact>
</mgrwt>
</event>
<event>
12    3  0.1182097E-007  0.4173781E+03  0.7818608E-02  0.1037923E+00
         -2   -1    0    0    0  501 -0.00000000000E+00  0.00000000000E+00  0.17703200480E+03  0.17703200480E+03  0.00000000000E+00 0.  1.
          1   -1    0    0  501    0  0.00000000000E+00 -0.00000000000E+00 -0.16191764903E+04  0.16191764903E+04  0.00000000000E+00 0. -1.
        -24    2    1    2    0    0  0.10579005382E+03 -0.30812724159E+03 -0.23786511726E+03  0.41187297521E+03  0.83220197056E+02 0.  0.
    5000000    2    1    2    0    0 -0.10579005382E+03  0.30812724159E+03 -0.12042793683E+04  0.13843355199E+04  0.59996841780E+03 0.  0.
        -24    2    4    4    0    0 -0.15594366663E+03 -0.35166980678E+02 -0.60945940454E+02  0.18694430757E+03  0.75356637272E+02 0.  0.
         24    2    4    4    0    0  0.50153612811E+02  0.34329422227E+03 -0.11433334278E+04  0.11973912123E+04  0.78537127043E+02 0.  0.
         13    1    3    3    0    0  0.29808552121E+02 -0.11496272760E+03 -0.13630799052E+03  0.18078950964E+03  0.00000000000E+00 0. -1.
        -14    1    3    3    0    0  0.75981501702E+02 -0.19316451399E+03 -0.10155712675E+03  0.23108346557E+03  0.00000000000E+00 0.  1.
         15    1    5    5    0    0 -0.89269646160E+02 -0.29003564023E+02 -0.72984440904E+02  0.11891241649E+03  0.17770000000E+01 0. -1.
        -16    1    5    5    0    0 -0.66674020474E+02 -0.61634166550E+01  0.12038500450E+02  0.68031891081E+02  0.00000000000E+00 0.  1.
          4    1    6    6  502    0  0.24413100923E+02  0.23530009534E+03 -0.64970443271E+03  0.69143183630E+03  0.00000000000E+00 0. -1.
         -1    1    6    6    0  502  0.25740511888E+02  0.10799412693E+03 -0.49362899509E+03  0.50595937603E+03  0.00000000000E+00 0.  1.
<mgrwt>
<rscale>  0 0.41737806E+03</rscale>
<asrwt>0</asrwt>
<pdfrwt beam="1">  1        1 0.24910408E+00 0.41737806E+03</pdfrwt>
<pdfrwt beam="2">  1       -2 0.27235693E-01 0.41737806E+03</pdfrwt>
<totfact> 0.62535148E+01</totfact>
</mgrwt>
</event>
<event>
12    3  0.1787788E-007  0.5984098E+03  0.7818608E-02  0.9908711E-01
         -2   -1    0    0    0  501 -0.00000000000E+00  0.00000000000E+00  0.60800773880E+03  0.60800773880E+03  0.00000000000E+00 0.  1.
          1   -1    0    0  501    0  0.00000000000E+00 -0.00000000000E+00 -0.68477801912E+03  0.68477801912E+03  0.00000000000E+00 0. -1.
        -24    2    1    2    0    0  0.19769049046E+03  0.44366729697E+03  0.96597886937E+02  0.50131095907E+03  0.77841669477E+02 0.  0.
    5000000    2    1    2    0    0 -0.19769049046E+03 -0.44366729697E+03 -0.17336816726E+03  0.79147479885E+03  0.60037791047E+03 0.  0.
        -24    2    4    4    0    0  0.13302412347E+03  0.24214219431E+02 -0.14263570231E+03  0.21241470063E+03  0.80581112065E+02 0.  0.
         24    2    4    4    0    0 -0.33071461394E+03 -0.46788151640E+03 -0.30732464947E+02  0.57906009822E+03  0.77979764604E+02 0.  0.
         13    1    3    3    0    0  0.11155298682E+03  0.19918000165E+03  0.78703057228E+02  0.24147652710E+03  0.00000000000E+00 0. -1.
        -14    1    3    3    0    0  0.86137503648E+02  0.24448729532E+03  0.17894829709E+02  0.25983443197E+03  0.00000000000E+00 0.  1.
         15    1    5    5    0    0  0.10156196459E+03  0.20576541968E+02 -0.51097726863E+02  0.11555242166E+03  0.17770000000E+01 0. -1.
        -16    1    5    5    0    0  0.31462158882E+02  0.36376774633E+01 -0.91537975451E+02  0.96862278977E+02  0.00000000000E+00 0.  1.
          4    1    6    6  502    0 -0.12536941233E+03 -0.20686897716E+03  0.21603689479E+02  0.24285588866E+03  0.00000000000E+00 0. -1.
         -1    1    6    6    0  502 -0.20534520161E+03 -0.26101253924E+03 -0.52336154426E+02  0.33620420956E+03  0.00000000000E+00 0.  1.
<mgrwt>
<rscale>  0 0.59840980E+03</rscale>
<asrwt>0</asrwt>
<pdfrwt beam="1">  1        1 0.10535047E+00 0.59840980E+03</pdfrwt>
<pdfrwt beam="2">  1       -2 0.93539652E-01 0.59840980E+03</pdfrwt>
<totfact> 0.24677278E+01</totfact>
</mgrwt>
</event>
<event>
12    3  0.1182097E-007  0.4188993E+03  0.7818608E-02  0.1037425E+00
          1   -1    0    0  501    0  0.00000000000E+00  0.00000000000E+00  0.90553975506E+03  0.90553975506E+03  0.00000000000E+00 0. -1.
         -2   -1    0    0    0  501 -0.00000000000E+00 -0.00000000000E+00 -0.30052697036E+03  0.30052697036E+03  0.00000000000E+00 0.  1.
        -24    2    1    2    0    0  0.31542506959E+03  0.91696732843E+02  0.31941463002E+03  0.46477846494E+03  0.78051587204E+02 0.  0.
    5000000    2    1    2    0    0 -0.31542506959E+03 -0.91696732843E+02  0.28559815468E+03  0.74128826047E+03  0.60003392722E+03 0.  0.
        -24    2    4    4    0    0 -0.16512785182E+03 -0.23447817173E+03  0.39443034772E+03  0.49310279926E+03  0.72992129488E+02 0.  0.
         24    2    4    4    0    0 -0.15029721777E+03  0.14278143889E+03 -0.10883219304E+03  0.24818546121E+03  0.82315150211E+02 0.  0.
         13    1    3    3    0    0  0.45057843167E+02  0.44092637259E+02  0.56265976246E+02  0.84499881505E+02  0.00000000000E+00 0. -1.
        -14    1    3    3    0    0  0.27036722642E+03  0.47604095584E+02  0.26314865377E+03  0.38027858344E+03  0.00000000000E+00 0.  1.
         15    1    5    5    0    0 -0.10162612337E+03 -0.18939982205E+03  0.25602983872E+03  0.33429716958E+03  0.17770000000E+01 0. -1.
        -16    1    5    5    0    0 -0.63501728453E+02 -0.45078349681E+02  0.13840050900E+03  0.15880562968E+03  0.00000000000E+00 0.  1.
          4    1    6    6  502    0 -0.37074039406E+02  0.31474293511E+02  0.10271207492E+02  0.49705263838E+02  0.00000000000E+00 0. -1.
         -3    1    6    6    0  502 -0.11322317836E+03  0.11130714538E+03 -0.11910340053E+03  0.19848019737E+03  0.00000000000E+00 0.  1.
<mgrwt>
<rscale>  0 0.41889926E+03</rscale>
<asrwt>0</asrwt>
<pdfrwt beam="1">  1        1 0.13931381E+00 0.41889926E+03</pdfrwt>
<pdfrwt beam="2">  1       -2 0.46234919E-01 0.41889926E+03</pdfrwt>
<totfact> 0.73773726E+01</totfact>
</mgrwt>
</event>
<event>
12    3  0.1182097E-007  0.1103016E+04  0.7818608E-02  0.9202257E-01
          1   -1    0    0  501    0  0.00000000000E+00  0.00000000000E+00  0.15468643186E+04  0.15468643186E+04  0.00000000000E+00 0. -1.
         -2   -1    0    0    0  501 -0.00000000000E+00 -0.00000000000E+00 -0.82425027652E+03  0.82425027652E+03  0.00000000000E+00 0.  1.
        -24    2    1    2    0    0 -0.60047347525E+03  0.83276945118E+03  0.11647637496E+03  0.10364358742E+04  0.80989024840E+02 0.  0.
    5000000    2    1    2    0    0  0.60047347525E+03 -0.83276945118E+03  0.60613766712E+03  0.13346787209E+04  0.59990921251E+03 0.  0.
        -24    2    4    4    0    0 -0.64761826866E+02  0.11244522056E+02  0.12772420529E+02  0.10448549282E+03  0.80209413341E+02 0.  0.
         24    2    4    4    0    0  0.66523530211E+03 -0.84401397324E+03  0.59336524659E+03  0.12301932281E+04  0.79971672336E+02 0.  0.
         13    1    3    3    0    0 -0.31548177597E+03  0.49455807410E+03  0.44005198327E+02  0.58826260897E+03  0.00000000000E+00 0. -1.
        -14    1    3    3    0    0 -0.28499169927E+03  0.33821137708E+03  0.72471176636E+02  0.44817326525E+03  0.00000000000E+00 0.  1.
         15    1    5    5    0    0 -0.15009361649E+02  0.41549510992E+02  0.13490906768E+02  0.46225589182E+02  0.17770000000E+01 0. -1.
        -16    1    5    5    0    0 -0.49752465217E+02 -0.30304988935E+02 -0.71848623973E+00  0.58259903639E+02  0.00000000000E+00 0.  1.
          2    1    6    6  502    0  0.53774240784E+03 -0.67884183881E+03  0.44107632323E+03  0.97187522976E+03  0.00000000000E+00 0. -1.
         -1    1    6    6    0  502  0.12749289427E+03 -0.16517213443E+03  0.15228892337E+03  0.25831799833E+03  0.00000000000E+00 0.  1.
<mgrwt>
<rscale>  0 0.11030165E+04</rscale>
<asrwt>0</asrwt>
<pdfrwt beam="1">  1        1 0.23797912E+00 0.11030165E+04</pdfrwt>
<pdfrwt beam="2">  1       -2 0.12680774E+00 0.11030165E+04</pdfrwt>
<totfact> 0.24329672E+00</totfact>
</mgrwt>
</event>
<event>
12    3  0.1182097E-007  0.4168744E+03  0.7818608E-02  0.1038088E+00
         -2   -1    0    0    0  501 -0.00000000000E+00  0.00000000000E+00  0.67747024708E+03  0.67747024708E+03  0.00000000000E+00 0.  1.
          1   -1    0    0  501    0  0.00000000000E+00 -0.00000000000E+00 -0.52827159679E+03  0.52827159679E+03  0.00000000000E+00 0. -1.
        -24    2    1    2    0    0  0.44276780852E+02  0.35409768152E+03  0.32136697589E+03  0.48675727630E+03  0.79437468816E+02 0.  0.
    5000000    2    1    2    0    0 -0.44276780852E+02 -0.35409768152E+03 -0.17216832561E+03  0.71898456758E+03  0.59995939420E+03 0.  0.
        -24    2    4    4    0    0 -0.16255482958E+03 -0.21568208870E+03  0.16427367186E+03  0.32720660819E+03  0.84471824706E+02 0.  0.
         24    2    4    4    0    0  0.11827804872E+03 -0.13841559282E+03 -0.33644199747E+03  0.39177795939E+03  0.84546902131E+02 0.  0.
         13    1    3    3    0    0  0.56294143630E+02  0.14452282201E+03  0.15007178363E+03  0.21581801809E+03  0.00000000000E+00 0. -1.
        -14    1    3    3    0    0 -0.12017362778E+02  0.20957485951E+03  0.17129519226E+03  0.27093925821E+03  0.00000000000E+00 0.  1.
         15    1    5    5    0    0 -0.89635775415E+02 -0.17410190216E+03  0.91672695099E+02  0.21622461776E+03  0.17770000000E+01 0. -1.
        -16    1    5    5    0    0 -0.72919054160E+02 -0.41580186546E+02  0.72600976759E+02  0.11098199043E+03  0.00000000000E+00 0.  1.
          2    1    6    6  502    0  0.18631375420E+01 -0.29435670238E+02 -0.15307373948E+02  0.33230192011E+02  0.00000000000E+00 0. -1.
         -1    1    6    6    0  502  0.11641491118E+03 -0.10897992258E+03 -0.32113462352E+03  0.35854776738E+03  0.00000000000E+00 0.  1.
<mgrwt>
<rscale>  0 0.41687437E+03</rscale>
<asrwt>0</asrwt>
<pdfrwt beam="1">  1        1 0.81272553E-01 0.41687437E+03</pdfrwt>
<pdfrwt beam="2">  1       -2 0.10422619E+00 0.41687437E+03</pdfrwt>
<totfact> 0.28350783E+01</totfact>
</mgrwt>
</event>
<event>
12    3  0.1182097E-007  0.9708285E+03  0.7818608E-02  0.9341131E-01
          1   -1    0    0  501    0  0.00000000000E+00  0.00000000000E+00  0.42550894183E+04  0.42550894183E+04  0.00000000000E+00 0. -1.
         -2   -1    0    0    0  501 -0.00000000000E+00 -0.00000000000E+00 -0.23323733952E+03  0.23323733952E+03  0.00000000000E+00 0.  1.
        -24    2    1    2    0    0  0.15678418752E+03 -0.88965303319E+03  0.17579495096E+04  0.19780753652E+04  0.79573057286E+02 0.  0.
    5000000    2    1    2    0    0 -0.15678418752E+03  0.88965303319E+03  0.22639025692E+04  0.25102513926E+04  0.60003617407E+03 0.  0.
        -24    2    4    4    0    0  0.37431064424E+02  0.82982137706E+03  0.20066236514E+04  0.21732088176E+04  0.79331482235E+02 0.  0.
         24    2    4    4    0    0 -0.19421525194E+03  0.59831656132E+02  0.25727891778E+03  0.33704257497E+03  0.78140032301E+02 0.  0.
         11    1    3    3    0    0  0.94500144146E+02 -0.43958470470E+03  0.79571146605E+03  0.91395936839E+03  0.00000000000E+00 0. -1.
        -12    1    3    3    0    0  0.62284043374E+02 -0.45006832849E+03  0.96223804353E+03  0.10641159969E+04  0.00000000000E+00 0.  1.
         15    1    5    5    0    0 -0.22251782886E+02  0.38270539763E+03  0.92636880896E+03  0.10025571760E+04  0.17770000000E+01 0. -1.
        -16    1    5    5    0    0  0.59682847310E+02  0.44711597943E+03  0.10802548425E+04  0.11706516416E+04  0.00000000000E+00 0.  1.
          2    1    6    6  502    0 -0.70865099215E+02  0.20735945332E+02  0.15645302979E+03  0.17300113365E+03  0.00000000000E+00 0. -1.
         -1    1    6    6    0  502 -0.12335015273E+03  0.39095710800E+02  0.10082588799E+03  0.16404144132E+03  0.00000000000E+00 0.  1.
<mgrwt>
<rscale>  0 0.97082848E+03</rscale>
<asrwt>0</asrwt>
<pdfrwt beam="1">  1        1 0.65462909E+00 0.97082848E+03</pdfrwt>
<pdfrwt beam="2">  1       -2 0.35882671E-01 0.97082848E+03</pdfrwt>
<totfact> 0.38405674E-01</totfact>
</mgrwt>
</event>
<event>
12    3  0.1182097E-007  0.6100431E+03  0.7818608E-02  0.9884786E-01
          1   -1    0    0  501    0  0.00000000000E+00  0.00000000000E+00  0.23200143576E+04  0.23200143576E+04  0.00000000000E+00 0. -1.
         -2   -1    0    0    0  501 -0.00000000000E+00 -0.00000000000E+00 -0.19926446910E+03  0.19926446910E+03  0.00000000000E+00 0.  1.
        -24    2    1    2    0    0  0.27003705973E+02 -0.51218472739E+03  0.11945231145E+04  0.13023032188E+04  0.77754791710E+02 0.  0.
    5000000    2    1    2    0    0 -0.27003705973E+02  0.51218472739E+03  0.92622677404E+03  0.12169756079E+04  0.60005932885E+03 0.  0.
        -24    2    4    4    0    0  0.18733599738E+03  0.41526403244E+03  0.83128804110E+03  0.95134186222E+03  0.80452091275E+02 0.  0.
         24    2    4    4    0    0 -0.21433970336E+03  0.96920694948E+02  0.94938732949E+02  0.26563374567E+03  0.78821280645E+02 0.  0.
         13    1    3    3    0    0  0.40759357139E+02 -0.43520742235E+03  0.10618602060E+04  0.11483091582E+04  0.00000000000E+00 0. -1.
        -14    1    3    3    0    0 -0.13755651165E+02 -0.76977305040E+02  0.13266290850E+03  0.15399406067E+03  0.00000000000E+00 0.  1.
         15    1    5    5    0    0  0.12559221631E+02  0.89922663055E+01  0.62599477134E+02  0.64501528414E+02  0.17770000000E+01 0. -1.
        -16    1    5    5    0    0  0.17477677575E+03  0.40627176614E+03  0.76868856396E+03  0.88684033381E+03  0.00000000000E+00 0.  1.
          2    1    6    6  502    0 -0.16336874390E+03  0.35569722246E+02  0.52271134081E+02  0.17517654832E+03  0.00000000000E+00 0. -1.
         -1    1    6    6    0  502 -0.50970959456E+02  0.61350972702E+02  0.42667598868E+02  0.90457197350E+02  0.00000000000E+00 0.  1.
<mgrwt>
<rscale>  0 0.61004311E+03</rscale>
<asrwt>0</asrwt>
<pdfrwt beam="1">  1        1 0.35692527E+00 0.61004311E+03</pdfrwt>
<pdfrwt beam="2">  1       -2 0.30656074E-01 0.61004311E+03</pdfrwt>
<totfact> 0.16651050E+01</totfact>
</mgrwt>
</event>
<event>
12    3  0.1182097E-007  0.7081887E+03  0.7818608E-02  0.9703330E-01
          1   -1    0    0  501    0  0.00000000000E+00  0.00000000000E+00  0.70356232898E+03  0.70356232898E+03  0.00000000000E+00 0. -1.
         -2   -1    0    0    0  501 -0.00000000000E+00 -0.00000000000E+00 -0.76273342001E+03  0.76273342001E+03  0.00000000000E+00 0.  1.
        -24    2    1    2    0    0 -0.19680708803E+03  0.57349604440E+03  0.43827233924E+01  0.61131809895E+03  0.77845147532E+02 0.  0.
    5000000    2    1    2    0    0  0.19680708803E+03 -0.57349604440E+03 -0.63553814420E+02  0.85497765004E+03  0.59943052300E+03 0.  0.
        -24    2    4    4    0    0  0.36275752528E+03 -0.24407967251E+03 -0.14881438934E+03  0.46849821789E+03  0.78593568497E+02 0.  0.
         24    2    4    4    0    0 -0.16595043725E+03 -0.32941637189E+03  0.85260574916E+02  0.38647943216E+03  0.77732182220E+02 0.  0.
         13    1    3    3    0    0 -0.42075224211E+02  0.20585203768E+03  0.26798896116E+02  0.21181021397E+03  0.00000000000E+00 0. -1.
        -14    1    3    3    0    0 -0.15473186382E+03  0.36764400672E+03 -0.22416172724E+02  0.39950788498E+03  0.00000000000E+00 0.  1.
         15    1    5    5    0    0  0.23425187369E+03 -0.16294647502E+03 -0.57162692981E+02  0.29102615905E+03  0.17770000000E+01 0. -1.
        -16    1    5    5    0    0  0.12850565159E+03 -0.81133197484E+02 -0.91651696355E+02  0.17747205884E+03  0.00000000000E+00 0.  1.
          2    1    6    6  502    0 -0.68033875129E+02 -0.10377350232E+03  0.63921343255E+02  0.13958325857E+03  0.00000000000E+00 0. -1.
         -1    1    6    6    0  502 -0.97916562119E+02 -0.22564286957E+03  0.21339231661E+02  0.24689617359E+03  0.00000000000E+00 0.  1.
<mgrwt>
<rscale>  0 0.70818870E+03</rscale>
<asrwt>0</asrwt>
<pdfrwt beam="1">  1        1 0.10824036E+00 0.70818870E+03</pdfrwt>
<pdfrwt beam="2">  1       -2 0.11734360E+00 0.70818870E+03</pdfrwt>
<totfact> 0.13618879E+01</totfact>
</mgrwt>
</event>
<event>
12    3  0.1182097E-007  0.8899409E+03  0.7818608E-02  0.9438244E-01
          1   -1    0    0  501    0  0.00000000000E+00  0.00000000000E+00  0.18244901978E+04  0.18244901978E+04  0.00000000000E+00 0. -1.
         -2   -1    0    0    0  501 -0.00000000000E+00 -0.00000000000E+00 -0.56450329576E+03  0.56450329576E+03  0.00000000000E+00 0.  1.
        -24    2    1    2    0    0 -0.48804142314E+03 -0.65367232950E+03  0.10873400564E+04  0.13617072537E+04  0.80413317067E+02 0.  0.
    5000000    2    1    2    0    0  0.48804142314E+03  0.65367232950E+03  0.17264684562E+03  0.10272862398E+04  0.60003178263E+03 0.  0.
        -24    2    4    4    0    0  0.13784042051E+03 -0.57705978279E+02 -0.85226094844E+02  0.18982414288E+03  0.80248093579E+02 0.  0.
         24    2    4    4    0    0  0.35020100264E+03  0.71137830778E+03  0.25787294047E+03  0.83746209694E+03  0.78386678485E+02 0.  0.
         13    1    3    3    0    0 -0.70141849575E+02 -0.13072435641E+03  0.16266006333E+03  0.22015229415E+03  0.00000000000E+00 0. -1.
        -14    1    3    3    0    0 -0.41789957357E+03 -0.52294797309E+03  0.92467999308E+03  0.11415549596E+04  0.00000000000E+00 0.  1.
         15    1    5    5    0    0  0.36415528994E+01 -0.28128397894E+02 -0.57594742683E+00  0.28424586541E+02  0.17770000000E+01 0. -1.
        -16    1    5    5    0    0  0.13419886761E+03 -0.29577580385E+02 -0.84650147417E+02  0.16139955634E+03  0.00000000000E+00 0.  1.
          2    1    6    6  502    0  0.12868941547E+03  0.34401358941E+03  0.13367087189E+03  0.39086342544E+03  0.00000000000E+00 0. -1.
         -3    1    6    6    0  502  0.22151158717E+03  0.36736471837E+03  0.12420206857E+03  0.44659867151E+03  0.00000000000E+00 0.  1.
<mgrwt>
<rscale>  0 0.88994095E+03</rscale>
<asrwt>0</asrwt>
<pdfrwt beam="1">  1        1 0.28069080E+00 0.88994095E+03</pdfrwt>
<pdfrwt beam="2">  1       -2 0.86846662E-01 0.88994095E+03</pdfrwt>
<totfact> 0.40221439E+00</totfact>
</mgrwt>
</event>
<event>
12    3  0.1182097E-007  0.9859255E+03  0.7818608E-02  0.9324118E-01
          1   -1    0    0  501    0  0.00000000000E+00  0.00000000000E+00  0.76460663670E+03  0.76460663670E+03  0.00000000000E+00 0. -1.
         -2   -1    0    0    0  501 -0.00000000000E+00 -0.00000000000E+00 -0.15589507164E+04  0.15589507164E+04  0.00000000000E+00 0.  1.
        -24    2    1    2    0    0 -0.73523124619E+03 -0.57733676648E+03  0.32866737174E+02  0.93862958622E+03  0.77862381181E+02 0.  0.
    5000000    2    1    2    0    0  0.73523124619E+03  0.57733676648E+03 -0.82721081687E+03  0.13849277669E+04  0.59988703658E+03 0.  0.
        -24    2    4    4    0    0  0.47536351336E+03  0.97394057930E+02 -0.16716809965E+03  0.52510103892E+03  0.11103988105E+03 0.  0.
         24    2    4    4    0    0  0.25986773283E+03  0.47994270855E+03 -0.66004271722E+03  0.85982672797E+03  0.75956379065E+02 0.  0.
         13    1    3    3    0    0 -0.10169933468E+03 -0.11002239052E+03  0.21088582281E+02  0.15130237735E+03  0.00000000000E+00 0. -1.
        -14    1    3    3    0    0 -0.63353191152E+03 -0.46731437595E+03  0.11778154893E+02  0.78732720886E+03  0.00000000000E+00 0.  1.
         15    1    5    5    0    0  0.29252768034E+03  0.72526858662E+02 -0.47334225595E+02  0.30508404684E+03  0.17770000000E+01 0. -1.
        -16    1    5    5    0    0  0.18283583301E+03  0.24867199268E+02 -0.11983387406E+03  0.22001699208E+03  0.00000000000E+00 0.  1.
          2    1    6    6  502    0  0.69525066169E+02  0.18721043123E+03 -0.27748130269E+03  0.34187330069E+03  0.00000000000E+00 0. -1.
         -1    1    6    6    0  502  0.19034266667E+03  0.29273227732E+03 -0.38256141453E+03  0.51795342727E+03  0.00000000000E+00 0.  1.
<mgrwt>
<rscale>  0 0.98592549E+03</rscale>
<asrwt>0</asrwt>
<pdfrwt beam="1">  1        1 0.11763179E+00 0.98592549E+03</pdfrwt>
<pdfrwt beam="2">  1       -2 0.23983857E+00 0.98592549E+03</pdfrwt>
<totfact> 0.15494061E+00</totfact>
</mgrwt>
</event>
<event>
12    3  0.1182097E-007  0.8300675E+03  0.7818608E-02  0.9517487E-01
          1   -1    0    0  501    0  0.00000000000E+00  0.00000000000E+00  0.11621823917E+04  0.11621823917E+04  0.00000000000E+00 0. -1.
         -2   -1    0    0    0  501 -0.00000000000E+00 -0.00000000000E+00 -0.66952625561E+03  0.66952625561E+03  0.00000000000E+00 0.  1.
        -24    2    1    2    0    0 -0.50675796563E+03 -0.53269752200E+03  0.48164541199E+03  0.88272076509E+03  0.81506812950E+02 0.  0.
    5000000    2    1    2    0    0  0.50675796563E+03  0.53269752200E+03  0.11010724117E+02  0.94898788224E+03  0.59990539163E+03 0.  0.
        -24    2    4    4    0    0 -0.69303491885E+02  0.27478952788E+03  0.89609306705E+02  0.30791436676E+03  0.80431155592E+02 0.  0.
         24    2    4    4    0    0  0.57606145752E+03  0.25790799413E+03 -0.78598582588E+02  0.64107351548E+03  0.80213333029E+02 0.  0.
         13    1    3    3    0    0 -0.45895159700E+03 -0.47106501936E+03  0.45719519841E+03  0.80097832074E+03  0.00000000000E+00 0. -1.
        -14    1    3    3    0    0 -0.47806368633E+02 -0.61632502646E+02  0.24450213575E+02  0.81742444349E+02  0.00000000000E+00 0.  1.
         15    1    5    5    0    0 -0.83197081957E+02  0.25306530363E+03  0.69777151741E+02  0.27538302595E+03  0.17770000000E+01 0. -1.
        -16    1    5    5    0    0  0.13893590072E+02  0.21724224244E+02  0.19832154963E+02  0.32531340806E+02  0.00000000000E+00 0.  1.
          4    1    6    6  502    0  0.29801185404E+03  0.11286664506E+03 -0.75325965008E+02  0.32745067678E+03  0.00000000000E+00 0. -1.
         -3    1    6    6    0  502  0.27804960348E+03  0.14504134907E+03 -0.32726175795E+01  0.31362283871E+03  0.00000000000E+00 0.  1.
<mgrwt>
<rscale>  0 0.83006752E+03</rscale>
<asrwt>0</asrwt>
<pdfrwt beam="1">  1        1 0.17879729E+00 0.83006752E+03</pdfrwt>
<pdfrwt beam="2">  1       -2 0.10300404E+00 0.83006752E+03</pdfrwt>
<totfact> 0.78193989E+00</totfact>
</mgrwt>
</event>
<event>
12    3  0.1182097E-007  0.4880567E+03  0.7818608E-02  0.1016944E+00
          1   -1    0    0  501    0  0.00000000000E+00  0.00000000000E+00  0.21476828398E+03  0.21476828398E+03  0.00000000000E+00 0. -1.
         -2   -1    0    0    0  501 -0.00000000000E+00 -0.00000000000E+00 -0.13649236392E+04  0.13649236392E+04  0.00000000000E+00 0.  1.
        -24    2    1    2    0    0  0.11226048943E+03 -0.32869534448E+03 -0.21702784225E+03  0.41708776322E+03  0.78854745888E+02 0.  0.
    5000000    2    1    2    0    0 -0.11226048943E+03  0.32869534448E+03 -0.93312751297E+03  0.11626041599E+04  0.60023198041E+03 0.  0.
        -24    2    4    4    0    0  0.87277874358E+02 -0.11266780599E+03 -0.43006166518E+03  0.45970591891E+03  0.77878329286E+02 0.  0.
         24    2    4    4    0    0 -0.19953836378E+03  0.44136315048E+03 -0.50306584779E+03  0.70289824103E+03  0.79835460883E+02 0.  0.
         11    1    3    3    0    0  0.24898467815E+02 -0.75634189259E+02 -0.13437356532E+02  0.80752875088E+02  0.00000000000E+00 0. -1.
        -12    1    3    3    0    0  0.87362021612E+02 -0.25306115522E+03 -0.20359048571E+03  0.33633488814E+03  0.00000000000E+00 0.  1.
         15    1    5    5    0    0  0.81340809069E+02 -0.99319681321E+02 -0.42542882155E+03  0.44437997958E+03  0.17770000000E+01 0. -1.
        -16    1    5    5    0    0  0.59370652885E+01 -0.13348124671E+02 -0.46328436279E+01  0.15325939336E+02  0.00000000000E+00 0.  1.
          2    1    6    6  502    0 -0.19301887834E+03  0.43751620208E+03 -0.47573037909E+03  0.67453399327E+03  0.00000000000E+00 0. -1.
         -1    1    6    6    0  502 -0.65194854432E+01  0.38469483935E+01 -0.27335468700E+02  0.28364247768E+02  0.00000000000E+00 0.  1.
<mgrwt>
<rscale>  0 0.48805668E+03</rscale>
<asrwt>0</asrwt>
<pdfrwt beam="1">  1        1 0.33041276E-01 0.48805668E+03</pdfrwt>
<pdfrwt beam="2">  1       -2 0.20998824E+00 0.48805668E+03</pdfrwt>
<totfact> 0.14245212E+01</totfact>
</mgrwt>
</event>
<event>
12    3  0.1182097E-007  0.3193450E+03  0.7818608E-02  0.1075951E+00
         -2   -1    0    0    0  501 -0.00000000000E+00  0.00000000000E+00  0.12978782378E+04  0.12978782378E+04  0.00000000000E+00 0.  1.
          1   -1    0    0  501    0  0.00000000000E+00 -0.00000000000E+00 -0.36543106595E+03  0.36543106595E+03  0.00000000000E+00 0. -1.
        -24    2    1    2    0    0  0.21822622121E+03  0.18377970999E+02  0.99454172260E+03  0.10215691302E+04  0.80807279236E+02 0.  0.
    5000000    2    1    2    0    0 -0.21822622121E+03 -0.18377970999E+02 -0.62094550806E+02  0.64174017349E+03  0.60001190287E+03 0.  0.
        -24    2    4    4    0    0 -0.26727050541E+03 -0.11796865749E+03 -0.26055428054E+03  0.39896605621E+03  0.77040597674E+02 0.  0.
         24    2    4    4    0    0  0.49044284199E+02  0.99590686489E+02  0.19845972973E+03  0.24277411728E+03  0.85025649341E+02 0.  0.
         13    1    3    3    0    0  0.16527627854E+03  0.34124870669E+02  0.60377685996E+03  0.62691885573E+03  0.00000000000E+00 0. -1.
        -14    1    3    3    0    0  0.52949942663E+02 -0.15746899670E+02  0.39076486264E+03  0.39465027449E+03  0.00000000000E+00 0.  1.
         15    1    5    5    0    0 -0.25214050377E+03 -0.12361058011E+03 -0.22472102697E+03  0.35966249019E+03  0.17770000000E+01 0. -1.
        -16    1    5    5    0    0 -0.15130001632E+02  0.56419226262E+01 -0.35833253569E+02  0.39303566017E+02  0.00000000000E+00 0.  1.
          4    1    6    6  502    0  0.40053472691E+02  0.37125180229E+02  0.15954084721E+03  0.16862930235E+03  0.00000000000E+00 0. -1.
         -3    1    6    6    0  502  0.89908115076E+01  0.62465506260E+02  0.38918882519E+02  0.74144814926E+02  0.00000000000E+00 0.  1.
<mgrwt>
<rscale>  0 0.31934495E+03</rscale>
<asrwt>0</asrwt>
<pdfrwt beam="1">  1        1 0.56220165E-01 0.31934495E+03</pdfrwt>
<pdfrwt beam="2">  1       -2 0.19967357E+00 0.31934495E+03</pdfrwt>
<totfact> 0.86556837E+00</totfact>
</mgrwt>
</event>
<event>
12    3  0.1182097E-007  0.1490857E+04  0.7818608E-02  0.8890556E-01
          1   -1    0    0  501    0  0.00000000000E+00  0.00000000000E+00  0.43917235487E+04  0.43917235487E+04  0.00000000000E+00 0. -1.
         -2   -1    0    0    0  501 -0.00000000000E+00 -0.00000000000E+00 -0.78978006432E+03  0.78978006432E+03  0.00000000000E+00 0.  1.
        -24    2    1    2    0    0 -0.34021382733E+03 -0.14138199048E+04  0.32616479237E+04  0.35720137820E+04  0.79392122541E+02 0.  0.
    5000000    2    1    2    0    0  0.34021382733E+03  0.14138199048E+04  0.34029556072E+03  0.16094898311E+04  0.60002022978E+03 0.  0.
        -24    2    4    4    0    0  0.19481367798E+02  0.46598502964E+01  0.12035008090E+03  0.14538498276E+03  0.79065879777E+02 0.  0.
         24    2    4    4    0    0  0.32073245954E+03  0.14091600545E+04  0.21994547982E+03  0.14641048483E+04  0.81397929492E+02 0.  0.
         11    1    3    3    0    0 -0.42992909128E+02 -0.18571359768E+03  0.49683355634E+03  0.53214801822E+03  0.00000000000E+00 0. -1.
        -12    1    3    3    0    0 -0.29722091821E+03 -0.12281063071E+04  0.27648143673E+04  0.30398657638E+04  0.00000000000E+00 0.  1.
         15    1    5    5    0    0  0.13679576759E+02  0.41071734412E+02  0.51650187935E+02  0.67416005746E+02  0.17770000000E+01 0. -1.
        -16    1    5    5    0    0  0.58017910390E+01 -0.36411884116E+02  0.68699892963E+02  0.77968977018E+02  0.00000000000E+00 0.  1.
          2    1    6    6  502    0  0.19618341166E+02  0.31210823381E+02  0.90532692530E+01  0.37959932697E+02  0.00000000000E+00 0. -1.
         -1    1    6    6    0  502  0.30111411837E+03  0.13779492311E+04  0.21089221057E+03  0.14261449156E+04  0.00000000000E+00 0.  1.
<mgrwt>
<rscale>  0 0.14908568E+04</rscale>
<asrwt>0</asrwt>
<pdfrwt beam="1">  1        1 0.67564976E+00 0.14908568E+04</pdfrwt>
<pdfrwt beam="2">  1       -2 0.12150463E+00 0.14908568E+04</pdfrwt>
<totfact> 0.18177527E-02</totfact>
</mgrwt>
</event>
<event>
12    3  0.1182097E-007  0.6101112E+03  0.7818608E-02  0.9884648E-01
          1   -1    0    0  501    0  0.00000000000E+00  0.00000000000E+00  0.58946067026E+03  0.58946067026E+03  0.00000000000E+00 0. -1.
         -2   -1    0    0    0  501 -0.00000000000E+00 -0.00000000000E+00 -0.68894533527E+03  0.68894533527E+03  0.00000000000E+00 0.  1.
        -24    2    1    2    0    0 -0.38284238408E+03 -0.28671754680E+03 -0.15426582662E+03  0.50913946178E+03  0.81546327835E+02 0.  0.
    5000000    2    1    2    0    0  0.38284238408E+03  0.28671754680E+03  0.54781161615E+02  0.76926654376E+03  0.59999566414E+03 0.  0.
        -24    2    4    4    0    0  0.40333131938E+03 -0.34323344843E+02 -0.51776278660E+02  0.41565635922E+03  0.78963160645E+02 0.  0.
         24    2    4    4    0    0 -0.20488935299E+02  0.32104089165E+03  0.10655744027E+03  0.35361018454E+03  0.10098823670E+03 0.  0.
         11    1    3    3    0    0 -0.16630584217E+03 -0.13804779213E+03 -0.11088458636E+03  0.24292018760E+03  0.00000000000E+00 0. -1.
        -12    1    3    3    0    0 -0.21653654191E+03 -0.14866975468E+03 -0.43381240262E+02  0.26621927418E+03  0.00000000000E+00 0.  1.
         15    1    5    5    0    0  0.56984847377E+02 -0.31043429395E+02 -0.19561056904E+02  0.67799410141E+02  0.17770000000E+01 0. -1.
        -16    1    5    5    0    0  0.34634647200E+03 -0.32799154479E+01 -0.32215221755E+02  0.34785694908E+03  0.00000000000E+00 0.  1.
          2    1    6    6  502    0 -0.48709017239E+02  0.19612715183E+03  0.99761795185E+02  0.22536824050E+03  0.00000000000E+00 0. -1.
         -1    1    6    6    0  502  0.28220081940E+02  0.12491373981E+03  0.67956450890E+01  0.12824194404E+03  0.00000000000E+00 0.  1.
<mgrwt>
<rscale>  0 0.61011116E+03</rscale>
<asrwt>0</asrwt>
<pdfrwt beam="1">  1        1 0.90686257E-01 0.61011116E+03</pdfrwt>
<pdfrwt beam="2">  1       -2 0.10599159E+00 0.61011116E+03</pdfrwt>
<totfact> 0.22824947E+01</totfact>
</mgrwt>
</event>
<event>
12    3  0.1182097E-007  0.5297076E+03  0.7818608E-02  0.1006303E+00
          1   -1    0    0  501    0  0.00000000000E+00  0.00000000000E+00  0.26436781452E+03  0.26436781452E+03  0.00000000000E+00 0. -1.
         -2   -1    0    0    0  501 -0.00000000000E+00 -0.00000000000E+00 -0.11515448565E+04  0.11515448565E+04  0.00000000000E+00 0.  1.
        -24    2    1    2    0    0 -0.16016068242E+03  0.34278213490E+03 -0.24055237933E+03  0.45604819840E+03  0.83447443740E+02 0.  0.
    5000000    2    1    2    0    0  0.16016068242E+03 -0.34278213490E+03 -0.64662466261E+03  0.95986447257E+03  0.60005442687E+03 0.  0.
        -24    2    4    4    0    0  0.36242007242E+03 -0.14626911702E+03 -0.26545662148E+03  0.47906830044E+03  0.79348945258E+02 0.  0.
         24    2    4    4    0    0 -0.20225938999E+03 -0.19651301788E+03 -0.38116804114E+03  0.48079617213E+03  0.79684732041E+02 0.  0.
         13    1    3    3    0    0 -0.78785912586E+02  0.16446612445E+03 -0.67102859184E+02  0.19431706005E+03  0.00000000000E+00 0. -1.
        -14    1    3    3    0    0 -0.81374769838E+02  0.17831601044E+03 -0.17344952014E+03  0.26173113836E+03  0.00000000000E+00 0.  1.
         15    1    5    5    0    0  0.14209258130E+03 -0.59234392729E+02 -0.15221510437E+03  0.21649852348E+03  0.17770000000E+01 0. -1.
        -16    1    5    5    0    0  0.22032749112E+03 -0.87034724289E+02 -0.11324151711E+03  0.26256977696E+03  0.00000000000E+00 0.  1.
          2    1    6    6  502    0 -0.42279986721E+02 -0.81401765204E+01 -0.83151869404E+02  0.93638096607E+02  0.00000000000E+00 0. -1.
         -1    1    6    6    0  502 -0.15997940327E+03 -0.18837284136E+03 -0.29801617173E+03  0.38715807553E+03  0.00000000000E+00 0.  1.
<mgrwt>
<rscale>  0 0.52970756E+03</rscale>
<asrwt>0</asrwt>
<pdfrwt beam="1">  1        1 0.40671971E-01 0.52970756E+03</pdfrwt>
<pdfrwt beam="2">  1       -2 0.17716075E+00 0.52970756E+03</pdfrwt>
<totfact> 0.17821442E+01</totfact>
</mgrwt>
</event>
<event>
12    3  0.1182097E-007  0.5300224E+03  0.7818608E-02  0.1006227E+00
         -2   -1    0    0    0  501 -0.00000000000E+00  0.00000000000E+00  0.32341582480E+03  0.32341582480E+03  0.00000000000E+00 0.  1.
          1   -1    0    0  501    0  0.00000000000E+00 -0.00000000000E+00 -0.93331194908E+03  0.93331194908E+03  0.00000000000E+00 0. -1.
        -24    2    1    2    0    0  0.11350147995E+03  0.36099666167E+03 -0.19294941778E+03  0.43392784223E+03  0.88671972791E+02 0.  0.
    5000000    2    1    2    0    0 -0.11350147995E+03 -0.36099666167E+03 -0.41694670650E+03  0.82279993164E+03  0.59996166191E+03 0.  0.
        -24    2    4    4    0    0  0.21599596943E+03 -0.11449574331E+03 -0.28370841743E+03  0.38309415242E+03  0.80666780338E+02 0.  0.
         24    2    4    4    0    0 -0.32949744939E+03 -0.24650091836E+03 -0.13323828907E+03  0.43970577922E+03  0.79104100424E+02 0.  0.
         13    1    3    3    0    0  0.30000624781E+02  0.23873977729E+03 -0.11900168206E+03  0.26843643397E+03  0.00000000000E+00 0. -1.
        -14    1    3    3    0    0  0.83500855174E+02  0.12225688437E+03 -0.73947735718E+02  0.16549140826E+03  0.00000000000E+00 0.  1.
         15    1    5    5    0    0  0.17187580879E+03 -0.59439561384E+02 -0.16811003859E+03  0.24766610166E+03  0.17770000000E+01 0. -1.
        -16    1    5    5    0    0  0.44120160640E+02 -0.55056181924E+02 -0.11559837884E+03  0.13542805076E+03  0.00000000000E+00 0.  1.
          4    1    6    6  502    0 -0.14490486148E+03 -0.60896371578E+02 -0.54217899030E+02  0.16626896141E+03  0.00000000000E+00 0. -1.
         -3    1    6    6    0  502 -0.18459258791E+03 -0.18560454678E+03 -0.79020390037E+02  0.27343681782E+03  0.00000000000E+00 0.  1.
<mgrwt>
<rscale>  0 0.53002235E+03</rscale>
<asrwt>0</asrwt>
<pdfrwt beam="1">  1        1 0.14358645E+00 0.53002235E+03</pdfrwt>
<pdfrwt beam="2">  1       -2 0.49756281E-01 0.53002235E+03</pdfrwt>
<totfact> 0.59688326E+01</totfact>
</mgrwt>
</event>
<event>
12    3  0.1182097E-007  0.4787053E+03  0.7818608E-02  0.1019492E+00
          1   -1    0    0  501    0  0.00000000000E+00  0.00000000000E+00  0.63793281985E+03  0.63793281985E+03  0.00000000000E+00 0. -1.
         -2   -1    0    0    0  501 -0.00000000000E+00 -0.00000000000E+00 -0.92479292088E+03  0.92479292088E+03  0.00000000000E+00 0.  1.
        -24    2    1    2    0    0 -0.12113147562E+03  0.43038792143E+03 -0.59859438192E+03  0.75164981525E+03  0.82192538645E+02 0.  0.
    5000000    2    1    2    0    0  0.12113147562E+03 -0.43038792143E+03  0.31173428088E+03  0.81107592548E+03  0.60063241481E+03 0.  0.
        -24    2    4    4    0    0 -0.21590226037E+02 -0.30384223996E+03  0.45927051589E+03  0.55681884044E+03  0.79571160959E+02 0.  0.
         24    2    4    4    0    0  0.14272170165E+03 -0.12654568146E+03 -0.14753623501E+03  0.25425708504E+03  0.80600440653E+02 0.  0.
         11    1    3    3    0    0 -0.42298100338E+02  0.28265323029E+03 -0.40491065450E+03  0.49561539122E+03  0.00000000000E+00 0. -1.
        -12    1    3    3    0    0 -0.78833375279E+02  0.14773469113E+03 -0.19368372741E+03  0.25603442403E+03  0.00000000000E+00 0.  1.
         15    1    5    5    0    0 -0.46526253687E+02 -0.16028247939E+03  0.27786174068E+03  0.32413804180E+03  0.17770000000E+01 0. -1.
        -16    1    5    5    0    0  0.24936027649E+02 -0.14355976057E+03  0.18140877521E+03  0.23268079864E+03  0.00000000000E+00 0.  1.
          4    1    6    6  502    0  0.12495602763E+02 -0.51764792423E+01 -0.48912242124E+02  0.50747841879E+02  0.00000000000E+00 0. -1.
         -3    1    6    6    0  502  0.13022609889E+03 -0.12136920222E+03 -0.98623992881E+02  0.20350924316E+03  0.00000000000E+00 0.  1.
<mgrwt>
<rscale>  0 0.47870529E+03</rscale>
<asrwt>0</asrwt>
<pdfrwt beam="1">  1        1 0.98143511E-01 0.47870529E+03</pdfrwt>
<pdfrwt beam="2">  1       -2 0.14227583E+00 0.47870529E+03</pdfrwt>
<totfact> 0.99932699E+00</totfact>
</mgrwt>
</event>
<event>
12    3  0.1182097E-007  0.3899835E+03  0.7818608E-02  0.1047304E+00
         -2   -1    0    0    0  501 -0.00000000000E+00  0.00000000000E+00  0.30949703920E+03  0.30949703920E+03  0.00000000000E+00 0.  1.
          1   -1    0    0  501    0  0.00000000000E+00 -0.00000000000E+00 -0.12685515621E+04  0.12685515621E+04  0.00000000000E+00 0. -1.
        -24    2    1    2    0    0  0.47912436415E+02 -0.27022341082E+03 -0.86575327966E+03  0.91173084063E+03  0.80050554075E+02 0.  0.
    5000000    2    1    2    0    0 -0.47912436415E+02  0.27022341082E+03 -0.93301243229E+02  0.66631776065E+03  0.59996495136E+03 0.  0.
        -24    2    4    4    0    0 -0.15003184770E+03 -0.37620786379E+02 -0.24448787064E+03  0.29983605437E+03  0.78755709093E+02 0.  0.
         24    2    4    4    0    0  0.10211941129E+03  0.30784419720E+03  0.15118662741E+03  0.36648170628E+03  0.79088689602E+02 0.  0.
         11    1    3    3    0    0 -0.43618206977E+01 -0.77129156125E+02 -0.15243507886E+03  0.17089290644E+03  0.00000000000E+00 0. -1.
        -12    1    3    3    0    0  0.52274257113E+02 -0.19309425469E+03 -0.71331820079E+03  0.74083793419E+03  0.00000000000E+00 0.  1.
         15    1    5    5    0    0 -0.30553837028E+02  0.22575983670E+02 -0.37749686972E+02  0.53585525949E+02  0.17770000000E+01 0. -1.
        -16    1    5    5    0    0 -0.11947801068E+03 -0.60196770049E+02 -0.20673818367E+03  0.24625052842E+03  0.00000000000E+00 0.  1.
          2    1    6    6  502    0  0.66801675906E+02  0.27367954650E+03  0.11022742526E+03  0.30251122848E+03  0.00000000000E+00 0. -1.
         -1    1    6    6    0  502  0.35317735383E+02  0.34164650696E+02  0.40959202149E+02  0.63970477804E+02  0.00000000000E+00 0.  1.
<mgrwt>
<rscale>  0 0.38998345E+03</rscale>
<asrwt>0</asrwt>
<pdfrwt beam="1">  1        1 0.19516178E+00 0.38998345E+03</pdfrwt>
<pdfrwt beam="2">  1       -2 0.47614928E-01 0.38998345E+03</pdfrwt>
<totfact> 0.37681926E+01</totfact>
</mgrwt>
</event>
<event>
12    3  0.1182097E-007  0.5509895E+03  0.7818608E-02  0.1001265E+00
         -2   -1    0    0    0  501 -0.00000000000E+00  0.00000000000E+00  0.10990082874E+03  0.10990082874E+03  0.00000000000E+00 0.  1.
          1   -1    0    0  501    0  0.00000000000E+00 -0.00000000000E+00 -0.28690416260E+04  0.28690416260E+04  0.00000000000E+00 0. -1.
        -24    2    1    2    0    0 -0.29029967608E+03 -0.26797132433E+03 -0.92169737739E+03  0.10060900859E+04  0.81293744269E+02 0.  0.
    5000000    2    1    2    0    0  0.29029967608E+03  0.26797132433E+03 -0.18374434199E+04  0.19728523688E+04  0.59988800237E+03 0.  0.
        -24    2    4    4    0    0  0.46016421734E+03  0.23369695466E+03 -0.14332714215E+04  0.15255213241E+04  0.81135498038E+02 0.  0.
         24    2    4    4    0    0 -0.16986454125E+03  0.34274369667E+02 -0.40417199833E+03  0.44733104470E+03  0.81983928471E+02 0.  0.
         11    1    3    3    0    0 -0.14582892152E+03 -0.82293972649E+02 -0.35552174589E+03  0.39298102255E+03  0.00000000000E+00 0. -1.
        -12    1    3    3    0    0 -0.14447075456E+03 -0.18567735168E+03 -0.56617563151E+03  0.61310906335E+03  0.00000000000E+00 0.  1.
         15    1    5    5    0    0  0.18854827138E+03  0.92103268369E+02 -0.46995527363E+03  0.51467910354E+03  0.17770000000E+01 0. -1.
        -16    1    5    5    0    0  0.27161594596E+03  0.14159368629E+03 -0.96331614789E+03  0.10108422206E+04  0.00000000000E+00 0.  1.
          4    1    6    6  502    0 -0.15220082310E+03  0.92462163211E+01 -0.27367535239E+03  0.31328705938E+03  0.00000000000E+00 0. -1.
         -3    1    6    6    0  502 -0.17663718148E+02  0.25028153346E+02 -0.13049664594E+03  0.13404398532E+03  0.00000000000E+00 0.  1.
<mgrwt>
<rscale>  0 0.55098949E+03</rscale>
<asrwt>0</asrwt>
<pdfrwt beam="1">  1        1 0.44139100E+00 0.55098949E+03</pdfrwt>
<pdfrwt beam="2">  1       -2 0.16907821E-01 0.55098949E+03</pdfrwt>
<totfact> 0.20384990E+01</totfact>
</mgrwt>
</event>
<event>
12    3  0.1182097E-007  0.8617866E+03  0.7818608E-02  0.9474652E-01
          1   -1    0    0  501    0  0.00000000000E+00  0.00000000000E+00  0.17625373320E+04  0.17625373320E+04  0.00000000000E+00 0. -1.
         -2   -1    0    0    0  501 -0.00000000000E+00 -0.00000000000E+00 -0.51189267537E+03  0.51189267537E+03  0.00000000000E+00 0.  1.
        -24    2    1    2    0    0  0.73293048012E+03 -0.25566159854E+03  0.14028155772E+03  0.79273261898E+03  0.78715615413E+02 0.  0.
    5000000    2    1    2    0    0 -0.73293048012E+03  0.25566159854E+03  0.11103630990E+04  0.14816973884E+04  0.59997583092E+03 0.  0.
        -24    2    4    4    0    0 -0.81139501288E+03  0.27232239225E+03  0.92548999522E+03  0.12631398137E+04  0.80430749419E+02 0.  0.
         24    2    4    4    0    0  0.78464532765E+02 -0.16660793716E+02  0.18487310374E+03  0.21855757473E+03  0.84587729811E+02 0.  0.
         11    1    3    3    0    0  0.23811449309E+03 -0.11870022634E+03  0.31555371807E+02  0.26792535723E+03  0.00000000000E+00 0. -1.
        -12    1    3    3    0    0  0.49481598703E+03 -0.13696137219E+03  0.10872618591E+03  0.52480726176E+03  0.00000000000E+00 0.  1.
         15    1    5    5    0    0 -0.59831916795E+02  0.40557213247E+02  0.94349637592E+02  0.11886865717E+03  0.17770000000E+01 0. -1.
        -16    1    5    5    0    0 -0.75156309609E+03  0.23176517900E+03  0.83114035763E+03  0.11442711565E+04  0.00000000000E+00 0.  1.
          2    1    6    6  502    0  0.36069604972E+02  0.70100815930E+01  0.11482782957E+02  0.38496908333E+02  0.00000000000E+00 0. -1.
         -1    1    6    6    0  502  0.42394927793E+02 -0.23670875309E+02  0.17339032079E+03  0.18006066640E+03  0.00000000000E+00 0.  1.
<mgrwt>
<rscale>  0 0.86178665E+03</rscale>
<asrwt>0</asrwt>
<pdfrwt beam="1">  1        1 0.27115959E+00 0.86178665E+03</pdfrwt>
<pdfrwt beam="2">  1       -2 0.78752720E-01 0.86178665E+03</pdfrwt>
<totfact> 0.55487068E+00</totfact>
</mgrwt>
</event>
<event>
12    3  0.1182097E-007  0.5277967E+03  0.7818608E-02  0.1006768E+00
          1   -1    0    0  501    0  0.00000000000E+00  0.00000000000E+00  0.51855434834E+03  0.51855434834E+03  0.00000000000E+00 0. -1.
         -2   -1    0    0    0  501 -0.00000000000E+00 -0.00000000000E+00 -0.63302091977E+03  0.63302091977E+03  0.00000000000E+00 0.  1.
        -24    2    1    2    0    0 -0.40406888615E+03 -0.65680996314E+02 -0.75243263018E+02  0.42396703388E+03  0.80627781553E+02 0.  0.
    5000000    2    1    2    0    0  0.40406888615E+03  0.65680996314E+02 -0.39223308411E+02  0.72760823424E+03  0.60024129863E+03 0.  0.
        -24    2    4    4    0    0  0.40700895343E+03 -0.13789334252E+03  0.12469767118E+03  0.45429311300E+03  0.78497523758E+02 0.  0.
         24    2    4    4    0    0 -0.29400672835E+01  0.20357433883E+03 -0.16392097959E+03  0.27331512124E+03  0.79874354580E+02 0.  0.
         11    1    3    3    0    0 -0.91691993573E+02 -0.30032626161E+02  0.13140473284E+02  0.97375830459E+02  0.00000000000E+00 0. -1.
        -12    1    3    3    0    0 -0.31237689258E+03 -0.35648370153E+02 -0.88383736302E+02  0.32659120342E+03  0.00000000000E+00 0.  1.
         15    1    5    5    0    0  0.15946427192E+03 -0.72646569991E+02  0.86611094937E+02  0.19547638641E+03  0.17770000000E+01 0. -1.
        -16    1    5    5    0    0  0.24754468151E+03 -0.65246772527E+02  0.38086576243E+02  0.25881672659E+03  0.00000000000E+00 0.  1.
          4    1    6    6  502    0 -0.25560635922E+02  0.34791887401E+02 -0.11267394548E+02  0.44618109749E+02  0.00000000000E+00 0. -1.
         -3    1    6    6    0  502  0.22620568639E+02  0.16878245143E+03 -0.15265358504E+03  0.22869701149E+03  0.00000000000E+00 0.  1.
<mgrwt>
<rscale>  0 0.52779674E+03</rscale>
<asrwt>0</asrwt>
<pdfrwt beam="1">  1        1 0.79777592E-01 0.52779674E+03</pdfrwt>
<pdfrwt beam="2">  1       -2 0.97387834E-01 0.52779674E+03</pdfrwt>
<totfact> 0.33662069E+01</totfact>
</mgrwt>
</event>
<event>
12    3  0.1182097E-007  0.6040308E+03  0.7818608E-02  0.9897079E-01
          1   -1    0    0  501    0  0.00000000000E+00  0.00000000000E+00  0.29939424201E+04  0.29939424201E+04  0.00000000000E+00 0. -1.
         -2   -1    0    0    0  501 -0.00000000000E+00 -0.00000000000E+00 -0.14969532569E+03  0.14969532569E+03  0.00000000000E+00 0.  1.
        -24    2    1    2    0    0  0.22735425458E+03 -0.47528452581E+03  0.13034968066E+04  0.14082514192E+04  0.80515821422E+02 0.  0.
    5000000    2    1    2    0    0 -0.22735425458E+03  0.47528452581E+03  0.15407502878E+04  0.17353863265E+04  0.60005742668E+03 0.  0.
        -24    2    4    4    0    0 -0.33175892278E+03  0.42821522950E+03  0.72809893339E+03  0.91099779052E+03  0.79728614072E+02 0.  0.
         24    2    4    4    0    0  0.10440466821E+03  0.47069296310E+02  0.81265135443E+03  0.82438853601E+03  0.78092131778E+02 0.  0.
         13    1    3    3    0    0  0.13515662369E+03 -0.27312812656E+03  0.64701276297E+03  0.71518655041E+03  0.00000000000E+00 0. -1.
        -14    1    3    3    0    0  0.92197630889E+02 -0.20215639925E+03  0.65648404359E+03  0.69306486881E+03  0.00000000000E+00 0.  1.
         15    1    5    5    0    0 -0.20029226515E+03  0.21147761285E+03  0.34348714518E+03  0.45036246385E+03  0.17770000000E+01 0. -1.
        -16    1    5    5    0    0 -0.13146665764E+03  0.21673761665E+03  0.38461178822E+03  0.46063532667E+03  0.00000000000E+00 0.  1.
          4    1    6    6  502    0  0.88385052367E+02  0.18661011590E+01  0.59375234086E+03  0.60029762792E+03  0.00000000000E+00 0. -1.
         -3    1    6    6    0  502  0.16019615838E+02  0.45203195151E+02  0.21889901357E+03  0.22409090808E+03  0.00000000000E+00 0.  1.
<mgrwt>
<rscale>  0 0.60403080E+03</rscale>
<asrwt>0</asrwt>
<pdfrwt beam="1">  1        1 0.46060648E+00 0.60403080E+03</pdfrwt>
<pdfrwt beam="2">  1       -2 0.23030052E-01 0.60403080E+03</pdfrwt>
<totfact> 0.96108696E+00</totfact>
</mgrwt>
</event>
<event>
12    3  0.1182097E-007  0.9011520E+03  0.7818608E-02  0.9424143E-01
         -2   -1    0    0    0  501 -0.00000000000E+00  0.00000000000E+00  0.61479425535E+03  0.61479425535E+03  0.00000000000E+00 0.  1.
          1   -1    0    0  501    0  0.00000000000E+00 -0.00000000000E+00 -0.16135912171E+04  0.16135912171E+04  0.00000000000E+00 0. -1.
        -24    2    1    2    0    0  0.16141315470E+03  0.88344246479E+03 -0.34306943232E+03  0.96479505151E+03  0.81289980401E+02 0.  0.
    5000000    2    1    2    0    0 -0.16141315470E+03 -0.88344246479E+03 -0.65572752940E+03  0.12635904209E+04  0.60013112226E+03 0.  0.
        -24    2    4    4    0    0 -0.99198717867E+02 -0.54376739647E+03 -0.47982818361E+02  0.56039128159E+03  0.78820495649E+02 0.  0.
         24    2    4    4    0    0 -0.62214436832E+02 -0.33967506833E+03 -0.60774471103E+03  0.70319913933E+03  0.76717713502E+02 0.  0.
         13    1    3    3    0    0  0.12352932133E+03  0.59660044158E+03 -0.19450863375E+03  0.63955077103E+03  0.00000000000E+00 0. -1.
        -14    1    3    3    0    0  0.37883833370E+02  0.28684202322E+03 -0.14856079858E+03  0.32524428048E+03  0.00000000000E+00 0.  1.
         15    1    5    5    0    0 -0.10606918498E+03 -0.44920210439E+03 -0.22007380436E+02  0.46208298509E+03  0.17770000000E+01 0. -1.
        -16    1    5    5    0    0  0.68704671142E+01 -0.94565292083E+02 -0.25975437925E+02  0.98308296499E+02  0.00000000000E+00 0.  1.
          2    1    6    6  502    0 -0.66093190064E+02 -0.28642212174E+03 -0.55559515143E+03  0.62856337300E+03  0.00000000000E+00 0. -1.
         -1    1    6    6    0  502  0.38787532323E+01 -0.53252946591E+02 -0.52149559608E+02  0.74635766322E+02  0.00000000000E+00 0.  1.
<mgrwt>
<rscale>  0 0.90115195E+03</rscale>
<asrwt>0</asrwt>
<pdfrwt beam="1">  1        1 0.24824481E+00 0.90115195E+03</pdfrwt>
<pdfrwt beam="2">  1       -2 0.94583731E-01 0.90115195E+03</pdfrwt>
<totfact> 0.45759731E+00</totfact>
</mgrwt>
</event>
<event>
12    3  0.1182097E-007  0.7652325E+03  0.7818608E-02  0.9611752E-01
         -2   -1    0    0    0  501 -0.00000000000E+00  0.00000000000E+00  0.61659548938E+03  0.61659548938E+03  0.00000000000E+00 0.  1.
          1   -1    0    0  501    0  0.00000000000E+00 -0.00000000000E+00 -0.11952751753E+04  0.11952751753E+04  0.00000000000E+00 0. -1.
        -24    2    1    2    0    0 -0.37853927077E+03 -0.53581130859E+03 -0.64066320852E+03  0.92066370593E+03  0.82380669710E+02 0.  0.
    5000000    2    1    2    0    0  0.37853927077E+03  0.53581130859E+03  0.61983522562E+02  0.89120695879E+03  0.60001845671E+03 0.  0.
        -24    2    4    4    0    0  0.46862503665E+03  0.18004579708E+03 -0.13912215966E+02  0.50857479627E+03  0.80180169798E+02 0.  0.
         24    2    4    4    0    0 -0.90085765881E+02  0.35576551151E+03  0.75895738528E+02  0.38263216251E+03  0.77218289709E+02 0.  0.
         11    1    3    3    0    0 -0.24499370045E+03 -0.41008863662E+03 -0.46926512090E+03  0.66963001488E+03  0.00000000000E+00 0. -1.
        -12    1    3    3    0    0 -0.13354557033E+03 -0.12572267197E+03 -0.17139808762E+03  0.25103369105E+03  0.00000000000E+00 0.  1.
         15    1    5    5    0    0  0.13123718827E+03  0.56215476467E+02  0.31814281539E+02  0.14628289585E+03  0.17770000000E+01 0. -1.
        -16    1    5    5    0    0  0.33738784838E+03  0.12383032061E+03 -0.45726497504E+02  0.36229190042E+03  0.00000000000E+00 0.  1.
          4    1    6    6  502    0 -0.74653080811E+01  0.45102526456E+02  0.37025300088E+02  0.58828917754E+02  0.00000000000E+00 0. -1.
         -3    1    6    6    0  502 -0.82620457800E+02  0.31066298506E+03  0.38870438440E+02  0.32380324476E+03  0.00000000000E+00 0.  1.
<mgrwt>
<rscale>  0 0.76523246E+03</rscale>
<asrwt>0</asrwt>
<pdfrwt beam="1">  1        1 0.18388848E+00 0.76523246E+03</pdfrwt>
<pdfrwt beam="2">  1       -2 0.94860847E-01 0.76523246E+03</pdfrwt>
<totfact> 0.90572335E+00</totfact>
</mgrwt>
</event>
<event>
12    3  0.1182097E-007  0.4293477E+03  0.7818608E-02  0.1034066E+00
         -2   -1    0    0    0  501 -0.00000000000E+00  0.00000000000E+00  0.34939840363E+03  0.34939840363E+03  0.00000000000E+00 0.  1.
          1   -1    0    0  501    0  0.00000000000E+00 -0.00000000000E+00 -0.98480481459E+03  0.98480481459E+03  0.00000000000E+00 0. -1.
        -24    2    1    2    0    0 -0.22141050780E+03  0.53121183665E+02 -0.64923126470E+03  0.69240145445E+03  0.77936294107E+02 0.  0.
    5000000    2    1    2    0    0  0.22141050780E+03 -0.53121183665E+02  0.13824853742E+02  0.64180176378E+03  0.59989491104E+03 0.  0.
        -24    2    4    4    0    0  0.11544026613E+03 -0.31379101201E+03 -0.40268756929E+02  0.34495354520E+03  0.74700209514E+02 0.  0.
         24    2    4    4    0    0  0.10597024167E+03  0.26066982835E+03  0.54093610671E+02  0.29684821857E+03  0.77551883440E+02 0.  0.
         13    1    3    3    0    0 -0.21725205734E+02  0.15814585821E+02 -0.16672440693E+03  0.16887603014E+03  0.00000000000E+00 0. -1.
        -14    1    3    3    0    0 -0.19968530207E+03  0.37306597844E+02 -0.48250685777E+03  0.52352542431E+03  0.00000000000E+00 0.  1.
         15    1    5    5    0    0  0.85984791433E+02 -0.13325626262E+03 -0.50990830691E+01  0.15868136079E+03  0.17770000000E+01 0. -1.
        -16    1    5    5    0    0  0.29455474701E+02 -0.18053474939E+03 -0.35169673860E+02  0.18627218441E+03  0.00000000000E+00 0.  1.
          2    1    6    6  502    0  0.25561082565E+02  0.17332341069E+02  0.23381283372E+02  0.38735815481E+02  0.00000000000E+00 0. -1.
         -1    1    6    6    0  502  0.80409159104E+02  0.24333748728E+03  0.30712327299E+02  0.25811240309E+03  0.00000000000E+00 0.  1.
<mgrwt>
<rscale>  0 0.42934766E+03</rscale>
<asrwt>0</asrwt>
<pdfrwt beam="1">  1        1 0.15150843E+00 0.42934766E+03</pdfrwt>
<pdfrwt beam="2">  1       -2 0.53753600E-01 0.42934766E+03</pdfrwt>
<totfact> 0.47132056E+01</totfact>
</mgrwt>
</event>
<event>
12    3  0.1182097E-007  0.5367342E+03  0.7818608E-02  0.1004612E+00
         -2   -1    0    0    0  501 -0.00000000000E+00  0.00000000000E+00  0.39510223741E+03  0.39510223741E+03  0.00000000000E+00 0.  1.
          1   -1    0    0  501    0  0.00000000000E+00 -0.00000000000E+00 -0.17451007603E+04  0.17451007603E+04  0.00000000000E+00 0. -1.
        -24    2    1    2    0    0  0.29441740526E+03  0.38231159772E+03 -0.12760306522E+04  0.13663156216E+04  0.75633234674E+02 0.  0.
    5000000    2    1    2    0    0 -0.29441740526E+03 -0.38231159772E+03 -0.73967870599E+02  0.77388737604E+03  0.60048868319E+03 0.  0.
        -24    2    4    4    0    0 -0.20040993881E+03 -0.15131763744E+02  0.20396320190E+03  0.29727738069E+03  0.79873271461E+02 0.  0.
         24    2    4    4    0    0 -0.94007466445E+02 -0.36717983398E+03 -0.27793107250E+03  0.47660999535E+03  0.79075738220E+02 0.  0.
         11    1    3    3    0    0  0.15975807143E+03  0.25293379473E+03 -0.85166154381E+03  0.90267686971E+03  0.00000000000E+00 0. -1.
        -12    1    3    3    0    0  0.13465933383E+03  0.12937780299E+03 -0.42436910843E+03  0.46363875192E+03  0.00000000000E+00 0.  1.
         15    1    5    5    0    0 -0.33718149563E+02 -0.13648342277E+02  0.85029093605E+02  0.92500245109E+02  0.17770000000E+01 0. -1.
        -16    1    5    5    0    0 -0.16669178925E+03 -0.14834214667E+01  0.11893410830E+03  0.20477713558E+03  0.00000000000E+00 0.  1.
          2    1    6    6  502    0 -0.28047550141E+02 -0.23558355901E+03 -0.14355572060E+03  0.27729861749E+03  0.00000000000E+00 0. -1.
         -1    1    6    6    0  502 -0.65959916305E+02 -0.13159627496E+03 -0.13437535190E+03  0.19931137785E+03  0.00000000000E+00 0.  1.
<mgrwt>
<rscale>  0 0.53673424E+03</rscale>
<asrwt>0</asrwt>
<pdfrwt beam="1">  1        1 0.26847704E+00 0.53673424E+03</pdfrwt>
<pdfrwt beam="2">  1       -2 0.60784959E-01 0.53673424E+03</pdfrwt>
<totfact> 0.10549056E+01</totfact>
</mgrwt>
</event>
<event>
12    3  0.1182097E-007  0.6673107E+03  0.7818608E-02  0.9774828E-01
          1   -1    0    0  501    0  0.00000000000E+00  0.00000000000E+00  0.30543513461E+04  0.30543513461E+04  0.00000000000E+00 0. -1.
         -2   -1    0    0    0  501 -0.00000000000E+00 -0.00000000000E+00 -0.26524778429E+03  0.26524778429E+03  0.00000000000E+00 0.  1.
        -24    2    1    2    0    0 -0.53563891177E+03  0.10662791063E+03  0.23147003054E+04  0.23797019436E+04  0.82856995290E+02 0.  0.
    5000000    2    1    2    0    0  0.53563891177E+03 -0.10662791063E+03  0.47440325642E+03  0.93989718675E+03  0.60005809455E+03 0.  0.
        -24    2    4    4    0    0  0.62561599275E+03 -0.17058107984E+03  0.46941997760E+03  0.80447374234E+03  0.79558855898E+02 0.  0.
         24    2    4    4    0    0 -0.89977080982E+02  0.63953169218E+02  0.49832788219E+01  0.13542344442E+03  0.78286609806E+02 0.  0.
         13    1    3    3    0    0 -0.10882640994E+03  0.50802173304E+02  0.42881253825E+03  0.44531364371E+03  0.00000000000E+00 0. -1.
        -14    1    3    3    0    0 -0.42681250183E+03  0.55825737323E+02  0.18858877671E+04  0.19343882999E+04  0.00000000000E+00 0.  1.
         15    1    5    5    0    0  0.32891613372E+03 -0.52371790963E+02  0.21885359000E+03  0.39853315934E+03  0.17770000000E+01 0. -1.
        -16    1    5    5    0    0  0.29669985903E+03 -0.11820928888E+03  0.25056638760E+03  0.40594058300E+03  0.00000000000E+00 0.  1.
          2    1    6    6  502    0 -0.45889637084E+02  0.73376649775E+02 -0.11742074126E+02  0.87337665579E+02  0.00000000000E+00 0. -1.
         -1    1    6    6    0  502 -0.44087443897E+02 -0.94234805574E+01  0.16725352948E+02  0.48085778838E+02  0.00000000000E+00 0.  1.
<mgrwt>
<rscale>  0 0.66731070E+03</rscale>
<asrwt>0</asrwt>
<pdfrwt beam="1">  1        1 0.46990018E+00 0.66731070E+03</pdfrwt>
<pdfrwt beam="2">  1       -2 0.40807354E-01 0.66731070E+03</pdfrwt>
<totfact> 0.29619017E+00</totfact>
</mgrwt>
</event>
<event>
12    3  0.1182097E-007  0.1571779E+04  0.7818608E-02  0.8838075E-01
          1   -1    0    0  501    0  0.00000000000E+00  0.00000000000E+00  0.12040738771E+04  0.12040738771E+04  0.00000000000E+00 0. -1.
         -2   -1    0    0    0  501 -0.00000000000E+00 -0.00000000000E+00 -0.20676759080E+04  0.20676759080E+04  0.00000000000E+00 0.  1.
        -24    2    1    2    0    0  0.83863903679E+03  0.12654591620E+04 -0.34430417106E+03  0.15587424316E+04  0.80189032973E+02 0.  0.
    5000000    2    1    2    0    0 -0.83863903679E+03 -0.12654591620E+04 -0.51929785987E+03  0.17130073535E+04  0.60001800056E+03 0.  0.
        -24    2    4    4    0    0 -0.69482064235E+02 -0.60817767484E+03 -0.18008057591E+03  0.64295754880E+03  0.79104704760E+02 0.  0.
         24    2    4    4    0    0 -0.76915697255E+03 -0.65728148721E+03 -0.33921728396E+03  0.10700498047E+04  0.79478405362E+02 0.  0.
         11    1    3    3    0    0  0.14098278830E+03  0.25720450256E+03 -0.46130288266E+02  0.29691464469E+03  0.00000000000E+00 0. -1.
        -12    1    3    3    0    0  0.69765624849E+03  0.10082546595E+04 -0.29817388279E+03  0.12618277869E+04  0.00000000000E+00 0.  1.
         15    1    5    5    0    0 -0.24147321675E+02 -0.16158852195E+03 -0.84741339069E+02  0.18406030492E+03  0.17770000000E+01 0. -1.
        -16    1    5    5    0    0 -0.45334742560E+02 -0.44658915289E+03 -0.95339236838E+02  0.45889724388E+03  0.00000000000E+00 0.  1.
          2    1    6    6  502    0 -0.18596095099E+03 -0.14954836776E+03 -0.45710126088E+02  0.24297243716E+03  0.00000000000E+00 0. -1.
         -1    1    6    6    0  502 -0.58319602157E+03 -0.50773311944E+03 -0.29350715787E+03  0.82707736752E+03  0.00000000000E+00 0.  1.
<mgrwt>
<rscale>  0 0.15717794E+04</rscale>
<asrwt>0</asrwt>
<pdfrwt beam="1">  1        1 0.18524214E+00 0.15717794E+04</pdfrwt>
<pdfrwt beam="2">  1       -2 0.31810398E+00 0.15717794E+04</pdfrwt>
<totfact> 0.21495383E-01</totfact>
</mgrwt>
</event>
<event>
12    3  0.1182097E-007  0.1463699E+04  0.7818608E-02  0.8908958E-01
          1   -1    0    0  501    0  0.00000000000E+00  0.00000000000E+00  0.10367234864E+04  0.10367234864E+04  0.00000000000E+00 0. -1.
         -2   -1    0    0    0  501 -0.00000000000E+00 -0.00000000000E+00 -0.27355352580E+04  0.27355352580E+04  0.00000000000E+00 0.  1.
        -24    2    1    2    0    0 -0.14296148992E+04  0.20472787746E+03  0.22424664448E+02  0.14466847411E+04  0.81741119122E+02 0.  0.
    5000000    2    1    2    0    0  0.14296148992E+04 -0.20472787746E+03 -0.17212364360E+04  0.23255740033E+04  0.59993942379E+03 0.  0.
        -24    2    4    4    0    0  0.74182590437E+03  0.56596808727E+02 -0.50785999859E+03  0.90426750747E+03  0.79177495137E+02 0.  0.
         24    2    4    4    0    0  0.68778899486E+03 -0.26132468618E+03 -0.12133764374E+04  0.14213064958E+04  0.80532497291E+02 0.  0.
         13    1    3    3    0    0 -0.13546000191E+04  0.18552110830E+03  0.47266760917E+01  0.13672533177E+04  0.00000000000E+00 0. -1.
        -14    1    3    3    0    0 -0.75014880169E+02  0.19206769155E+02  0.17697988356E+02  0.79431423379E+02  0.00000000000E+00 0.  1.
         15    1    5    5    0    0  0.49777159446E+03  0.12102991460E+02 -0.37101979937E+03  0.62095240712E+03  0.17770000000E+01 0. -1.
        -16    1    5    5    0    0  0.24405430992E+03  0.44493817266E+02 -0.13684019921E+03  0.28331510035E+03  0.00000000000E+00 0.  1.
          4    1    6    6  502    0  0.38618337285E+03 -0.16662033515E+03 -0.62421326024E+03  0.75268992806E+03  0.00000000000E+00 0. -1.
         -1    1    6    6    0  502  0.30160562201E+03 -0.94704351029E+02 -0.58916317720E+03  0.66861656778E+03  0.00000000000E+00 0.  1.
<mgrwt>
<rscale>  0 0.14636991E+04</rscale>
<asrwt>0</asrwt>
<pdfrwt beam="1">  1        1 0.15949592E+00 0.14636991E+04</pdfrwt>
<pdfrwt beam="2">  1       -2 0.42085158E+00 0.14636991E+04</pdfrwt>
<totfact> 0.64132811E-02</totfact>
</mgrwt>
</event>
<event>
12    3  0.1182097E-007  0.6515008E+03  0.7818608E-02  0.9803967E-01
         -2   -1    0    0    0  501 -0.00000000000E+00  0.00000000000E+00  0.69284763491E+03  0.69284763491E+03  0.00000000000E+00 0.  1.
          1   -1    0    0  501    0  0.00000000000E+00 -0.00000000000E+00 -0.67624318442E+03  0.67624318442E+03  0.00000000000E+00 0. -1.
        -24    2    1    2    0    0  0.10677608460E+03  0.50610969413E+03 -0.17965785578E+03  0.55298084471E+03  0.77218616564E+02 0.  0.
    5000000    2    1    2    0    0 -0.10677608460E+03 -0.50610969413E+03  0.19626230627E+03  0.81610997461E+03  0.59997370198E+03 0.  0.
        -24    2    4    4    0    0  0.18302411517E+03 -0.44311664985E+03  0.11437874423E+03  0.49936878649E+03  0.80227773764E+02 0.  0.
         24    2    4    4    0    0 -0.28980019977E+03 -0.62993044277E+02  0.81883562041E+02  0.31674118812E+03  0.75284680426E+02 0.  0.
         11    1    3    3    0    0  0.45005976715E+02  0.17079210983E+03 -0.99518366797E+02  0.20272984006E+03  0.00000000000E+00 0. -1.
        -12    1    3    3    0    0  0.61770107883E+02  0.33531758430E+03 -0.80139488985E+02  0.35025100466E+03  0.00000000000E+00 0.  1.
         15    1    5    5    0    0  0.10460943633E+03 -0.25786302779E+03  0.10676821133E+03  0.29805885987E+03  0.17770000000E+01 0. -1.
        -16    1    5    5    0    0  0.78414678839E+02 -0.18525362206E+03  0.76105329026E+01  0.20130992662E+03  0.00000000000E+00 0.  1.
          2    1    6    6  502    0 -0.13514717942E+03 -0.67894984272E+02  0.40332394835E+02  0.15652856311E+03  0.00000000000E+00 0. -1.
         -1    1    6    6    0  502 -0.15465302034E+03  0.49019399955E+01  0.41551167206E+02  0.16021262501E+03  0.00000000000E+00 0.  1.
<mgrwt>
<rscale>  0 0.65150081E+03</rscale>
<asrwt>0</asrwt>
<pdfrwt beam="1">  1        1 0.10403741E+00 0.65150081E+03</pdfrwt>
<pdfrwt beam="2">  1       -2 0.10659194E+00 0.65150081E+03</pdfrwt>
<totfact> 0.18358905E+01</totfact>
</mgrwt>
</event>
<event>
12    3  0.1182097E-007  0.5219547E+03  0.7818608E-02  0.1008202E+00
          1   -1    0    0  501    0  0.00000000000E+00  0.00000000000E+00  0.13694926905E+04  0.13694926905E+04  0.00000000000E+00 0. -1.
         -2   -1    0    0    0  501 -0.00000000000E+00 -0.00000000000E+00 -0.26015858338E+03  0.26015858338E+03  0.00000000000E+00 0.  1.
        -24    2    1    2    0    0 -0.40048785886E+03 -0.15925961482E+03  0.28399897322E+03  0.52205847506E+03  0.78329334130E+02 0.  0.
    5000000    2    1    2    0    0  0.40048785886E+03  0.15925961482E+03  0.82533513391E+03  0.11075927988E+04  0.59985796215E+03 0.  0.
        -24    2    4    4    0    0  0.48004784517E+03  0.96525466927E+02  0.33102476660E+03  0.59690322673E+03  0.83384450340E+02 0.  0.
         24    2    4    4    0    0 -0.79559986310E+02  0.62734147893E+02  0.49431036732E+03  0.51068957211E+03  0.78712991874E+02 0.  0.
         13    1    3    3    0    0 -0.28685222744E+03 -0.14816392954E+03  0.19384422931E+03  0.37657978656E+03  0.00000000000E+00 0. -1.
        -14    1    3    3    0    0 -0.11363563142E+03 -0.11095685279E+02  0.90154743911E+02  0.14547868851E+03  0.00000000000E+00 0.  1.
         15    1    5    5    0    0  0.24105831200E+03  0.37780436666E+02  0.11635349879E+03  0.27032899509E+03  0.17770000000E+01 0. -1.
        -16    1    5    5    0    0  0.23898953317E+03  0.58745030261E+02  0.21467126780E+03  0.32657423163E+03  0.00000000000E+00 0.  1.
          4    1    6    6  502    0 -0.43326269246E+02 -0.11268390947E+01  0.91545633221E+02  0.10128691098E+03  0.00000000000E+00 0. -1.
         -3    1    6    6    0  502 -0.36233717064E+02  0.63860986987E+02  0.40276473410E+03  0.40940266113E+03  0.00000000000E+00 0.  1.
<mgrwt>
<rscale>  0 0.52195466E+03</rscale>
<asrwt>0</asrwt>
<pdfrwt beam="1">  1        1 0.21069118E+00 0.52195466E+03</pdfrwt>
<pdfrwt beam="2">  1       -2 0.40024398E-01 0.52195466E+03</pdfrwt>
<totfact> 0.44117521E+01</totfact>
</mgrwt>
</event>
<event>
12    3  0.1182097E-007  0.7619478E+03  0.7818608E-02  0.9616790E-01
         -2   -1    0    0    0  501 -0.00000000000E+00  0.00000000000E+00  0.10507678566E+04  0.10507678566E+04  0.00000000000E+00 0.  1.
          1   -1    0    0  501    0  0.00000000000E+00 -0.00000000000E+00 -0.73173534883E+03  0.73173534883E+03  0.00000000000E+00 0. -1.
        -24    2    1    2    0    0  0.41254530504E+03 -0.58825547537E+03  0.42788194796E+03  0.84008012976E+03  0.80084517946E+02 0.  0.
    5000000    2    1    2    0    0 -0.41254530504E+03  0.58825547537E+03 -0.10884944020E+03  0.94242307566E+03  0.60006243000E+03 0.  0.
        -24    2    4    4    0    0 -0.91269601370E+02  0.42477515237E+03 -0.29280950198E+03  0.52997731255E+03  0.79840322901E+02 0.  0.
         24    2    4    4    0    0 -0.32127570367E+03  0.16348032300E+03  0.18396006178E+03  0.41244576312E+03  0.79538100343E+02 0.  0.
         11    1    3    3    0    0  0.28032539727E+03 -0.44312842912E+03  0.34033674409E+03  0.62511937454E+03  0.00000000000E+00 0. -1.
        -12    1    3    3    0    0  0.13221990777E+03 -0.14512704625E+03  0.87545203877E+02  0.21496075522E+03  0.00000000000E+00 0.  1.
         15    1    5    5    0    0 -0.21920536090E+02  0.16030531175E+03 -0.66051247520E+02  0.17476907022E+03  0.17770000000E+01 0. -1.
        -16    1    5    5    0    0 -0.69349065280E+02  0.26446984062E+03 -0.22675825446E+03  0.35520824233E+03  0.00000000000E+00 0.  1.
          2    1    6    6  502    0 -0.39421572582E+02  0.51167338285E+02  0.45054700211E+02  0.78753304078E+02  0.00000000000E+00 0. -1.
         -1    1    6    6    0  502 -0.28185413109E+03  0.11231298471E+03  0.13890536156E+03  0.33369245904E+03  0.00000000000E+00 0.  1.
<mgrwt>
<rscale>  0 0.76194782E+03</rscale>
<asrwt>0</asrwt>
<pdfrwt beam="1">  1        1 0.11257467E+00 0.76194782E+03</pdfrwt>
<pdfrwt beam="2">  1       -2 0.16165659E+00 0.76194782E+03</pdfrwt>
<totfact> 0.55786282E+00</totfact>
</mgrwt>
</event>
<event>
12    3  0.1182097E-007  0.8646211E+03  0.7818608E-02  0.9470921E-01
         -2   -1    0    0    0  501 -0.00000000000E+00  0.00000000000E+00  0.11132944728E+04  0.11132944728E+04  0.00000000000E+00 0.  1.
          1   -1    0    0  501    0  0.00000000000E+00 -0.00000000000E+00 -0.98663278824E+03  0.98663278824E+03  0.00000000000E+00 0. -1.
        -24    2    1    2    0    0  0.76142370241E+03 -0.23975242697E+03  0.59313426043E+03  0.99764919355E+03  0.79046705502E+02 0.  0.
    5000000    2    1    2    0    0 -0.76142370241E+03  0.23975242697E+03 -0.46647257585E+03  0.11022780675E+04  0.60014414374E+03 0.  0.
        -24    2    4    4    0    0  0.39145807462E+02 -0.19370106490E+02  0.57842332351E+02  0.10748072885E+03  0.79364830975E+02 0.  0.
         24    2    4    4    0    0 -0.80056950988E+03  0.25912253346E+03 -0.52431490820E+03  0.99479733866E+03  0.81606338919E+02 0.  0.
         11    1    3    3    0    0  0.54172701940E+03 -0.18978327344E+03  0.38708441208E+03  0.69232954328E+03  0.00000000000E+00 0. -1.
        -12    1    3    3    0    0  0.21969668301E+03 -0.49969153530E+02  0.20604984835E+03  0.30531965026E+03  0.00000000000E+00 0.  1.
         15    1    5    5    0    0  0.34361147685E+01 -0.44487350834E+02  0.17263070022E+02  0.47875908185E+02  0.17770000000E+01 0. -1.
        -16    1    5    5    0    0  0.35709692694E+02  0.25117244345E+02  0.40579262329E+02  0.59604820668E+02  0.00000000000E+00 0.  1.
          2    1    6    6  502    0 -0.41790655755E+03  0.14364750834E+03 -0.32221060716E+03  0.54690051459E+03  0.00000000000E+00 0. -1.
         -1    1    6    6    0  502 -0.38266295233E+03  0.11547502513E+03 -0.20210430104E+03  0.44789682407E+03  0.00000000000E+00 0.  1.
<mgrwt>
<rscale>  0 0.86462105E+03</rscale>
<asrwt>0</asrwt>
<pdfrwt beam="1">  1        1 0.15178966E+00 0.86462105E+03</pdfrwt>
<pdfrwt beam="2">  1       -2 0.17127607E+00 0.86462105E+03</pdfrwt>
<totfact> 0.28698204E+00</totfact>
</mgrwt>
</event>
<event>
12    3  0.1182097E-007  0.6192324E+03  0.7818608E-02  0.9866289E-01
          1   -1    0    0  501    0  0.00000000000E+00  0.00000000000E+00  0.18533740151E+04  0.18533740151E+04  0.00000000000E+00 0. -1.
         -2   -1    0    0    0  501 -0.00000000000E+00 -0.00000000000E+00 -0.34654210244E+03  0.34654210244E+03  0.00000000000E+00 0.  1.
        -24    2    1    2    0    0 -0.25253411251E+03  0.40646580544E+03  0.13262265133E+04  0.14114907429E+04  0.66644007114E+02 0.  0.
    5000000    2    1    2    0    0  0.25253411251E+03 -0.40646580544E+03  0.18060539934E+03  0.78842537463E+03  0.60000694339E+03 0.  0.
        -24    2    4    4    0    0  0.43574486127E+03 -0.22854029835E+03  0.97358402815E+02  0.50804858075E+03  0.80811197913E+02 0.  0.
         24    2    4    4    0    0 -0.18321074876E+03 -0.17792550710E+03  0.83246996524E+02  0.28037679389E+03  0.80358071045E+02 0.  0.
         11    1    3    3    0    0 -0.12098728051E+02  0.60001606107E+02  0.18263222549E+03  0.19261646281E+03  0.00000000000E+00 0. -1.
        -12    1    3    3    0    0 -0.24043538446E+03  0.34646419934E+03  0.11435942878E+04  0.12188742801E+04  0.00000000000E+00 0.  1.
         15    1    5    5    0    0  0.87321579993E+02 -0.83834020428E+02  0.31129797395E+02  0.12500169330E+03  0.17770000000E+01 0. -1.
        -16    1    5    5    0    0  0.34842328128E+03 -0.14470627792E+03  0.66228605421E+02  0.38304688745E+03  0.00000000000E+00 0.  1.
          4    1    6    6  502    0 -0.12048579084E+03 -0.96233044447E+02  0.11046183074E+02  0.15459509306E+03  0.00000000000E+00 0. -1.
         -1    1    6    6    0  502 -0.62724957926E+02 -0.81692462649E+02  0.72200813449E+02  0.12578170083E+03  0.00000000000E+00 0.  1.
<mgrwt>
<rscale>  0 0.61923241E+03</rscale>
<asrwt>0</asrwt>
<pdfrwt beam="1">  1        1 0.28513446E+00 0.61923241E+03</pdfrwt>
<pdfrwt beam="2">  1       -2 0.53314170E-01 0.61923241E+03</pdfrwt>
<totfact> 0.11562627E+01</totfact>
</mgrwt>
</event>
<event>
12    3  0.1182097E-007  0.7927862E+03  0.7818608E-02  0.9570518E-01
          1   -1    0    0  501    0  0.00000000000E+00  0.00000000000E+00  0.13217174272E+04  0.13217174272E+04  0.00000000000E+00 0. -1.
         -2   -1    0    0    0  501 -0.00000000000E+00 -0.00000000000E+00 -0.56697139340E+03  0.56697139340E+03  0.00000000000E+00 0.  1.
        -24    2    1    2    0    0 -0.71269590615E+03  0.43903049466E+02  0.51655979859E+02  0.72063442801E+03  0.82357186620E+02 0.  0.
    5000000    2    1    2    0    0  0.71269590615E+03 -0.43903049466E+02  0.70309005392E+03  0.11680543926E+04  0.60012707628E+03 0.  0.
        -24    2    4    4    0    0  0.50307342151E+03 -0.25256195327E+03  0.63841645579E+03  0.85477182567E+03  0.78669531987E+02 0.  0.
         24    2    4    4    0    0  0.20962248464E+03  0.20865890381E+03  0.64673598125E+02  0.31328256690E+03  0.80518123566E+02 0.  0.
         13    1    3    3    0    0 -0.61508100797E+03  0.34200072372E+02  0.15935170303E+02  0.61623714669E+03  0.00000000000E+00 0. -1.
        -14    1    3    3    0    0 -0.97614898184E+02  0.97029770941E+01  0.35720809556E+02  0.10439728132E+03  0.00000000000E+00 0.  1.
         15    1    5    5    0    0  0.38672662837E+03 -0.17109441959E+03  0.43503035382E+03  0.60670038073E+03  0.17770000000E+01 0. -1.
        -16    1    5    5    0    0  0.11634679314E+03 -0.81467533688E+02  0.20338610198E+03  0.24807144494E+03  0.00000000000E+00 0.  1.
          4    1    6    6  502    0  0.21031574114E+03  0.21463907263E+03  0.63047852418E+02  0.30704669705E+03  0.00000000000E+00 0. -1.
         -3    1    6    6    0  502 -0.69325650408E+00 -0.59801688211E+01  0.16257457070E+01  0.62358698521E+01  0.00000000000E+00 0.  1.
<mgrwt>
<rscale>  0 0.79278621E+03</rscale>
<asrwt>0</asrwt>
<pdfrwt beam="1">  1        1 0.20334114E+00 0.79278621E+03</pdfrwt>
<pdfrwt beam="2">  1       -2 0.87226368E-01 0.79278621E+03</pdfrwt>
<totfact> 0.89019872E+00</totfact>
</mgrwt>
</event>
<event>
12    3  0.1182097E-007  0.1325235E+04  0.7818608E-02  0.9009789E-01
          1   -1    0    0  501    0  0.00000000000E+00  0.00000000000E+00  0.90728010955E+03  0.90728010955E+03  0.00000000000E+00 0. -1.
         -2   -1    0    0    0  501 -0.00000000000E+00 -0.00000000000E+00 -0.20720464628E+04  0.20720464628E+04  0.00000000000E+00 0.  1.
        -24    2    1    2    0    0  0.12633266998E+04 -0.16647142162E+03 -0.85674357360E+03  0.15376325438E+04  0.81223174135E+02 0.  0.
    5000000    2    1    2    0    0 -0.12633266998E+04  0.16647142162E+03 -0.30802277965E+03  0.14416940286E+04  0.59991378931E+03 0.  0.
        -24    2    4    4    0    0 -0.41789469802E+03 -0.17644612711E+03 -0.24997278161E+03  0.52400771446E+03  0.79551737014E+02 0.  0.
         24    2    4    4    0    0 -0.84543200179E+03  0.34291754873E+03 -0.58049998046E+02  0.91768631413E+03  0.80191358544E+02 0.  0.
         11    1    3    3    0    0  0.57660793288E+03 -0.10355467173E+03 -0.35765081934E+03  0.68637772900E+03  0.00000000000E+00 0. -1.
        -12    1    3    3    0    0  0.68671876694E+03 -0.62916749890E+02 -0.49909275426E+03  0.85125481475E+03  0.00000000000E+00 0.  1.
         15    1    5    5    0    0 -0.25198117779E+01  0.54319697395E+01 -0.76343343295E+01  0.98639006636E+01  0.17770000000E+01 0. -1.
        -16    1    5    5    0    0 -0.41537488625E+03 -0.18187809685E+03 -0.24233844728E+03  0.51414381380E+03  0.00000000000E+00 0.  1.
          2    1    6    6  502    0 -0.21098906228E+03  0.51535671560E+02 -0.87711570952E+00  0.21719364442E+03  0.00000000000E+00 0. -1.
         -1    1    6    6    0  502 -0.63444293951E+03  0.29138187717E+03 -0.57172882336E+02  0.70049266971E+03  0.00000000000E+00 0.  1.
<mgrwt>
<rscale>  0 0.13252352E+04</rscale>
<asrwt>0</asrwt>
<pdfrwt beam="1">  1        1 0.13958156E+00 0.13252352E+04</pdfrwt>
<pdfrwt beam="2">  1       -2 0.31877638E+00 0.13252352E+04</pdfrwt>
<totfact> 0.37143702E-01</totfact>
</mgrwt>
</event>
<event>
12    3  0.1182097E-007  0.1453801E+04  0.7818608E-02  0.8915770E-01
          1   -1    0    0  501    0  0.00000000000E+00  0.00000000000E+00  0.32608187976E+04  0.32608187976E+04  0.00000000000E+00 0. -1.
         -2   -1    0    0    0  501 -0.00000000000E+00 -0.00000000000E+00 -0.10545966143E+04  0.10545966143E+04  0.00000000000E+00 0.  1.
        -24    2    1    2    0    0 -0.13427164169E+04 -0.53160151855E+03  0.23345852699E+04  0.27462927488E+04  0.79673890399E+02 0.  0.
    5000000    2    1    2    0    0  0.13427164169E+04  0.53160151855E+03 -0.12836308665E+03  0.15691226630E+04  0.60015106345E+03 0.  0.
        -24    2    4    4    0    0  0.10887997995E+03 -0.11308982975E+02  0.13988923537E+03  0.19235104097E+03  0.73805024620E+02 0.  0.
         24    2    4    4    0    0  0.12338364369E+04  0.54291050152E+03 -0.26825232202E+03  0.13767716221E+04  0.80228581498E+02 0.  0.
         13    1    3    3    0    0 -0.67095643341E+03 -0.30445227465E+03  0.11576087560E+04  0.13721996047E+04  0.00000000000E+00 0. -1.
        -14    1    3    3    0    0 -0.67175998346E+03 -0.22714924389E+03  0.11769765139E+04  0.13740931441E+04  0.00000000000E+00 0.  1.
         15    1    5    5    0    0  0.40552971336E+02  0.86335410516E+01  0.76875760899E+01  0.42205900895E+02  0.17770000000E+01 0. -1.
        -16    1    5    5    0    0  0.68327008610E+02 -0.19942524027E+02  0.13220165928E+03  0.15014514007E+03  0.00000000000E+00 0.  1.
          4    1    6    6  502    0  0.67238950944E+03  0.26758964834E+03 -0.11277949768E+03  0.73241455980E+03  0.00000000000E+00 0. -1.
         -3    1    6    6    0  502  0.56144692749E+03  0.27532085318E+03 -0.15547282434E+03  0.64435706226E+03  0.00000000000E+00 0.  1.
<mgrwt>
<rscale>  0 0.14538005E+04</rscale>
<asrwt>0</asrwt>
<pdfrwt beam="1">  1        1 0.50166443E+00 0.14538005E+04</pdfrwt>
<pdfrwt beam="2">  1       -2 0.16224563E+00 0.14538005E+04</pdfrwt>
<totfact> 0.77677761E-02</totfact>
</mgrwt>
</event>
<event>
12    3  0.1182097E-007  0.1475817E+04  0.7818608E-02  0.8900696E-01
          1   -1    0    0  501    0  0.00000000000E+00  0.00000000000E+00  0.22376419300E+04  0.22376419300E+04  0.00000000000E+00 0. -1.
         -2   -1    0    0    0  501 -0.00000000000E+00 -0.00000000000E+00 -0.10843272346E+04  0.10843272346E+04  0.00000000000E+00 0.  1.
        -24    2    1    2    0    0 -0.67255570157E+03 -0.13053068237E+04  0.23522130293E+03  0.14892144391E+04  0.79205482396E+02 0.  0.
    5000000    2    1    2    0    0  0.67255570157E+03  0.13053068237E+04  0.91809339249E+03  0.18327547255E+04  0.59994777346E+03 0.  0.
        -24    2    4    4    0    0  0.35738583397E+03  0.86889110828E+03  0.87509715122E+03  0.12869458147E+04  0.87966547325E+02 0.  0.
         24    2    4    4    0    0  0.31516986760E+03  0.43641571544E+03  0.42996241279E+02  0.54580891087E+03  0.79170501453E+02 0.  0.
         11    1    3    3    0    0 -0.73550641245E+02 -0.18155659100E+03  0.11014033158E+02  0.19619837280E+03  0.00000000000E+00 0. -1.
        -12    1    3    3    0    0 -0.59900506033E+03 -0.11237502327E+04  0.22420726977E+03  0.12930160663E+04  0.00000000000E+00 0.  1.
         15    1    5    5    0    0  0.19552442426E+03  0.37401642177E+03  0.41998166412E+03  0.59540393025E+03  0.17770000000E+01 0. -1.
        -16    1    5    5    0    0  0.16186140971E+03  0.49487468651E+03  0.45511548710E+03  0.69154188441E+03  0.00000000000E+00 0.  1.
          2    1    6    6  502    0  0.22686204939E+03  0.28445142645E+03  0.61785039390E+02  0.36904795698E+03  0.00000000000E+00 0. -1.
         -1    1    6    6    0  502  0.88307818208E+02  0.15196428899E+03 -0.18788798111E+02  0.17676095389E+03  0.00000000000E+00 0.  1.
<mgrwt>
<rscale>  0 0.14758168E+04</rscale>
<asrwt>0</asrwt>
<pdfrwt beam="1">  1        1 0.34425261E+00 0.14758168E+04</pdfrwt>
<pdfrwt beam="2">  1       -2 0.16681957E+00 0.14758168E+04</pdfrwt>
<totfact> 0.38302894E-01</totfact>
</mgrwt>
</event>
<event>
12    3  0.1182097E-007  0.1556170E+04  0.7818608E-02  0.8847936E-01
          1   -1    0    0  501    0  0.00000000000E+00  0.00000000000E+00  0.31969531755E+04  0.31969531755E+04  0.00000000000E+00 0. -1.
         -2   -1    0    0    0  501 -0.00000000000E+00 -0.00000000000E+00 -0.97264504999E+03  0.97264504999E+03  0.00000000000E+00 0.  1.
        -24    2    1    2    0    0 -0.10654620978E+04  0.11230121217E+04  0.19433003430E+04  0.24858011413E+04  0.80158490042E+02 0.  0.
    5000000    2    1    2    0    0  0.10654620978E+04 -0.11230121217E+04  0.28100778242E+03  0.16837970841E+04  0.59986793492E+03 0.  0.
        -24    2    4    4    0    0  0.50494262476E+03 -0.39178964086E+03  0.38942475091E+03  0.75263126442E+03  0.79599036293E+02 0.  0.
         24    2    4    4    0    0  0.56051947307E+03 -0.73122248084E+03 -0.10841696848E+03  0.93116581971E+03  0.80294137813E+02 0.  0.
         11    1    3    3    0    0 -0.84520780785E+03  0.84219814862E+03  0.14894924612E+04  0.19084710508E+04  0.00000000000E+00 0. -1.
        -12    1    3    3    0    0 -0.22025428998E+03  0.28081397308E+03  0.45380788188E+03  0.57733009049E+03  0.00000000000E+00 0.  1.
         15    1    5    5    0    0  0.29565737460E+03 -0.23348717071E+03  0.27460901651E+03  0.46620039866E+03  0.17770000000E+01 0. -1.
        -16    1    5    5    0    0  0.20928525016E+03 -0.15830247015E+03  0.11481573440E+03  0.28643086575E+03  0.00000000000E+00 0.  1.
          4    1    6    6  502    0  0.40345886050E+03 -0.48241997168E+03 -0.10016495740E+03  0.63682108938E+03  0.00000000000E+00 0. -1.
         -3    1    6    6    0  502  0.15706061257E+03 -0.24880250916E+03 -0.82520110819E+01  0.29434473033E+03  0.00000000000E+00 0.  1.
<mgrwt>
<rscale>  0 0.15561700E+04</rscale>
<asrwt>0</asrwt>
<pdfrwt beam="1">  1        1 0.49183894E+00 0.15561700E+04</pdfrwt>
<pdfrwt beam="2">  1       -2 0.14963770E+00 0.15561700E+04</pdfrwt>
<totfact> 0.10669471E-01</totfact>
</mgrwt>
</event>
<event>
12    3  0.1182097E-007  0.2154505E+04  0.7818608E-02  0.8537606E-01
         -2   -1    0    0    0  501 -0.00000000000E+00  0.00000000000E+00  0.23832027645E+04  0.23832027645E+04  0.00000000000E+00 0.  1.
          1   -1    0    0  501    0  0.00000000000E+00 -0.00000000000E+00 -0.23392669094E+04  0.23392669094E+04  0.00000000000E+00 0. -1.
        -24    2    1    2    0    0  0.21061073898E+04  0.22684970411E+03  0.97351521604E+03  0.23326588423E+04  0.80101640238E+02 0.  0.
    5000000    2    1    2    0    0 -0.21061073898E+04 -0.22684970411E+03 -0.92957936087E+03  0.23898108316E+04  0.59994074461E+03 0.  0.
        -24    2    4    4    0    0 -0.15138155052E+04  0.92563879395E+02 -0.56773492758E+03  0.16214553257E+04  0.81172468357E+02 0.  0.
         24    2    4    4    0    0 -0.59229188461E+03 -0.31941358351E+03 -0.36184443329E+03  0.76835550593E+03  0.81265464260E+02 0.  0.
         13    1    3    3    0    0  0.14933992556E+04  0.17677851633E+03  0.65477743756E+03  0.16401906820E+04  0.00000000000E+00 0. -1.
        -14    1    3    3    0    0  0.61270813426E+03  0.50071187790E+02  0.31873777848E+03  0.69246816032E+03  0.00000000000E+00 0.  1.
         15    1    5    5    0    0 -0.87809280097E+03  0.32905423454E+02 -0.29213064347E+03  0.92599849060E+03  0.17770000000E+01 0. -1.
        -16    1    5    5    0    0 -0.63572270427E+03  0.59658455940E+02 -0.27560428411E+03  0.69545683511E+03  0.00000000000E+00 0.  1.
          2    1    6    6  502    0 -0.37892422693E+03 -0.19376510357E+03 -0.18493413225E+03  0.46403568655E+03  0.00000000000E+00 0. -1.
         -1    1    6    6    0  502 -0.21336765767E+03 -0.12564847994E+03 -0.17691030104E+03  0.30431981938E+03  0.00000000000E+00 0.  1.
<mgrwt>
<rscale>  0 0.21545052E+04</rscale>
<asrwt>0</asrwt>
<pdfrwt beam="1">  1        1 0.35988722E+00 0.21545052E+04</pdfrwt>
<pdfrwt beam="2">  1       -2 0.36664658E+00 0.21545052E+04</pdfrwt>
<totfact> 0.16290294E-02</totfact>
</mgrwt>
</event>
<event>
12    3  0.1182097E-007  0.7941563E+03  0.7818608E-02  0.9568514E-01
         -2   -1    0    0    0  501 -0.00000000000E+00  0.00000000000E+00  0.77051651203E+03  0.77051651203E+03  0.00000000000E+00 0.  1.
          1   -1    0    0  501    0  0.00000000000E+00 -0.00000000000E+00 -0.10189865077E+04  0.10189865077E+04  0.00000000000E+00 0. -1.
        -24    2    1    2    0    0 -0.70109523681E+03 -0.25450432684E+02 -0.45972989135E+03  0.84242764383E+03  0.78425164915E+02 0.  0.
    5000000    2    1    2    0    0  0.70109523681E+03  0.25450432684E+02  0.21125989570E+03  0.94707537589E+03  0.60011562926E+03 0.  0.
        -24    2    4    4    0    0  0.16700781851E+03  0.24962934054E+03  0.18634744754E+03  0.36211635072E+03  0.78717603805E+02 0.  0.
         24    2    4    4    0    0  0.53408741829E+03 -0.22417890786E+03  0.24912448157E+02  0.58495902517E+03  0.77787389356E+02 0.  0.
         13    1    3    3    0    0 -0.13495404943E+03 -0.56300432709E+01 -0.53226507081E+02  0.14518041845E+03  0.00000000000E+00 0. -1.
        -14    1    3    3    0    0 -0.56614118738E+03 -0.19820389413E+02 -0.40650338427E+03  0.69724722538E+03  0.00000000000E+00 0.  1.
         15    1    5    5    0    0  0.29120155167E+02  0.77724183608E+02  0.87413280666E+02  0.12055401910E+03  0.17770000000E+01 0. -1.
        -16    1    5    5    0    0  0.13788766335E+03  0.17190515693E+03  0.98934166874E+02  0.24156233162E+03  0.00000000000E+00 0.  1.
          4    1    6    6  502    0  0.82997816479E+02 -0.63519261766E+02 -0.90782000872E+01  0.10490828314E+03  0.00000000000E+00 0. -1.
         -3    1    6    6    0  502  0.45108960182E+03 -0.16065964609E+03  0.33990648244E+02  0.48005074202E+03  0.00000000000E+00 0.  1.
<mgrwt>
<rscale>  0 0.79415630E+03</rscale>
<asrwt>0</asrwt>
<pdfrwt beam="1">  1        1 0.15676715E+00 0.79415630E+03</pdfrwt>
<pdfrwt beam="2">  1       -2 0.11854100E+00 0.79415630E+03</pdfrwt>
<totfact> 0.71530041E+00</totfact>
</mgrwt>
</event>
<event>
12    3  0.1182097E-007  0.6576581E+03  0.7818608E-02  0.9792514E-01
         -2   -1    0    0    0  501 -0.00000000000E+00  0.00000000000E+00  0.49290501728E+03  0.49290501728E+03  0.00000000000E+00 0.  1.
          1   -1    0    0  501    0  0.00000000000E+00 -0.00000000000E+00 -0.13263730865E+04  0.13263730865E+04  0.00000000000E+00 0. -1.
        -24    2    1    2    0    0 -0.26198339519E+02  0.63367667743E+03 -0.67919369736E+03  0.93272666825E+03  0.80265027264E+02 0.  0.
    5000000    2    1    2    0    0  0.26198339519E+02 -0.63367667743E+03 -0.15427437186E+03  0.88655143553E+03  0.59995031587E+03 0.  0.
        -24    2    4    4    0    0 -0.72185082894E+02 -0.49483985661E+03 -0.34963929187E+03  0.61560702993E+03  0.81530429880E+02 0.  0.
         24    2    4    4    0    0  0.98383422413E+02 -0.13883682082E+03  0.19536492001E+03  0.27094440560E+03  0.79299800345E+02 0.  0.
         13    1    3    3    0    0 -0.23778449594E+02  0.22527831032E+03 -0.29565484766E+03  0.37246143520E+03  0.00000000000E+00 0. -1.
        -14    1    3    3    0    0 -0.24198899252E+01  0.40839836712E+03 -0.38353884970E+03  0.56026523305E+03  0.00000000000E+00 0.  1.
         15    1    5    5    0    0 -0.32297412235E+02 -0.40099935967E+03 -0.25379160434E+03  0.47566474061E+03  0.17770000000E+01 0. -1.
        -16    1    5    5    0    0 -0.39887670659E+02 -0.93840496943E+02 -0.95847687526E+02  0.13994228932E+03  0.00000000000E+00 0.  1.
          2    1    6    6  502    0  0.30143654187E+02 -0.81794465111E+02  0.49901064470E+02  0.10044446548E+03  0.00000000000E+00 0. -1.
         -1    1    6    6    0  502  0.68239768226E+02 -0.57042355711E+02  0.14546385554E+03  0.17049994012E+03  0.00000000000E+00 0.  1.
<mgrwt>
<rscale>  0 0.65765810E+03</rscale>
<asrwt>0</asrwt>
<pdfrwt beam="1">  1        1 0.20405739E+00 0.65765810E+03</pdfrwt>
<pdfrwt beam="2">  1       -2 0.75831542E-01 0.65765810E+03</pdfrwt>
<totfact> 0.12335143E+01</totfact>
</mgrwt>
</event>
<event>
12    3  0.1182097E-007  0.2022806E+04  0.7818608E-02  0.8596032E-01
          1   -1    0    0  501    0  0.00000000000E+00  0.00000000000E+00  0.41278190945E+04  0.41278190945E+04  0.00000000000E+00 0. -1.
         -2   -1    0    0    0  501 -0.00000000000E+00 -0.00000000000E+00 -0.10060372926E+04  0.10060372926E+04  0.00000000000E+00 0.  1.
        -24    2    1    2    0    0  0.19663973651E+04 -0.22092592644E+03  0.18258021417E+04  0.26935914324E+04  0.79715001962E+02 0.  0.
    5000000    2    1    2    0    0 -0.19663973651E+04  0.22092592644E+03  0.12959796603E+04  0.24402649547E+04  0.59983573318E+03 0.  0.
        -24    2    4    4    0    0 -0.15424772542E+04 -0.71904593129E+02  0.95704383668E+03  0.18184044947E+04  0.79092672967E+02 0.  0.
         24    2    4    4    0    0 -0.42392011092E+03  0.29283051957E+03  0.33893582360E+03  0.62186045997E+03  0.79843381226E+02 0.  0.
         11    1    3    3    0    0  0.12905415374E+04 -0.18146810309E+03  0.12161879675E+04  0.17825659327E+04  0.00000000000E+00 0. -1.
        -12    1    3    3    0    0  0.67585582769E+03 -0.39457823350E+02  0.60961417417E+03  0.91102549964E+03  0.00000000000E+00 0.  1.
         15    1    5    5    0    0 -0.80902316013E+03 -0.52838056812E+02  0.45944573683E+03  0.93188190061E+03  0.17770000000E+01 0. -1.
        -16    1    5    5    0    0 -0.73345409408E+03 -0.19066536318E+02  0.49759809985E+03  0.88652259413E+03  0.00000000000E+00 0.  1.
          4    1    6    6  502    0 -0.94489423218E+02  0.10676378610E+03  0.10452664604E+03  0.17678398359E+03  0.00000000000E+00 0. -1.
         -3    1    6    6    0  502 -0.32943068770E+03  0.18606673347E+03  0.23440917756E+03  0.44507647638E+03  0.00000000000E+00 0.  1.
<mgrwt>
<rscale>  0 0.20228062E+04</rscale>
<asrwt>0</asrwt>
<pdfrwt beam="1">  1        1 0.63504908E+00 0.20228062E+04</pdfrwt>
<pdfrwt beam="2">  1       -2 0.15477497E+00 0.20228062E+04</pdfrwt>
<totfact> 0.16050601E-02</totfact>
</mgrwt>
</event>
<event>
12    3  0.1182097E-007  0.1055175E+04  0.7818608E-02  0.9250017E-01
         -2   -1    0    0    0  501 -0.00000000000E+00  0.00000000000E+00  0.15996662742E+04  0.15996662742E+04  0.00000000000E+00 0.  1.
          1   -1    0    0  501    0  0.00000000000E+00 -0.00000000000E+00 -0.75417216715E+03  0.75417216715E+03  0.00000000000E+00 0. -1.
        -24    2    1    2    0    0 -0.50896374344E+03 -0.83110168587E+03  0.69417388560E+03  0.11994368815E+04  0.83650134105E+02 0.  0.
    5000000    2    1    2    0    0  0.50896374344E+03  0.83110168587E+03  0.15132022144E+03  0.11544015598E+04  0.59997587240E+03 0.  0.
        -24    2    4    4    0    0  0.18723739002E+02  0.57095675518E+03  0.14406424064E+03  0.59453542230E+03  0.79847781697E+02 0.  0.
         24    2    4    4    0    0  0.49024000444E+03  0.26014493069E+03  0.72559807934E+01  0.55986613750E+03  0.73394793780E+02 0.  0.
         13    1    3    3    0    0 -0.11059185174E+03 -0.22736145976E+03  0.21398032523E+03  0.33122706810E+03  0.00000000000E+00 0. -1.
        -14    1    3    3    0    0 -0.39837189170E+03 -0.60374022611E+03  0.48019356036E+03  0.86820981343E+03  0.00000000000E+00 0.  1.
         15    1    5    5    0    0 -0.31020123224E+02  0.24832892534E+03  0.56723090622E+02  0.25661287954E+03  0.17770000000E+01 0. -1.
        -16    1    5    5    0    0  0.49743862226E+02  0.32262782984E+03  0.87341150020E+02  0.33792254276E+03  0.00000000000E+00 0.  1.
          4    1    6    6  502    0  0.10589841640E+03  0.32440434692E+02 -0.18962090384E+02  0.11236733187E+03  0.00000000000E+00 0. -1.
         -3    1    6    6    0  502  0.38434158804E+03  0.22770449600E+03  0.26218071177E+02  0.44749880564E+03  0.00000000000E+00 0.  1.
<mgrwt>
<rscale>  0 0.10551751E+04</rscale>
<asrwt>0</asrwt>
<pdfrwt beam="1">  1        1 0.11602649E+00 0.10551751E+04</pdfrwt>
<pdfrwt beam="2">  1       -2 0.24610250E+00 0.10551751E+04</pdfrwt>
<totfact> 0.14373903E+00</totfact>
</mgrwt>
</event>
<event>
12    3  0.1182097E-007  0.6707437E+03  0.7818608E-02  0.9768615E-01
          1   -1    0    0  501    0  0.00000000000E+00  0.00000000000E+00  0.85854707843E+03  0.85854707843E+03  0.00000000000E+00 0. -1.
         -2   -1    0    0    0  501 -0.00000000000E+00 -0.00000000000E+00 -0.81823973698E+03  0.81823973698E+03  0.00000000000E+00 0.  1.
        -24    2    1    2    0    0 -0.66201744552E+03  0.57253508670E+00  0.32134779774E+03  0.74017744997E+03  0.79566477560E+02 0.  0.
    5000000    2    1    2    0    0  0.66201744552E+03 -0.57253508670E+00 -0.28104045629E+03  0.93660936545E+03  0.59998828271E+03 0.  0.
        -24    2    4    4    0    0  0.37720436912E+03  0.51422674637E+02 -0.44777858733E+03  0.59302776216E+03  0.79049578593E+02 0.  0.
         24    2    4    4    0    0  0.28481307641E+03 -0.51995209723E+02  0.16673813104E+03  0.34358160329E+03  0.80154372612E+02 0.  0.
         11    1    3    3    0    0 -0.40932186458E+03  0.52916615709E+01  0.15557322318E+03  0.43792170336E+03  0.00000000000E+00 0. -1.
        -12    1    3    3    0    0 -0.25269558094E+03 -0.47191264842E+01  0.16577457457E+03  0.30225574660E+03  0.00000000000E+00 0.  1.
         15    1    5    5    0    0  0.34390793699E+02 -0.13335199114E+02 -0.67628894848E+02  0.77054392309E+02  0.17770000000E+01 0. -1.
        -16    1    5    5    0    0  0.34281357542E+03  0.64757873751E+02 -0.38014969248E+03  0.51597336985E+03  0.00000000000E+00 0.  1.
          4    1    6    6  502    0  0.38809214734E+02  0.96209150187E+01 -0.16565301429E+00  0.39984304358E+02  0.00000000000E+00 0. -1.
         -1    1    6    6    0  502  0.24600386167E+03 -0.61616124742E+02  0.16690378405E+03  0.30359729893E+03  0.00000000000E+00 0.  1.
<mgrwt>
<rscale>  0 0.67074373E+03</rscale>
<asrwt>0</asrwt>
<pdfrwt beam="1">  1        1 0.13208417E+00 0.67074373E+03</pdfrwt>
<pdfrwt beam="2">  1       -2 0.12588304E+00 0.67074373E+03</pdfrwt>
<totfact> 0.83988642E+00</totfact>
</mgrwt>
</event>
<event>
12    3  0.1182097E-007  0.9591926E+03  0.7818608E-02  0.9354470E-01
         -2   -1    0    0    0  501 -0.00000000000E+00  0.00000000000E+00  0.18788743152E+04  0.18788743152E+04  0.00000000000E+00 0.  1.
          1   -1    0    0  501    0  0.00000000000E+00 -0.00000000000E+00 -0.54838973453E+03  0.54838973453E+03  0.00000000000E+00 0. -1.
        -24    2    1    2    0    0  0.47009170598E+03 -0.75715195979E+03  0.31426448982E+03  0.94840595765E+03  0.80289405903E+02 0.  0.
    5000000    2    1    2    0    0 -0.47009170598E+03  0.75715195979E+03  0.10162200908E+04  0.14788580920E+04  0.60004389935E+03 0.  0.
        -24    2    4    4    0    0  0.15044521930E+01 -0.68805107846E+02  0.37169533417E+02  0.11151508044E+03  0.79483537347E+02 0.  0.
         24    2    4    4    0    0 -0.47159615817E+03  0.82595706764E+03  0.97905055740E+03  0.13673430116E+04  0.80491635730E+02 0.  0.
         11    1    3    3    0    0  0.24280056022E+03 -0.31925833494E+03  0.12754182202E+03  0.42088586676E+03  0.00000000000E+00 0. -1.
        -12    1    3    3    0    0  0.22729114576E+03 -0.43789362485E+03  0.18672266780E+03  0.52752009089E+03  0.00000000000E+00 0.  1.
         15    1    5    5    0    0 -0.94865697066E+01 -0.50387798464E+02  0.60832854354E+02  0.79578383602E+02  0.17770000000E+01 0. -1.
        -16    1    5    5    0    0  0.10991021900E+02 -0.18417309382E+02 -0.23663320936E+02  0.31936696840E+02  0.00000000000E+00 0.  1.
          2    1    6    6  502    0 -0.65499288122E+02  0.10737256938E+03  0.17084293977E+03  0.21214696667E+03  0.00000000000E+00 0. -1.
         -1    1    6    6    0  502 -0.40609687005E+03  0.71858449826E+03  0.80820761763E+03  0.11551960449E+04  0.00000000000E+00 0.  1.
<mgrwt>
<rscale>  0 0.95919256E+03</rscale>
<asrwt>0</asrwt>
<pdfrwt beam="1">  1        1 0.84367653E-01 0.95919256E+03</pdfrwt>
<pdfrwt beam="2">  1       -2 0.28905758E+00 0.95919256E+03</pdfrwt>
<totfact> 0.12816620E+00</totfact>
</mgrwt>
</event>
<event>
12    3  0.1182097E-007  0.1868480E+04  0.7818608E-02  0.8670707E-01
          1   -1    0    0  501    0  0.00000000000E+00  0.00000000000E+00  0.39431583541E+04  0.39431583541E+04  0.00000000000E+00 0. -1.
         -2   -1    0    0    0  501 -0.00000000000E+00 -0.00000000000E+00 -0.20858356183E+04  0.20858356183E+04  0.00000000000E+00 0.  1.
        -24    2    1    2    0    0 -0.14430896232E+04  0.11179293284E+04  0.31998963926E+04  0.36848413116E+04  0.80280283731E+02 0.  0.
    5000000    2    1    2    0    0  0.14430896232E+04 -0.11179293284E+04 -0.13425736568E+04  0.23441526609E+04  0.60022831441E+03 0.  0.
        -24    2    4    4    0    0  0.14274492774E+04 -0.91241679768E+03 -0.11333782967E+04  0.20398390466E+04  0.79253519343E+02 0.  0.
         24    2    4    4    0    0  0.15640345753E+02 -0.20551253075E+03 -0.20919536010E+03  0.30431361421E+03  0.79775036176E+02 0.  0.
         13    1    3    3    0    0 -0.94613813536E+03  0.70212130673E+03  0.20040938479E+04  0.23247674834E+04  0.00000000000E+00 0. -1.
        -14    1    3    3    0    0 -0.49695148783E+03  0.41580802170E+03  0.11958025447E+04  0.13600738282E+04  0.00000000000E+00 0.  1.
         15    1    5    5    0    0  0.44382276165E+02 -0.21842618608E+02 -0.19485592313E+02  0.53195229692E+02  0.17770000000E+01 0. -1.
        -16    1    5    5    0    0  0.13830670013E+04 -0.89057417907E+03 -0.11138927044E+04  0.19866438170E+04  0.00000000000E+00 0.  1.
          2    1    6    6  502    0  0.41174017567E+02 -0.14217582149E+03 -0.11242001370E+03  0.18586964093E+03  0.00000000000E+00 0. -1.
         -1    1    6    6    0  502 -0.25533671814E+02 -0.63336709262E+02 -0.96775346402E+02  0.11844397329E+03  0.00000000000E+00 0.  1.
<mgrwt>
<rscale>  0 0.18684796E+04</rscale>
<asrwt>0</asrwt>
<pdfrwt beam="1">  1        1 0.60663975E+00 0.18684796E+04</pdfrwt>
<pdfrwt beam="2">  1       -2 0.32089779E+00 0.18684796E+04</pdfrwt>
<totfact> 0.20061327E-03</totfact>
</mgrwt>
</event>
<event>
12    3  0.1182097E-007  0.1721320E+04  0.7818608E-02  0.8749297E-01
          1   -1    0    0  501    0  0.00000000000E+00  0.00000000000E+00  0.12601468119E+04  0.12601468119E+04  0.00000000000E+00 0. -1.
         -2   -1    0    0    0  501 -0.00000000000E+00 -0.00000000000E+00 -0.26686933422E+04  0.26686933422E+04  0.00000000000E+00 0.  1.
        -24    2    1    2    0    0  0.81108089980E+03 -0.14695693461E+04 -0.13327905496E+04  0.21446588647E+04  0.75793851067E+02 0.  0.
    5000000    2    1    2    0    0 -0.81108089980E+03  0.14695693461E+04 -0.75755980601E+02  0.17841812894E+04  0.60006467633E+03 0.  0.
        -24    2    4    4    0    0 -0.48063789910E+03  0.12977723889E+04 -0.14446889941E+03  0.13936727493E+04  0.78908211342E+02 0.  0.
         24    2    4    4    0    0 -0.33044300070E+03  0.17179695721E+03  0.68712918814E+02  0.39050854009E+03  0.95229635366E+02 0.  0.
         13    1    3    3    0    0  0.12492809321E+03 -0.28734222148E+03 -0.24680767730E+03  0.39885662874E+03  0.00000000000E+00 0. -1.
        -14    1    3    3    0    0  0.68615280659E+03 -0.11822271246E+04 -0.10859828723E+04  0.17458022360E+04  0.00000000000E+00 0.  1.
         15    1    5    5    0    0 -0.16602754354E+03  0.52166900603E+03 -0.86225011773E+02  0.55420357943E+03  0.17770000000E+01 0. -1.
        -16    1    5    5    0    0 -0.31461035556E+03  0.77610338285E+03 -0.58243887642E+02  0.83946916986E+03  0.00000000000E+00 0.  1.
          2    1    6    6  502    0 -0.74687959597E+02  0.11261829653E+02  0.44287175779E+02  0.87558403676E+02  0.00000000000E+00 0. -1.
         -1    1    6    6    0  502 -0.25575504110E+03  0.16053512756E+03  0.24425743035E+02  0.30295013641E+03  0.00000000000E+00 0.  1.
<mgrwt>
<rscale>  0 0.17213204E+04</rscale>
<asrwt>0</asrwt>
<pdfrwt beam="1">  1        1 0.19386874E+00 0.17213204E+04</pdfrwt>
<pdfrwt beam="2">  1       -2 0.41056821E+00 0.17213204E+04</pdfrwt>
<totfact> 0.49464106E-02</totfact>
</mgrwt>
</event>
<event>
12    3  0.1182097E-007  0.7292868E+03  0.7818608E-02  0.9668418E-01
         -2   -1    0    0    0  501 -0.00000000000E+00  0.00000000000E+00  0.11754890717E+04  0.11754890717E+04  0.00000000000E+00 0.  1.
          1   -1    0    0  501    0  0.00000000000E+00 -0.00000000000E+00 -0.68554401900E+03  0.68554401900E+03  0.00000000000E+00 0. -1.
        -24    2    1    2    0    0  0.56269266204E+03 -0.29603712135E+03  0.71314972938E+03  0.95871959671E+03  0.79370772056E+02 0.  0.
    5000000    2    1    2    0    0 -0.56269266204E+03  0.29603712135E+03 -0.22320467667E+03  0.90231349400E+03  0.60007358269E+03 0.  0.
        -24    2    4    4    0    0 -0.16300822951E+03  0.36570290019E+03  0.44456385472E+02  0.41052870046E+03  0.79038911896E+02 0.  0.
         24    2    4    4    0    0 -0.39968443253E+03 -0.69665778841E+02 -0.26766106214E+03  0.49178479354E+03  0.74892406984E+02 0.  0.
         13    1    3    3    0    0  0.35854732730E+03 -0.15474384015E+03  0.47204841508E+03  0.61264308382E+03  0.00000000000E+00 0. -1.
        -14    1    3    3    0    0  0.20414533474E+03 -0.14129328121E+03  0.24110131430E+03  0.34607651288E+03  0.00000000000E+00 0.  1.
         15    1    5    5    0    0 -0.11448353722E+03  0.16032451499E+03  0.25260050370E+02  0.19862441510E+03  0.17770000000E+01 0. -1.
        -16    1    5    5    0    0 -0.48524692286E+02  0.20537838520E+03  0.19196335102E+02  0.21190428536E+03  0.00000000000E+00 0.  1.
          2    1    6    6  502    0 -0.12588724270E+03  0.10843327298E+02 -0.96668942561E+02  0.15909135764E+03  0.00000000000E+00 0. -1.
         -1    1    6    6    0  502 -0.27379718983E+03 -0.80509106139E+02 -0.17099211958E+03  0.33269343590E+03  0.00000000000E+00 0.  1.
<mgrwt>
<rscale>  0 0.72928682E+03</rscale>
<asrwt>0</asrwt>
<pdfrwt beam="1">  1        1 0.10546831E+00 0.72928682E+03</pdfrwt>
<pdfrwt beam="2">  1       -2 0.18084447E+00 0.72928682E+03</pdfrwt>
<totfact> 0.45274600E+00</totfact>
</mgrwt>
</event>
<event>
12    3  0.1182097E-007  0.3441939E+03  0.7818608E-02  0.1065024E+00
         -2   -1    0    0    0  501 -0.00000000000E+00  0.00000000000E+00  0.62425984212E+03  0.62425984212E+03  0.00000000000E+00 0.  1.
          1   -1    0    0  501    0  0.00000000000E+00 -0.00000000000E+00 -0.50049072207E+03  0.50049072207E+03  0.00000000000E+00 0. -1.
        -24    2    1    2    0    0  0.31227200226E+03  0.46671241637E+02  0.27961168580E+03  0.42913350900E+03  0.79251911788E+02 0.  0.
    5000000    2    1    2    0    0 -0.31227200226E+03 -0.46671241637E+02 -0.15584256575E+03  0.69561705519E+03  0.59992013967E+03 0.  0.
        -24    2    4    4    0    0 -0.21563035440E+03 -0.93635551866E+02 -0.36845231792E+03  0.44416511224E+03  0.79129451149E+02 0.  0.
         24    2    4    4    0    0 -0.96641647858E+02  0.46964310229E+02  0.21260975217E+03  0.25145194295E+03  0.80497940076E+02 0.  0.
         13    1    3    3    0    0  0.51774249487E+02  0.36465407797E+02  0.71852233411E+02  0.95776000761E+02  0.00000000000E+00 0. -1.
        -14    1    3    3    0    0  0.26049775277E+03  0.10205833840E+02  0.20775945239E+03  0.33335750824E+03  0.00000000000E+00 0.  1.
         15    1    5    5    0    0 -0.65235402922E+02 -0.67673149718E+02 -0.11796243884E+03  0.15084299020E+03  0.17770000000E+01 0. -1.
        -16    1    5    5    0    0 -0.15039495148E+03 -0.25962402148E+02 -0.25048987908E+03  0.29332212204E+03  0.00000000000E+00 0.  1.
          4    1    6    6  502    0 -0.26629887189E-01 -0.70446074704E+01  0.72759370438E+02  0.73099611423E+02  0.00000000000E+00 0. -1.
         -3    1    6    6    0  502 -0.96615017971E+02  0.54008917700E+02  0.13985038173E+03  0.17835233152E+03  0.00000000000E+00 0.  1.
<mgrwt>
<rscale>  0 0.34419395E+03</rscale>
<asrwt>0</asrwt>
<pdfrwt beam="1">  1        1 0.76998573E-01 0.34419395E+03</pdfrwt>
<pdfrwt beam="2">  1       -2 0.96039976E-01 0.34419395E+03</pdfrwt>
<totfact> 0.37362613E+01</totfact>
</mgrwt>
</event>
<event>
12    3  0.1182097E-007  0.7571980E+03  0.7818608E-02  0.9624125E-01
         -2   -1    0    0    0  501 -0.00000000000E+00  0.00000000000E+00  0.10352922248E+04  0.10352922248E+04  0.00000000000E+00 0.  1.
          1   -1    0    0  501    0  0.00000000000E+00 -0.00000000000E+00 -0.66271936636E+03  0.66271936636E+03  0.00000000000E+00 0. -1.
        -24    2    1    2    0    0  0.44567146421E+03  0.51510308093E+03  0.39145595355E+03  0.79010774750E+03  0.84132342714E+02 0.  0.
    5000000    2    1    2    0    0 -0.44567146421E+03 -0.51510308093E+03 -0.18883095093E+02  0.90790384368E+03  0.59998214981E+03 0.  0.
        -24    2    4    4    0    0 -0.83267923310E+02  0.78913434987E+02  0.13528240948E+03  0.19055038375E+03  0.69622131244E+02 0.  0.
         24    2    4    4    0    0 -0.36240354090E+03 -0.59401651592E+03 -0.15416550457E+03  0.71735345993E+03  0.81468006195E+02 0.  0.
         13    1    3    3    0    0  0.18305239216E+03  0.25712818501E+03  0.14684418990E+03  0.34811822404E+03  0.00000000000E+00 0. -1.
        -14    1    3    3    0    0  0.26261907205E+03  0.25797489592E+03  0.24461176366E+03  0.44198952346E+03  0.00000000000E+00 0.  1.
         15    1    5    5    0    0 -0.88549759483E+02  0.87065029202E+02  0.12198254248E+03  0.17408123855E+03  0.17770000000E+01 0. -1.
        -16    1    5    5    0    0  0.52818361729E+01 -0.81515942150E+01  0.13299866995E+02  0.16469145202E+02  0.00000000000E+00 0.  1.
          4    1    6    6  502    0 -0.28368623056E+03 -0.49121376587E+03 -0.15436102283E+03  0.58787427784E+03  0.00000000000E+00 0. -1.
         -3    1    6    6    0  502 -0.78717310347E+02 -0.10280275005E+03  0.19551825468E+00  0.12947918209E+03  0.00000000000E+00 0.  1.
<mgrwt>
<rscale>  0 0.75719797E+03</rscale>
<asrwt>0</asrwt>
<pdfrwt beam="1">  1        1 0.10195683E+00 0.75719797E+03</pdfrwt>
<pdfrwt beam="2">  1       -2 0.15927573E+00 0.75719797E+03</pdfrwt>
<totfact> 0.67491531E+00</totfact>
</mgrwt>
</event>
<event>
12    3  0.1182097E-007  0.8314992E+03  0.7818608E-02  0.9515510E-01
         -2   -1    0    0    0  501 -0.00000000000E+00  0.00000000000E+00  0.10690855051E+04  0.10690855051E+04  0.00000000000E+00 0.  1.
          1   -1    0    0  501    0  0.00000000000E+00 -0.00000000000E+00 -0.10223131866E+04  0.10223131866E+04  0.00000000000E+00 0. -1.
        -24    2    1    2    0    0  0.87023771547E+02  0.80068449855E+03 -0.49623619111E+03  0.94935014289E+03  0.79665132974E+02 0.  0.
    5000000    2    1    2    0    0 -0.87023771547E+02 -0.80068449855E+03  0.54300850966E+03  0.11420485488E+04  0.60062287936E+03 0.  0.
        -24    2    4    4    0    0  0.75715320491E+02 -0.55336186557E+03  0.56807185399E+02  0.56701244550E+03  0.79585758925E+02 0.  0.
         24    2    4    4    0    0 -0.16273909204E+03 -0.24732263298E+03  0.48620132426E+03  0.57503610329E+03  0.81377487749E+02 0.  0.
         11    1    3    3    0    0  0.31345902832E+02  0.17576731814E+03 -0.14724174503E+03  0.23142352350E+03  0.00000000000E+00 0. -1.
        -12    1    3    3    0    0  0.55677868715E+02  0.62491718041E+03 -0.34899444608E+03  0.71792661939E+03  0.00000000000E+00 0.  1.
         15    1    5    5    0    0  0.50444313255E+02 -0.18533331350E+03 -0.89953138811E+01  0.19229440770E+03  0.17770000000E+01 0. -1.
        -16    1    5    5    0    0  0.25271007236E+02 -0.36802855207E+03  0.65802499280E+02  0.37471803780E+03  0.00000000000E+00 0.  1.
          2    1    6    6  502    0 -0.14807250083E+03 -0.22696297565E+03  0.47642922951E+03  0.54810808108E+03  0.00000000000E+00 0. -1.
         -1    1    6    6    0  502 -0.14666591204E+02 -0.20359657333E+02  0.97720947562E+01  0.26928022211E+02  0.00000000000E+00 0.  1.
<mgrwt>
<rscale>  0 0.83149918E+03</rscale>
<asrwt>0</asrwt>
<pdfrwt beam="1">  1        1 0.15727895E+00 0.83149918E+03</pdfrwt>
<pdfrwt beam="2">  1       -2 0.16447469E+00 0.83149918E+03</pdfrwt>
<totfact> 0.30245039E+00</totfact>
</mgrwt>
</event>
<event>
12    3  0.1182097E-007  0.7449621E+03  0.7818608E-02  0.9643287E-01
          1   -1    0    0  501    0  0.00000000000E+00  0.00000000000E+00  0.20226640929E+04  0.20226640929E+04  0.00000000000E+00 0. -1.
         -2   -1    0    0    0  501 -0.00000000000E+00 -0.00000000000E+00 -0.58651030499E+03  0.58651030499E+03  0.00000000000E+00 0.  1.
        -24    2    1    2    0    0 -0.33394752744E+03 -0.52866503119E+03 -0.27743233982E+03  0.68892012884E+03  0.81452897145E+02 0.  0.
    5000000    2    1    2    0    0  0.33394752744E+03  0.52866503119E+03  0.17135861277E+04  0.19202542691E+04  0.59999281193E+03 0.  0.
        -24    2    4    4    0    0  0.49632721929E+03  0.37977987665E+03  0.11820830887E+04  0.13394021261E+04  0.78129145948E+02 0.  0.
         24    2    4    4    0    0 -0.16237969185E+03  0.14888515454E+03  0.53150303906E+03  0.58085214299E+03  0.79748215786E+02 0.  0.
         13    1    3    3    0    0 -0.17607418139E+03 -0.31930131853E+03 -0.19808622614E+03  0.41496216978E+03  0.00000000000E+00 0. -1.
        -14    1    3    3    0    0 -0.15787334605E+03 -0.20936371266E+03 -0.79346113683E+02  0.27395795906E+03  0.00000000000E+00 0.  1.
         15    1    5    5    0    0  0.11914469673E+03  0.13420170776E+03  0.31942900198E+03  0.36639268847E+03  0.17770000000E+01 0. -1.
        -16    1    5    5    0    0  0.37718252256E+03  0.24557816889E+03  0.86265408671E+03  0.97300943761E+03  0.00000000000E+00 0.  1.
          2    1    6    6  502    0 -0.96116747940E+02  0.13516883926E+03  0.35542882689E+03  0.39222276238E+03  0.00000000000E+00 0. -1.
         -1    1    6    6    0  502 -0.66262943913E+02  0.13716315283E+02  0.17607421216E+03  0.18862938061E+03  0.00000000000E+00 0.  1.
<mgrwt>
<rscale>  0 0.74496207E+03</rscale>
<asrwt>0</asrwt>
<pdfrwt beam="1">  1        1 0.31117909E+00 0.74496207E+03</pdfrwt>
<pdfrwt beam="2">  1       -2 0.90232356E-01 0.74496207E+03</pdfrwt>
<totfact> 0.27735771E+00</totfact>
</mgrwt>
</event>
<event>
12    3  0.1182097E-007  0.4492976E+03  0.7818608E-02  0.1027932E+00
          1   -1    0    0  501    0  0.00000000000E+00  0.00000000000E+00  0.76807224827E+03  0.76807224827E+03  0.00000000000E+00 0. -1.
         -2   -1    0    0    0  501 -0.00000000000E+00 -0.00000000000E+00 -0.45699832383E+03  0.45699832383E+03  0.00000000000E+00 0.  1.
        -24    2    1    2    0    0  0.11942103316E+03 -0.40773917306E+03  0.21852667763E+03  0.48407803059E+03  0.77878202701E+02 0.  0.
    5000000    2    1    2    0    0 -0.11942103316E+03  0.40773917306E+03  0.92547246813E+02  0.74099254152E+03  0.59999361437E+03 0.  0.
        -24    2    4    4    0    0  0.57716126610E+01  0.28916206657E+03 -0.22212549364E+03  0.37359270120E+03  0.81140367309E+02 0.  0.
         24    2    4    4    0    0 -0.12519264582E+03  0.11857710650E+03  0.31467274046E+03  0.36739984032E+03  0.78930224421E+02 0.  0.
         13    1    3    3    0    0  0.29109090942E+02 -0.18612887207E+03  0.62881519836E+02  0.19860861444E+03  0.00000000000E+00 0. -1.
        -14    1    3    3    0    0  0.90311942216E+02 -0.22161030099E+03  0.15564515779E+03  0.28546941615E+03  0.00000000000E+00 0.  1.
         15    1    5    5    0    0 -0.32530734522E+02  0.15907105321E+03 -0.97403437811E+02  0.18934739524E+03  0.17770000000E+01 0. -1.
        -16    1    5    5    0    0  0.38302347183E+02  0.13009101336E+03 -0.12472205583E+03  0.18424530596E+03  0.00000000000E+00 0.  1.
          4    1    6    6  502    0 -0.98801203881E+02  0.86007704922E+02  0.15811714691E+03  0.20532909034E+03  0.00000000000E+00 0. -1.
         -3    1    6    6    0  502 -0.26391441939E+02  0.32569401574E+02  0.15655559355E+03  0.16207074998E+03  0.00000000000E+00 0.  1.
<mgrwt>
<rscale>  0 0.44929755E+03</rscale>
<asrwt>0</asrwt>
<pdfrwt beam="1">  1        1 0.11816496E+00 0.44929755E+03</pdfrwt>
<pdfrwt beam="2">  1       -2 0.70307435E-01 0.44929755E+03</pdfrwt>
<totfact> 0.40080283E+01</totfact>
</mgrwt>
</event>
<event>
12    3  0.1182097E-007  0.5254188E+03  0.7818608E-02  0.1007349E+00
         -2   -1    0    0    0  501 -0.00000000000E+00  0.00000000000E+00  0.46013952439E+03  0.46013952439E+03  0.00000000000E+00 0.  1.
          1   -1    0    0  501    0  0.00000000000E+00 -0.00000000000E+00 -0.78414121639E+03  0.78414121639E+03  0.00000000000E+00 0. -1.
        -24    2    1    2    0    0 -0.39260468208E+03 -0.29581277164E+02  0.96116940684E+02  0.41288588897E+03  0.78884742984E+02 0.  0.
    5000000    2    1    2    0    0  0.39260468208E+03  0.29581277164E+02 -0.42011863269E+03  0.83139485181E+03  0.59975348747E+03 0.  0.
        -24    2    4    4    0    0  0.24891591873E+03  0.26192350130E+03 -0.63853240067E+02  0.37533877820E+03  0.78986752221E+02 0.  0.
         24    2    4    4    0    0  0.14368876335E+03 -0.23234222413E+03 -0.35626539262E+03  0.45605607361E+03  0.80204379372E+02 0.  0.
         11    1    3    3    0    0 -0.22150388592E+03 -0.52491029708E+02  0.70912270068E+02  0.23842782917E+03  0.00000000000E+00 0. -1.
        -12    1    3    3    0    0 -0.17110079616E+03  0.22909752545E+02  0.25204670616E+02  0.17445805980E+03  0.00000000000E+00 0.  1.
         15    1    5    5    0    0  0.13964844786E+03  0.19221707829E+03 -0.62677694389E+02  0.24572493825E+03  0.17770000000E+01 0. -1.
        -16    1    5    5    0    0  0.10926747087E+03  0.69706423003E+02 -0.11755456778E+01  0.12961383995E+03  0.00000000000E+00 0.  1.
          2    1    6    6  502    0  0.13883040085E+03 -0.16408753278E+03 -0.28836826368E+03  0.35965935843E+03  0.00000000000E+00 0. -1.
         -1    1    6    6    0  502  0.48583625022E+01 -0.68254691355E+02 -0.67897128943E+02  0.96396715177E+02  0.00000000000E+00 0.  1.
<mgrwt>
<rscale>  0 0.52541877E+03</rscale>
<asrwt>0</asrwt>
<pdfrwt beam="1">  1        1 0.12063711E+00 0.52541877E+03</pdfrwt>
<pdfrwt beam="2">  1       -2 0.70790696E-01 0.52541877E+03</pdfrwt>
<totfact> 0.37860611E+01</totfact>
</mgrwt>
</event>
<event>
12    3  0.1182097E-007  0.6987062E+03  0.7818608E-02  0.9719447E-01
          1   -1    0    0  501    0  0.00000000000E+00  0.00000000000E+00  0.25376634048E+04  0.25376634048E+04  0.00000000000E+00 0. -1.
         -2   -1    0    0    0  501 -0.00000000000E+00 -0.00000000000E+00 -0.24355072655E+03  0.24355072655E+03  0.00000000000E+00 0.  1.
        -24    2    1    2    0    0  0.60262017785E+03 -0.14928369586E+03  0.54212379520E+03  0.82804314548E+03  0.79501829310E+02 0.  0.
    5000000    2    1    2    0    0 -0.60262017785E+03  0.14928369586E+03  0.17519888831E+04  0.19531709859E+04  0.59997929392E+03 0.  0.
        -24    2    4    4    0    0 -0.16029293067E+03 -0.15275935319E+03  0.99504032740E+03  0.10226054102E+04  0.81162356614E+02 0.  0.
         24    2    4    4    0    0 -0.44232724718E+03  0.30204304905E+03  0.75694855566E+03  0.93056557573E+03  0.78088268850E+02 0.  0.
         13    1    3    3    0    0  0.12682843219E+03 -0.33306076129E+02  0.73985255362E+02  0.15056083133E+03  0.00000000000E+00 0. -1.
        -14    1    3    3    0    0  0.47579174565E+03 -0.11597761973E+03  0.46813853984E+03  0.67748231416E+03  0.00000000000E+00 0.  1.
         15    1    5    5    0    0 -0.24651159536E+02 -0.75009007108E+02  0.36641978779E+03  0.37483416257E+03  0.17770000000E+01 0. -1.
        -16    1    5    5    0    0 -0.13564177114E+03 -0.77750346082E+02  0.62862053960E+03  0.64777124759E+03  0.00000000000E+00 0.  1.
          2    1    6    6  502    0 -0.21594660647E+03  0.19444818286E+03  0.41187454744E+03  0.50406713392E+03  0.00000000000E+00 0. -1.
         -1    1    6    6    0  502 -0.22638064070E+03  0.10759486619E+03  0.34507400822E+03  0.42649844181E+03  0.00000000000E+00 0.  1.
<mgrwt>
<rscale>  0 0.69870622E+03</rscale>
<asrwt>0</asrwt>
<pdfrwt beam="1">  1        1 0.39040974E+00 0.69870622E+03</pdfrwt>
<pdfrwt beam="2">  1       -2 0.37469344E-01 0.69870622E+03</pdfrwt>
<totfact> 0.79893869E+00</totfact>
</mgrwt>
</event>
<event>
12    3  0.1182097E-007  0.9618870E+03  0.7818608E-02  0.9351363E-01
          1   -1    0    0  501    0  0.00000000000E+00  0.00000000000E+00  0.11090177957E+04  0.11090177957E+04  0.00000000000E+00 0. -1.
         -2   -1    0    0    0  501 -0.00000000000E+00 -0.00000000000E+00 -0.93670013778E+03  0.93670013778E+03  0.00000000000E+00 0.  1.
        -24    2    1    2    0    0  0.56254125222E+03 -0.70005775074E+03 -0.15894146955E+03  0.91604791434E+03  0.85719751496E+02 0.  0.
    5000000    2    1    2    0    0 -0.56254125222E+03  0.70005775074E+03  0.33125912747E+03  0.11296700191E+04  0.59990684925E+03 0.  0.
        -24    2    4    4    0    0  0.55756066617E+02 -0.12831048746E+02 -0.47389467330E+02  0.10972328658E+03  0.80746908476E+02 0.  0.
         24    2    4    4    0    0 -0.61829731883E+03  0.71288879949E+03  0.37864859480E+03  0.10199467325E+04  0.80090973144E+02 0.  0.
         11    1    3    3    0    0  0.18216479676E+03 -0.29299208394E+03 -0.57574573156E+02  0.34977593671E+03  0.00000000000E+00 0. -1.
        -12    1    3    3    0    0  0.38037645546E+03 -0.40706566681E+03 -0.10136689640E+03  0.56627197763E+03  0.00000000000E+00 0.  1.
         15    1    5    5    0    0  0.53945163689E+02  0.81656271807E+01  0.34411981485E+01  0.54696962680E+02  0.17770000000E+01 0. -1.
        -16    1    5    5    0    0  0.18109029284E+01 -0.20996675927E+02 -0.50830665479E+02  0.55026323904E+02  0.00000000000E+00 0.  1.
          2    1    6    6  502    0 -0.12424693287E+03  0.18612606661E+03  0.11046973254E+03  0.24956717494E+03  0.00000000000E+00 0. -1.
         -1    1    6    6    0  502 -0.49405038596E+03  0.52676273288E+03  0.26817886226E+03  0.77037955761E+03  0.00000000000E+00 0.  1.
<mgrwt>
<rscale>  0 0.96188700E+03</rscale>
<asrwt>0</asrwt>
<pdfrwt beam="1">  1        1 0.17061812E+00 0.96188700E+03</pdfrwt>
<pdfrwt beam="2">  1       -2 0.14410771E+00 0.96188700E+03</pdfrwt>
<totfact> 0.36465181E+00</totfact>
</mgrwt>
</event>
<event>
12    3  0.1182097E-007  0.7290539E+03  0.7818608E-02  0.9668797E-01
         -2   -1    0    0    0  501 -0.00000000000E+00  0.00000000000E+00  0.79375995999E+03  0.79375995999E+03  0.00000000000E+00 0.  1.
          1   -1    0    0  501    0  0.00000000000E+00 -0.00000000000E+00 -0.91534827517E+03  0.91534827517E+03  0.00000000000E+00 0. -1.
        -24    2    1    2    0    0  0.37994698871E+03 -0.57302527788E+03  0.23264043197E+03  0.73023705483E+03  0.80043128001E+02 0.  0.
    5000000    2    1    2    0    0 -0.37994698871E+03  0.57302527788E+03 -0.35422874715E+03  0.97887118032E+03  0.59999424917E+03 0.  0.
        -24    2    4    4    0    0 -0.29633069621E+03  0.17424505414E+03  0.96383004206E+02  0.36621503119E+03  0.81550874683E+02 0.  0.
         24    2    4    4    0    0 -0.83616292506E+02  0.39878022374E+03 -0.45061175135E+03  0.61265614913E+03  0.79241752832E+02 0.  0.
         13    1    3    3    0    0  0.25275937025E+03 -0.32738129869E+03  0.11229857874E+03  0.42857529650E+03  0.00000000000E+00 0. -1.
        -14    1    3    3    0    0  0.12718761847E+03 -0.24564397919E+03  0.12034185323E+03  0.30166175834E+03  0.00000000000E+00 0.  1.
         15    1    5    5    0    0 -0.17533421888E+03  0.56092861528E+02  0.54400036902E+02  0.19196619278E+03  0.17770000000E+01 0. -1.
        -16    1    5    5    0    0 -0.12099647733E+03  0.11815219261E+03  0.41982967303E+02  0.17424883841E+03  0.00000000000E+00 0.  1.
          4    1    6    6  502    0  0.12202715908E+02  0.10400533829E+03 -0.12584885103E+03  0.16371911914E+03  0.00000000000E+00 0. -1.
         -3    1    6    6    0  502 -0.95819008414E+02  0.29477488545E+03 -0.32476290033E+03  0.44893702999E+03  0.00000000000E+00 0.  1.
<mgrwt>
<rscale>  0 0.72905389E+03</rscale>
<asrwt>0</asrwt>
<pdfrwt beam="1">  1        1 0.14082281E+00 0.72905389E+03</pdfrwt>
<pdfrwt beam="2">  1       -2 0.12211692E+00 0.72905389E+03</pdfrwt>
<totfact> 0.80808652E+00</totfact>
</mgrwt>
</event>
<event>
12    3  0.1182097E-007  0.1305634E+04  0.7818608E-02  0.9025109E-01
         -2   -1    0    0    0  501 -0.00000000000E+00  0.00000000000E+00  0.17392084988E+04  0.17392084988E+04  0.00000000000E+00 0.  1.
          1   -1    0    0  501    0  0.00000000000E+00 -0.00000000000E+00 -0.11101971846E+04  0.11101971846E+04  0.00000000000E+00 0. -1.
        -24    2    1    2    0    0  0.42046352515E+03 -0.12077591170E+04  0.64883907502E+03  0.14366788535E+04  0.87076530220E+02 0.  0.
    5000000    2    1    2    0    0 -0.42046352515E+03  0.12077591170E+04 -0.19827760883E+02  0.14127268299E+04  0.59994357677E+03 0.  0.
        -24    2    4    4    0    0  0.56028216426E+02  0.20292035186E+03  0.16486334114E+03  0.28259222077E+03  0.91447316813E+02 0.  0.
         24    2    4    4    0    0 -0.47649174158E+03  0.10048387651E+04 -0.18469110203E+03  0.11301346091E+04  0.79675014917E+02 0.  0.
         11    1    3    3    0    0  0.44947261106E+02 -0.22773113864E+03  0.10819505790E+03  0.25610134388E+03  0.00000000000E+00 0. -1.
        -12    1    3    3    0    0  0.37551626405E+03 -0.98002797832E+03  0.54064401712E+03  0.11805775096E+04  0.00000000000E+00 0.  1.
         15    1    5    5    0    0  0.26911418263E+02  0.16606365327E+03  0.81576998586E+02  0.18697413136E+03  0.17770000000E+01 0. -1.
        -16    1    5    5    0    0  0.29116798163E+02  0.36856698593E+02  0.83286342558E+02  0.95618089414E+02  0.00000000000E+00 0.  1.
          2    1    6    6  502    0 -0.24866956381E+03  0.44061361404E+03 -0.66752294163E+02  0.51032614828E+03  0.00000000000E+00 0. -1.
         -1    1    6    6    0  502 -0.22782217777E+03  0.56422515105E+03 -0.11793880786E+03  0.61980846087E+03  0.00000000000E+00 0.  1.
<mgrwt>
<rscale>  0 0.13056340E+04</rscale>
<asrwt>0</asrwt>
<pdfrwt beam="1">  1        1 0.17079957E+00 0.13056340E+04</pdfrwt>
<pdfrwt beam="2">  1       -2 0.26757054E+00 0.13056340E+04</pdfrwt>
<totfact> 0.52898255E-01</totfact>
</mgrwt>
</event>
<event>
12    3  0.1182097E-007  0.1093294E+04  0.7818608E-02  0.9211753E-01
         -2   -1    0    0    0  501 -0.00000000000E+00  0.00000000000E+00  0.85878915183E+03  0.85878915183E+03  0.00000000000E+00 0.  1.
          1   -1    0    0  501    0  0.00000000000E+00 -0.00000000000E+00 -0.18155703446E+04  0.18155703446E+04  0.00000000000E+00 0. -1.
        -24    2    1    2    0    0 -0.25209412235E+03  0.10584818134E+04 -0.92640326789E+03  0.14314284460E+04  0.82638886239E+02 0.  0.
    5000000    2    1    2    0    0  0.25209412235E+03 -0.10584818134E+04 -0.30377924905E+02  0.12429310504E+04  0.60001631808E+03 0.  0.
        -24    2    4    4    0    0  0.71459916096E+02 -0.21958639763E+03  0.23888657991E+03  0.34016742627E+03  0.72954603694E+02 0.  0.
         24    2    4    4    0    0  0.18063420625E+03 -0.83889541577E+03 -0.26926450482E+03  0.90276362415E+03  0.78131635510E+02 0.  0.
         11    1    3    3    0    0 -0.90359602524E+02  0.54668670617E+03 -0.45180313601E+03  0.71495264611E+03  0.00000000000E+00 0. -1.
        -12    1    3    3    0    0 -0.16173451982E+03  0.51179510723E+03 -0.47460013188E+03  0.71647579992E+03  0.00000000000E+00 0.  1.
         15    1    5    5    0    0  0.36173326419E+02 -0.54729560539E+02  0.31199642809E+02  0.72666428159E+02  0.17770000000E+01 0. -1.
        -16    1    5    5    0    0  0.35286589677E+02 -0.16485683709E+03  0.20768693710E+03  0.26750099811E+03  0.00000000000E+00 0.  1.
          2    1    6    6  502    0  0.18069395265E+03 -0.71018644398E+03 -0.22299937523E+03  0.76599204375E+03  0.00000000000E+00 0. -1.
         -1    1    6    6    0  502 -0.59746404270E-01 -0.12870897179E+03 -0.46265129590E+02  0.13677158040E+03  0.00000000000E+00 0.  1.
<mgrwt>
<rscale>  0 0.10932935E+04</rscale>
<asrwt>0</asrwt>
<pdfrwt beam="1">  1        1 0.27931851E+00 0.10932935E+04</pdfrwt>
<pdfrwt beam="2">  1       -2 0.13212141E+00 0.10932935E+04</pdfrwt>
<totfact> 0.14396146E+00</totfact>
</mgrwt>
</event>
<event>
12    3  0.1182097E-007  0.6354060E+03  0.7818608E-02  0.9834556E-01
          1   -1    0    0  501    0  0.00000000000E+00  0.00000000000E+00  0.50555278865E+03  0.50555278865E+03  0.00000000000E+00 0. -1.
         -2   -1    0    0    0  501 -0.00000000000E+00 -0.00000000000E+00 -0.88353931710E+03  0.88353931710E+03  0.00000000000E+00 0.  1.
        -24    2    1    2    0    0 -0.18048011148E+03 -0.46612510367E+03 -0.33602701520E+03  0.60702970270E+03  0.75665197403E+02 0.  0.
    5000000    2    1    2    0    0  0.18048011148E+03  0.46612510367E+03 -0.41959513250E+02  0.78206240306E+03  0.60001276537E+03 0.  0.
        -24    2    4    4    0    0 -0.20062205145E+03  0.87757545165E+02  0.27555880541E+02  0.23471572881E+03  0.79884620144E+02 0.  0.
         24    2    4    4    0    0  0.38110216293E+03  0.37836755851E+03 -0.69515393791E+02  0.54734667425E+03  0.79719031082E+02 0.  0.
         13    1    3    3    0    0 -0.10211463038E+03 -0.17232641647E+03 -0.15372482855E+03  0.25249775140E+03  0.00000000000E+00 0. -1.
        -14    1    3    3    0    0 -0.78365481097E+02 -0.29379868721E+03 -0.18230218665E+03  0.35453195130E+03  0.00000000000E+00 0.  1.
         15    1    5    5    0    0 -0.88673095187E+02  0.64035806761E+02  0.46243957921E+02  0.11876516211E+03  0.17770000000E+01 0. -1.
        -16    1    5    5    0    0 -0.11194895626E+03  0.23721738403E+02 -0.18688077380E+02  0.11595056670E+03  0.00000000000E+00 0.  1.
          4    1    6    6  502    0  0.13649365642E+03  0.18964076482E+03 -0.20799759354E+02  0.23457785044E+03  0.00000000000E+00 0. -1.
         -3    1    6    6    0  502  0.24460850651E+03  0.18872679369E+03 -0.48715634437E+02  0.31276882382E+03  0.00000000000E+00 0.  1.
<mgrwt>
<rscale>  0 0.63540604E+03</rscale>
<asrwt>0</asrwt>
<pdfrwt beam="1">  1        1 0.77777354E-01 0.63540604E+03</pdfrwt>
<pdfrwt beam="2">  1       -2 0.13592912E+00 0.63540604E+03</pdfrwt>
<totfact> 0.15257008E+01</totfact>
</mgrwt>
</event>
<event>
12    3  0.1182097E-007  0.7033639E+03  0.7818608E-02  0.9711497E-01
         -2   -1    0    0    0  501 -0.00000000000E+00  0.00000000000E+00  0.10639179116E+04  0.10639179116E+04  0.00000000000E+00 0.  1.
          1   -1    0    0  501    0  0.00000000000E+00 -0.00000000000E+00 -0.64087821842E+03  0.64087821842E+03  0.00000000000E+00 0. -1.
        -24    2    1    2    0    0  0.39308481102E+01 -0.61850832974E+03 -0.18463039082E+03  0.65031492444E+03  0.79076635072E+02 0.  0.
    5000000    2    1    2    0    0 -0.39308481102E+01  0.61850832974E+03  0.60767008403E+03  0.10544812056E+04  0.60008305796E+03 0.  0.
        -24    2    4    4    0    0 -0.17610892442E+03  0.59684086363E+02  0.36263416736E+03  0.41498608526E+03  0.78315823456E+02 0.  0.
         24    2    4    4    0    0  0.17217807631E+03  0.55882424338E+03  0.24503591668E+03  0.63949512035E+03  0.83555870818E+02 0.  0.
         13    1    3    3    0    0 -0.31463914173E+02 -0.31815973447E+03 -0.11676459087E+03  0.34036680833E+03  0.00000000000E+00 0. -1.
        -14    1    3    3    0    0  0.35394762283E+02 -0.30034859527E+03 -0.67865799948E+02  0.30994811611E+03  0.00000000000E+00 0.  1.
         15    1    5    5    0    0 -0.29580527540E+02 -0.16973661251E+02  0.88169432801E+02  0.94552204603E+02  0.17770000000E+01 0. -1.
        -16    1    5    5    0    0 -0.14652839688E+03  0.76657747613E+02  0.27446473455E+03  0.32043388066E+03  0.00000000000E+00 0.  1.
          4    1    6    6  502    0  0.21678645051E+02  0.51082174011E+02 -0.11233450666E+01  0.55503279696E+02  0.00000000000E+00 0. -1.
         -3    1    6    6    0  502  0.15049943126E+03  0.50774206936E+03  0.24615926174E+03  0.58399184066E+03  0.00000000000E+00 0.  1.
<mgrwt>
<rscale>  0 0.70336391E+03</rscale>
<asrwt>0</asrwt>
<pdfrwt beam="1">  1        1 0.98596649E-01 0.70336391E+03</pdfrwt>
<pdfrwt beam="2">  1       -2 0.16367968E+00 0.70336391E+03</pdfrwt>
<totfact> 0.66270167E+00</totfact>
</mgrwt>
</event>
<event>
12    3  0.1182097E-007  0.1157257E+04  0.7818608E-02  0.9151114E-01
         -2   -1    0    0    0  501 -0.00000000000E+00  0.00000000000E+00  0.97566915255E+03  0.97566915255E+03  0.00000000000E+00 0.  1.
          1   -1    0    0  501    0  0.00000000000E+00 -0.00000000000E+00 -0.14394734835E+04  0.14394734835E+04  0.00000000000E+00 0. -1.
        -24    2    1    2    0    0  0.95871332663E+03  0.53804184985E+03 -0.79801812066E+02  0.11052378701E+04  0.81007069636E+02 0.  0.
    5000000    2    1    2    0    0 -0.95871332663E+03 -0.53804184985E+03 -0.38400251892E+03  0.13099047660E+04  0.59981020890E+03 0.  0.
        -24    2    4    4    0    0 -0.81320851829E+02  0.86061980269E+02 -0.14573172950E+03  0.20420339353E+03  0.80259227227E+02 0.  0.
         24    2    4    4    0    0 -0.87739247480E+03 -0.62410383012E+03 -0.23827078941E+03  0.11057013725E+04  0.80494785336E+02 0.  0.
         11    1    3    3    0    0  0.68482870314E+03  0.36402854692E+03 -0.88712622593E+02  0.78062607247E+03  0.00000000000E+00 0. -1.
        -12    1    3    3    0    0  0.27388462350E+03  0.17401330293E+03  0.89108105272E+01  0.32461179758E+03  0.00000000000E+00 0.  1.
         15    1    5    5    0    0 -0.86213931763E+02  0.47743028854E+02 -0.12838237779E+03  0.16185620621E+03  0.17770000000E+01 0. -1.
        -16    1    5    5    0    0  0.48930799340E+01  0.38318951415E+02 -0.17349351718E+02  0.42347187319E+02  0.00000000000E+00 0.  1.
          2    1    6    6  502    0 -0.66256482890E+03 -0.48906570844E+03 -0.21356574471E+03  0.85075716099E+03  0.00000000000E+00 0. -1.
         -1    1    6    6    0  502 -0.21482764591E+03 -0.13503812168E+03 -0.24705044705E+02  0.25494421152E+03  0.00000000000E+00 0.  1.
<mgrwt>
<rscale>  0 0.11572574E+04</rscale>
<asrwt>0</asrwt>
<pdfrwt beam="1">  1        1 0.22145746E+00 0.11572574E+04</pdfrwt>
<pdfrwt beam="2">  1       -2 0.15010295E+00 0.11572574E+04</pdfrwt>
<totfact> 0.18533545E+00</totfact>
</mgrwt>
</event>
<event>
12    3  0.1182097E-007  0.4917491E+03  0.7818608E-02  0.1015955E+00
          1   -1    0    0  501    0  0.00000000000E+00  0.00000000000E+00  0.43883429429E+03  0.43883429429E+03  0.00000000000E+00 0. -1.
         -2   -1    0    0    0  501 -0.00000000000E+00 -0.00000000000E+00 -0.86587975799E+03  0.86587975799E+03  0.00000000000E+00 0.  1.
        -24    2    1    2    0    0 -0.16328195479E+03  0.26006325798E+03 -0.53540846028E+03  0.62210334174E+03  0.77823219894E+02 0.  0.
    5000000    2    1    2    0    0  0.16328195479E+03 -0.26006325798E+03  0.10836299658E+03  0.68261071054E+03  0.59993411988E+03 0.  0.
        -24    2    4    4    0    0  0.14842762804E+03 -0.44089015394E+03  0.44952544814E+02  0.47509402278E+03  0.85315359644E+02 0.  0.
         24    2    4    4    0    0  0.14854326750E+02  0.18082689595E+03  0.63410451767E+02  0.20751668776E+03  0.78251344927E+02 0.  0.
         11    1    3    3    0    0 -0.11251924236E+03  0.10678458316E+03 -0.27315167618E+03  0.31412635244E+03  0.00000000000E+00 0. -1.
        -12    1    3    3    0    0 -0.50762712432E+02  0.15327867482E+03 -0.26225678410E+03  0.30797698930E+03  0.00000000000E+00 0.  1.
         15    1    5    5    0    0 -0.78486749018E+01 -0.21286916161E+02  0.12968427732E+02  0.26192982728E+02  0.17770000000E+01 0. -1.
        -16    1    5    5    0    0  0.15627630294E+03 -0.41960323777E+03  0.31984117082E+02  0.44890104005E+03  0.00000000000E+00 0.  1.
          4    1    6    6  502    0 -0.17932163845E+02  0.15101859295E+03  0.58464344003E+02  0.16293022260E+03  0.00000000000E+00 0. -1.
         -3    1    6    6    0  502  0.32786490595E+02  0.29808302998E+02  0.49461077637E+01  0.44586465156E+02  0.00000000000E+00 0.  1.
<mgrwt>
<rscale>  0 0.49174911E+03</rscale>
<asrwt>0</asrwt>
<pdfrwt beam="1">  1        1 0.67512969E-01 0.49174911E+03</pdfrwt>
<pdfrwt beam="2">  1       -2 0.13321227E+00 0.49174911E+03</pdfrwt>
<totfact> 0.19768856E+01</totfact>
</mgrwt>
</event>
<event>
12    3  0.1182097E-007  0.4214602E+03  0.7818608E-02  0.1036592E+00
          1   -1    0    0  501    0  0.00000000000E+00  0.00000000000E+00  0.22952978522E+04  0.22952978522E+04  0.00000000000E+00 0. -1.
         -2   -1    0    0    0  501 -0.00000000000E+00 -0.00000000000E+00 -0.19648044289E+03  0.19648044289E+03  0.00000000000E+00 0.  1.
        -24    2    1    2    0    0 -0.20827217080E+03  0.31201120065E+03  0.13889470745E+03  0.40803480329E+03  0.80451068820E+02 0.  0.
    5000000    2    1    2    0    0  0.20827217080E+03 -0.31201120065E+03  0.19599227019E+04  0.20837434918E+04  0.59996804574E+03 0.  0.
        -24    2    4    4    0    0  0.86817252935E+02  0.72470288226E+01  0.30254235394E+02  0.12248325687E+03  0.80604433000E+02 0.  0.
         24    2    4    4    0    0  0.12145491787E+03 -0.31925822947E+03  0.19296684665E+04  0.19612602349E+04  0.79020279190E+02 0.  0.
         11    1    3    3    0    0 -0.16492882211E+03  0.18851883794E+03  0.69734275102E+02  0.26000718787E+03  0.00000000000E+00 0. -1.
        -12    1    3    3    0    0 -0.43343348696E+02  0.12349236270E+03  0.69160432349E+02  0.14802761541E+03  0.00000000000E+00 0.  1.
         15    1    5    5    0    0  0.67198330655E+02  0.41108725823E+02  0.13636417022E+02  0.79966571640E+02  0.17770000000E+01 0. -1.
        -16    1    5    5    0    0  0.19618922280E+02 -0.33861697000E+02  0.16617818372E+02  0.42516685226E+02  0.00000000000E+00 0.  1.
          2    1    6    6  502    0  0.12040336944E+03 -0.28541738025E+03  0.18290870831E+04  0.18551333132E+04  0.00000000000E+00 0. -1.
         -1    1    6    6    0  502  0.10515484279E+01 -0.33840849222E+02  0.10058138337E+03  0.10612692170E+03  0.00000000000E+00 0.  1.
<mgrwt>
<rscale>  0 0.42146020E+03</rscale>
<asrwt>0</asrwt>
<pdfrwt beam="1">  1        1 0.35312273E+00 0.42146020E+03</pdfrwt>
<pdfrwt beam="2">  1       -2 0.30227762E-01 0.42146020E+03</pdfrwt>
<totfact> 0.18480073E+01</totfact>
</mgrwt>
</event>
<event>
12    3  0.1182097E-007  0.4791955E+03  0.7818608E-02  0.1019357E+00
          1   -1    0    0  501    0  0.00000000000E+00  0.00000000000E+00  0.13648570557E+04  0.13648570557E+04  0.00000000000E+00 0. -1.
         -2   -1    0    0    0  501 -0.00000000000E+00 -0.00000000000E+00 -0.19531257866E+03  0.19531257866E+03  0.00000000000E+00 0.  1.
        -24    2    1    2    0    0 -0.26402396892E+03  0.15899818520E+03  0.59254135681E+03  0.67248714293E+03  0.78387619029E+02 0.  0.
    5000000    2    1    2    0    0  0.26402396892E+03 -0.15899818520E+03  0.57700312025E+03  0.88768249145E+03  0.60004876951E+03 0.  0.
        -24    2    4    4    0    0  0.43620174801E+03 -0.14373140910E+03  0.49761336022E+03  0.68151985186E+03  0.76938737222E+02 0.  0.
         24    2    4    4    0    0 -0.17217777909E+03 -0.15266776103E+02  0.79389760031E+02  0.20616263959E+03  0.79511243865E+02 0.  0.
         13    1    3    3    0    0 -0.24549575513E+03  0.14651845254E+03  0.58056280430E+03  0.64713908277E+03  0.00000000000E+00 0. -1.
        -14    1    3    3    0    0 -0.18528213791E+02  0.12479732658E+02  0.11978552517E+02  0.25348060160E+02  0.00000000000E+00 0.  1.
         15    1    5    5    0    0  0.28633353636E+03 -0.11157438477E+03  0.37759186622E+03  0.48684136281E+03  0.17770000000E+01 0. -1.
        -16    1    5    5    0    0  0.14986821165E+03 -0.32157024324E+02  0.12002149400E+03  0.19467848905E+03  0.00000000000E+00 0.  1.
          2    1    6    6  502    0 -0.14207701776E+03 -0.43204324905E+02  0.69292762119E+02  0.16387183879E+03  0.00000000000E+00 0. -1.
         -1    1    6    6    0  502 -0.30100761327E+02  0.27937548802E+02  0.10096997912E+02  0.42290800800E+02  0.00000000000E+00 0.  1.
<mgrwt>
<rscale>  0 0.47919550E+03</rscale>
<asrwt>0</asrwt>
<pdfrwt beam="1">  1        1 0.20997800E+00 0.47919550E+03</pdfrwt>
<pdfrwt beam="2">  1       -2 0.30048090E-01 0.47919550E+03</pdfrwt>
<totfact> 0.76870478E+01</totfact>
</mgrwt>
</event>
<event>
12    3  0.1182097E-007  0.5979353E+03  0.7818608E-02  0.9909699E-01
         -2   -1    0    0    0  501 -0.00000000000E+00  0.00000000000E+00  0.28399100037E+03  0.28399100037E+03  0.00000000000E+00 0.  1.
          1   -1    0    0  501    0  0.00000000000E+00 -0.00000000000E+00 -0.15081239605E+04  0.15081239605E+04  0.00000000000E+00 0. -1.
        -24    2    1    2    0    0  0.32637612311E+03  0.31156565012E+03 -0.15183719680E+03  0.48312818526E+03  0.82242209304E+02 0.  0.
    5000000    2    1    2    0    0 -0.32637612311E+03 -0.31156565012E+03 -0.10722957633E+04  0.13089867756E+04  0.60002803818E+03 0.  0.
        -24    2    4    4    0    0  0.11958510218E+03  0.66320461215E+02 -0.30292725197E+03  0.33949514531E+03  0.69231737399E+02 0.  0.
         24    2    4    4    0    0 -0.44596122529E+03 -0.37788611133E+03 -0.76936851136E+03  0.96949163031E+03  0.79415284160E+02 0.  0.
         11    1    3    3    0    0  0.18383312547E+03  0.22464477657E+03 -0.11455315361E+03  0.31206140207E+03  0.00000000000E+00 0. -1.
        -12    1    3    3    0    0  0.14254299764E+03  0.86920873547E+02 -0.37284043198E+02  0.17106678319E+03  0.00000000000E+00 0.  1.
         15    1    5    5    0    0  0.88357437760E+02  0.16281640300E+02 -0.22076117632E+03  0.23835012758E+03  0.17770000000E+01 0. -1.
        -16    1    5    5    0    0  0.31227664415E+02  0.50038820915E+02 -0.82166075654E+02  0.10114501773E+03  0.00000000000E+00 0.  1.
          2    1    6    6  502    0 -0.38816429999E+03 -0.28968580521E+03 -0.63885708537E+03  0.80170304045E+03  0.00000000000E+00 0. -1.
         -1    1    6    6    0  502 -0.57796925299E+02 -0.88200306119E+02 -0.13051142599E+03  0.16778858986E+03  0.00000000000E+00 0.  1.
<mgrwt>
<rscale>  0 0.59793529E+03</rscale>
<asrwt>0</asrwt>
<pdfrwt beam="1">  1        1 0.23201907E+00 0.59793529E+03</pdfrwt>
<pdfrwt beam="2">  1       -2 0.43690924E-01 0.59793529E+03</pdfrwt>
<totfact> 0.29536395E+01</totfact>
</mgrwt>
</event>
<event>
12    3  0.1182097E-007  0.8344479E+03  0.7818608E-02  0.9511451E-01
         -2   -1    0    0    0  501 -0.00000000000E+00  0.00000000000E+00  0.47411204614E+03  0.47411204614E+03  0.00000000000E+00 0.  1.
          1   -1    0    0  501    0  0.00000000000E+00 -0.00000000000E+00 -0.16290442140E+04  0.16290442140E+04  0.00000000000E+00 0. -1.
        -24    2    1    2    0    0 -0.14009322743E+03  0.74839021112E+03 -0.34269579602E+03  0.83843245317E+03  0.76253192988E+02 0.  0.
    5000000    2    1    2    0    0  0.14009322743E+03 -0.74839021112E+03 -0.81223637183E+03  0.12647238070E+04  0.60007029895E+03 0.  0.
        -24    2    4    4    0    0 -0.34545628723E+02 -0.71714443543E+03 -0.44330487343E+03  0.84761482204E+03  0.80262905536E+02 0.  0.
         24    2    4    4    0    0  0.17463885616E+03 -0.31245775691E+02 -0.36893149841E+03  0.41710898492E+03  0.79965156175E+02 0.  0.
         13    1    3    3    0    0 -0.46097964658E+02  0.25791298986E+03 -0.78806481817E+02  0.27359567661E+03  0.00000000000E+00 0. -1.
        -14    1    3    3    0    0 -0.93995262774E+02  0.49047722127E+03 -0.26388931421E+03  0.56483677656E+03  0.00000000000E+00 0.  1.
         15    1    5    5    0    0 -0.15847808771E+02 -0.49977666698E+03 -0.26537165660E+03  0.56608580954E+03  0.17770000000E+01 0. -1.
        -16    1    5    5    0    0 -0.18697819952E+02 -0.21736776845E+03 -0.17793321683E+03  0.28152901251E+03  0.00000000000E+00 0.  1.
          2    1    6    6  502    0  0.12225966899E+02  0.16009093479E+02 -0.15954577736E+02  0.25696573534E+02  0.00000000000E+00 0. -1.
         -1    1    6    6    0  502  0.16241288926E+03 -0.47254869170E+02 -0.35297692067E+03  0.39141241138E+03  0.00000000000E+00 0.  1.
<mgrwt>
<rscale>  0 0.83444790E+03</rscale>
<asrwt>0</asrwt>
<pdfrwt beam="1">  1        1 0.25062219E+00 0.83444790E+03</pdfrwt>
<pdfrwt beam="2">  1       -2 0.72940314E-01 0.83444790E+03</pdfrwt>
<totfact> 0.81289971E+00</totfact>
</mgrwt>
</event>
<event>
12    3  0.1182097E-007  0.9527161E+03  0.7818608E-02  0.9361981E-01
          1   -1    0    0  501    0  0.00000000000E+00  0.00000000000E+00  0.11274781663E+04  0.11274781663E+04  0.00000000000E+00 0. -1.
         -2   -1    0    0    0  501 -0.00000000000E+00 -0.00000000000E+00 -0.11110505277E+04  0.11110505277E+04  0.00000000000E+00 0.  1.
        -24    2    1    2    0    0  0.41456509298E+02 -0.86845532023E+03 -0.55773925156E+03  0.10361995968E+04  0.81873355416E+02 0.  0.
    5000000    2    1    2    0    0 -0.41456509298E+02  0.86845532023E+03  0.57416689011E+03  0.12023290972E+04  0.59999529569E+03 0.  0.
        -24    2    4    4    0    0 -0.26741204910E+03  0.24191003733E+03  0.30643232536E+03  0.47994842390E+03  0.80125210882E+02 0.  0.
         24    2    4    4    0    0  0.22595553980E+03  0.62654528290E+03  0.26773456475E+03  0.72238067329E+03  0.80852597280E+02 0.  0.
         11    1    3    3    0    0  0.12699867320E+02 -0.60596435239E+03 -0.34736499051E+03  0.69858179165E+03  0.00000000000E+00 0. -1.
        -12    1    3    3    0    0  0.28756641978E+02 -0.26249096784E+03 -0.21037426105E+03  0.33761780517E+03  0.00000000000E+00 0.  1.
         15    1    5    5    0    0 -0.16819089975E+03  0.20050642163E+03  0.21065223232E+03  0.33595911148E+03  0.17770000000E+01 0. -1.
        -16    1    5    5    0    0 -0.99221149346E+02  0.41403615701E+02  0.95780093035E+02  0.14398931242E+03  0.00000000000E+00 0.  1.
          4    1    6    6  502    0  0.35930030468E+02  0.97868882883E+02  0.11414292149E+02  0.10487884149E+03  0.00000000000E+00 0. -1.
         -3    1    6    6    0  502  0.19002550933E+03  0.52867640002E+03  0.25632027260E+03  0.61750183180E+03  0.00000000000E+00 0.  1.
<mgrwt>
<rscale>  0 0.95271612E+03</rscale>
<asrwt>0</asrwt>
<pdfrwt beam="1">  1        1 0.17345818E+00 0.95271612E+03</pdfrwt>
<pdfrwt beam="2">  1       -2 0.17093085E+00 0.95271612E+03</pdfrwt>
<totfact> 0.22292004E+00</totfact>
</mgrwt>
</event>
<event>
12    3  0.1182097E-007  0.4599586E+03  0.7818608E-02  0.1024793E+00
          1   -1    0    0  501    0  0.00000000000E+00  0.00000000000E+00  0.75587337390E+03  0.75587337390E+03  0.00000000000E+00 0. -1.
         -2   -1    0    0    0  501 -0.00000000000E+00 -0.00000000000E+00 -0.12898814478E+04  0.12898814478E+04  0.00000000000E+00 0.  1.
        -24    2    1    2    0    0  0.18289507098E+03  0.39222113150E+03  0.56797629172E+03  0.71852921835E+03  0.79994666530E+02 0.  0.
    5000000    2    1    2    0    0 -0.18289507098E+03 -0.39222113150E+03 -0.11019843657E+04  0.13272256034E+04  0.59989185452E+03 0.  0.
        -24    2    4    4    0    0 -0.18369459107E+03 -0.38020234886E+03 -0.11533570543E+04  0.12310367342E+04  0.83195056601E+02 0.  0.
         24    2    4    4    0    0  0.79952008223E+00 -0.12018782640E+02  0.51372688648E+02  0.96188869146E+02  0.80424219239E+02 0.  0.
         13    1    3    3    0    0  0.95974705734E+02  0.16386599077E+03  0.30730116107E+03  0.36124397665E+03  0.00000000000E+00 0. -1.
        -14    1    3    3    0    0  0.86920365249E+02  0.22835514073E+03  0.26067513065E+03  0.35728524170E+03  0.00000000000E+00 0.  1.
         15    1    5    5    0    0 -0.96774642548E+02 -0.28635422656E+03 -0.82667719814E+03  0.88020589759E+03  0.17770000000E+01 0. -1.
        -16    1    5    5    0    0 -0.86919948518E+02 -0.93848122306E+02 -0.32667985617E+03  0.35083083664E+03  0.00000000000E+00 0.  1.
          4    1    6    6  502    0  0.25514228151E+02  0.42988972482E+01  0.60000978273E+02  0.65341975401E+02  0.00000000000E+00 0. -1.
         -3    1    6    6    0  502 -0.24714708069E+02 -0.16317679888E+02 -0.86282896245E+01  0.30846893745E+02  0.00000000000E+00 0.  1.
<mgrwt>
<rscale>  0 0.45995862E+03</rscale>
<asrwt>0</asrwt>
<pdfrwt beam="1">  1        1 0.11628821E+00 0.45995862E+03</pdfrwt>
<pdfrwt beam="2">  1       -2 0.19844330E+00 0.45995862E+03</pdfrwt>
<totfact> 0.31277800E+00</totfact>
</mgrwt>
</event>
<event>
12    3  0.1182097E-007  0.6956573E+03  0.7818608E-02  0.9724688E-01
          1   -1    0    0  501    0  0.00000000000E+00  0.00000000000E+00  0.19476327187E+04  0.19476327187E+04  0.00000000000E+00 0. -1.
         -2   -1    0    0    0  501 -0.00000000000E+00 -0.00000000000E+00 -0.45592726868E+03  0.45592726868E+03  0.00000000000E+00 0.  1.
        -24    2    1    2    0    0 -0.92965439416E+02 -0.65057444695E+03  0.13487212054E+04  0.15024163176E+04  0.79474634480E+02 0.  0.
    5000000    2    1    2    0    0  0.92965439416E+02  0.65057444695E+03  0.14298424462E+03  0.90114366979E+03  0.59977140266E+03 0.  0.
        -24    2    4    4    0    0 -0.83108223110E+02  0.10549233892E+03  0.26866796769E+03  0.30934177047E+03  0.73988132670E+02 0.  0.
         24    2    4    4    0    0  0.17607366253E+03  0.54508210803E+03 -0.12568372307E+03  0.59180189932E+03  0.79477359496E+02 0.  0.
         11    1    3    3    0    0 -0.35744439099E+02 -0.48925185541E+03  0.98169515581E+03  0.10974381176E+04  0.00000000000E+00 0. -1.
        -12    1    3    3    0    0 -0.57221000317E+02 -0.16132259153E+03  0.36702604963E+03  0.40497820006E+03  0.00000000000E+00 0.  1.
         15    1    5    5    0    0 -0.79327192803E+02  0.44651419100E+02  0.18034945764E+03  0.20202880325E+03  0.17770000000E+01 0. -1.
        -16    1    5    5    0    0 -0.37810303067E+01  0.60840919818E+02  0.88318510052E+02  0.10731296721E+03  0.00000000000E+00 0.  1.
          4    1    6    6  502    0  0.13658251346E+03  0.30380766874E+03 -0.57877316211E+02  0.33808825223E+03  0.00000000000E+00 0. -1.
         -3    1    6    6    0  502  0.39491149068E+02  0.24127443929E+03 -0.67806406860E+02  0.25371364709E+03  0.00000000000E+00 0.  1.
<mgrwt>
<rscale>  0 0.69565727E+03</rscale>
<asrwt>0</asrwt>
<pdfrwt beam="1">  1        1 0.29963580E+00 0.69565727E+03</pdfrwt>
<pdfrwt beam="2">  1       -2 0.70142658E-01 0.69565727E+03</pdfrwt>
<totfact> 0.55246717E+00</totfact>
</mgrwt>
</event>
<event>
12    3  0.1182097E-007  0.5985812E+03  0.7818608E-02  0.9908354E-01
         -2   -1    0    0    0  501 -0.00000000000E+00  0.00000000000E+00  0.39827519250E+03  0.39827519250E+03  0.00000000000E+00 0.  1.
          1   -1    0    0  501    0  0.00000000000E+00 -0.00000000000E+00 -0.10907110412E+04  0.10907110412E+04  0.00000000000E+00 0. -1.
        -24    2    1    2    0    0  0.51550483985E+03 -0.36654661277E+02 -0.22389100857E+03  0.56894057549E+03  0.80482237862E+02 0.  0.
    5000000    2    1    2    0    0 -0.51550483985E+03  0.36654661277E+02 -0.46854484016E+03  0.92004565824E+03  0.59988410706E+03 0.  0.
        -24    2    4    4    0    0 -0.38131335649E+03  0.21363386086E+03 -0.51320178366E+03  0.67867238163E+03  0.78618245267E+02 0.  0.
         24    2    4    4    0    0 -0.13419148337E+03 -0.17697919958E+03  0.44656943508E+02  0.24137327661E+03  0.83293605786E+02 0.  0.
         13    1    3    3    0    0  0.41197299775E+03 -0.24157318771E+02 -0.21209218829E+03  0.46399183534E+03  0.00000000000E+00 0. -1.
        -14    1    3    3    0    0  0.10353184210E+03 -0.12497342506E+02 -0.11798820277E+02  0.10494874015E+03  0.00000000000E+00 0.  1.
         15    1    5    5    0    0 -0.24302622647E+03  0.17528232932E+03 -0.32596852924E+03  0.44276888047E+03  0.17770000000E+01 0. -1.
        -16    1    5    5    0    0 -0.13828713001E+03  0.38351531541E+02 -0.18723325442E+03  0.23590350116E+03  0.00000000000E+00 0.  1.
          4    1    6    6  502    0  0.93462500640E+01 -0.30749824114E+02  0.91357432990E+01  0.33412061878E+02  0.00000000000E+00 0. -1.
         -3    1    6    6    0  502 -0.14353773343E+03 -0.14622937547E+03  0.35521200209E+02  0.20796121473E+03  0.00000000000E+00 0.  1.
<mgrwt>
<rscale>  0 0.59858124E+03</rscale>
<asrwt>0</asrwt>
<pdfrwt beam="1">  1        1 0.16780170E+00 0.59858124E+03</pdfrwt>
<pdfrwt beam="2">  1       -2 0.61273107E-01 0.59858124E+03</pdfrwt>
<totfact> 0.29155464E+01</totfact>
</mgrwt>
</event>
<event>
12    3  0.1182097E-007  0.1357700E+04  0.7818608E-02  0.8985020E-01
         -2   -1    0    0    0  501 -0.00000000000E+00  0.00000000000E+00  0.54806327963E+03  0.54806327963E+03  0.00000000000E+00 0.  1.
          1   -1    0    0  501    0  0.00000000000E+00 -0.00000000000E+00 -0.50230269601E+04  0.50230269601E+04  0.00000000000E+00 0. -1.
        -24    2    1    2    0    0  0.73737902648E+03 -0.10626589069E+04 -0.37573846866E+04  0.39748290244E+04  0.91401909746E+02 0.  0.
    5000000    2    1    2    0    0 -0.73737902648E+03  0.10626589069E+04 -0.71757899382E+03  0.15962612153E+04  0.60013204710E+03 0.  0.
        -24    2    4    4    0    0 -0.52655571031E+03  0.26143195539E+03 -0.31312338161E+03  0.67091324873E+03  0.80440983668E+02 0.  0.
         24    2    4    4    0    0 -0.21082331618E+03  0.80122695150E+03 -0.40445561220E+03  0.92534796655E+03  0.79204914630E+02 0.  0.
         13    1    3    3    0    0  0.17305002325E+03 -0.26387284737E+03 -0.10388803371E+04  0.10857474591E+04  0.00000000000E+00 0. -1.
        -14    1    3    3    0    0  0.56432900324E+03 -0.79878605951E+03 -0.27185043495E+04  0.28890815654E+04  0.00000000000E+00 0.  1.
         15    1    5    5    0    0 -0.43268660268E+03  0.24733653489E+03 -0.25992360274E+03  0.56210007528E+03  0.17770000000E+01 0. -1.
        -16    1    5    5    0    0 -0.93869107622E+02  0.14095420494E+02 -0.53199778874E+02  0.10881317345E+03  0.00000000000E+00 0.  1.
          4    1    6    6  502    0 -0.68851729257E+02  0.26852093476E+03 -0.94400495009E+02  0.29284041129E+03  0.00000000000E+00 0. -1.
         -3    1    6    6    0  502 -0.14197158692E+03  0.53270601674E+03 -0.31005511719E+03  0.63250755526E+03  0.00000000000E+00 0.  1.
<mgrwt>
<rscale>  0 0.13576999E+04</rscale>
<asrwt>0</asrwt>
<pdfrwt beam="1">  1        1 0.77277338E+00 0.13576999E+04</pdfrwt>
<pdfrwt beam="2">  1       -2 0.84317427E-01 0.13576999E+04</pdfrwt>
<totfact> 0.88502703E-03</totfact>
</mgrwt>
</event>
<event>
12    3  0.1182097E-007  0.7262299E+03  0.7818608E-02  0.9673398E-01
          1   -1    0    0  501    0  0.00000000000E+00  0.00000000000E+00  0.26073686920E+04  0.26073686920E+04  0.00000000000E+00 0. -1.
         -2   -1    0    0    0  501 -0.00000000000E+00 -0.00000000000E+00 -0.28553360444E+03  0.28553360444E+03  0.00000000000E+00 0.  1.
        -24    2    1    2    0    0  0.56092748961E+03 -0.41693880636E+03  0.15068027541E+04  0.16628841194E+04  0.79066036353E+02 0.  0.
    5000000    2    1    2    0    0 -0.56092748961E+03  0.41693880636E+03  0.81503233345E+03  0.12300181770E+04  0.60015780784E+03 0.  0.
        -24    2    4    4    0    0 -0.15640854255E+02  0.56954656010E+02 -0.74524147601E+02  0.12359634871E+03  0.78954035209E+02 0.  0.
         24    2    4    4    0    0 -0.54528663535E+03  0.35998415035E+03  0.88955648105E+03  0.11064218283E+04  0.77022242969E+02 0.  0.
         13    1    3    3    0    0  0.40977255425E+03 -0.34578113946E+03  0.11349025605E+04  0.12551820443E+04  0.00000000000E+00 0. -1.
        -14    1    3    3    0    0  0.15115493536E+03 -0.71157666896E+02  0.37190019360E+03  0.40770207510E+03  0.00000000000E+00 0.  1.
         15    1    5    5    0    0  0.25843417915E+02  0.43938513897E+02 -0.22369381380E+02  0.55695800608E+02  0.17770000000E+01 0. -1.
        -16    1    5    5    0    0 -0.41484272171E+02  0.13016142113E+02 -0.52154766222E+02  0.67900548103E+02  0.00000000000E+00 0.  1.
          2    1    6    6  502    0 -0.43572554290E+03  0.30716190920E+03  0.67921200492E+03  0.86344318564E+03  0.00000000000E+00 0. -1.
         -1    1    6    6    0  502 -0.10956109245E+03  0.52822241145E+02  0.21034447613E+03  0.24297864264E+03  0.00000000000E+00 0.  1.
<mgrwt>
<rscale>  0 0.72622990E+03</rscale>
<asrwt>0</asrwt>
<pdfrwt beam="1">  1        1 0.40113363E+00 0.72622990E+03</pdfrwt>
<pdfrwt beam="2">  1       -2 0.43928249E-01 0.72622990E+03</pdfrwt>
<totfact> 0.52195681E+00</totfact>
</mgrwt>
</event>
<event>
12    3  0.1182097E-007  0.8714749E+03  0.7818608E-02  0.9461959E-01
         -2   -1    0    0    0  501 -0.00000000000E+00  0.00000000000E+00  0.63085907007E+03  0.63085907007E+03  0.00000000000E+00 0.  1.
          1   -1    0    0  501    0  0.00000000000E+00 -0.00000000000E+00 -0.16798604004E+04  0.16798604004E+04  0.00000000000E+00 0. -1.
        -24    2    1    2    0    0  0.84875471952E+03 -0.69974546718E+02 -0.33583265523E+02  0.85603305691E+03  0.79898358564E+02 0.  0.
    5000000    2    1    2    0    0 -0.84875471952E+03  0.69974546718E+02 -0.10154180648E+04  0.14546864135E+04  0.59979805295E+03 0.  0.
        -24    2    4    4    0    0 -0.13014155121E+03 -0.56506104736E+02 -0.57671847848E+03  0.59926778040E+03  0.79924376648E+02 0.  0.
         24    2    4    4    0    0 -0.71861316832E+03  0.12648065145E+03 -0.43869958632E+03  0.85541863315E+03  0.82954626280E+02 0.  0.
         13    1    3    3    0    0  0.52984606808E+03 -0.50587105453E+02  0.17155309620E+02  0.53253189177E+03  0.00000000000E+00 0. -1.
        -14    1    3    3    0    0  0.31890865144E+03 -0.19387441265E+02 -0.50738575143E+02  0.32350116514E+03  0.00000000000E+00 0.  1.
         15    1    5    5    0    0 -0.10232047523E+03 -0.76893395056E+01 -0.30505521766E+03  0.32185470192E+03  0.17770000000E+01 0. -1.
        -16    1    5    5    0    0 -0.27821075976E+02 -0.48816765231E+02 -0.27166326082E+03  0.27741307848E+03  0.00000000000E+00 0.  1.
          2    1    6    6  502    0 -0.44468253249E+03  0.47017980601E+02 -0.23701569241E+03  0.50609256431E+03  0.00000000000E+00 0. -1.
         -1    1    6    6    0  502 -0.27393063583E+03  0.79462670854E+02 -0.20168389391E+03  0.34932606883E+03  0.00000000000E+00 0.  1.
<mgrwt>
<rscale>  0 0.87147493E+03</rscale>
<asrwt>0</asrwt>
<pdfrwt beam="1">  1        1 0.25844006E+00 0.87147493E+03</pdfrwt>
<pdfrwt beam="2">  1       -2 0.97055242E-01 0.87147493E+03</pdfrwt>
<totfact> 0.38983573E+00</totfact>
</mgrwt>
</event>
<event>
12    3  0.1182097E-007  0.4694417E+03  0.7818608E-02  0.1022078E+00
         -2   -1    0    0    0  501 -0.00000000000E+00  0.00000000000E+00  0.55582764763E+03  0.55582764763E+03  0.00000000000E+00 0.  1.
          1   -1    0    0  501    0  0.00000000000E+00 -0.00000000000E+00 -0.50500361676E+03  0.50500361676E+03  0.00000000000E+00 0. -1.
        -24    2    1    2    0    0 -0.19101354153E+03  0.26932105907E+03 -0.11061327285E+03  0.35714238826E+03  0.79343452510E+02 0.  0.
    5000000    2    1    2    0    0  0.19101354153E+03 -0.26932105907E+03  0.16143730372E+03  0.70368887612E+03  0.60008001586E+03 0.  0.
        -24    2    4    4    0    0  0.26353598994E+03 -0.37566830397E+03  0.24750115879E+03  0.52860952128E+03  0.87139599390E+02 0.  0.
         24    2    4    4    0    0 -0.72522448407E+02  0.10634724490E+03 -0.86063855069E+02  0.17507935484E+03  0.81710166572E+02 0.  0.
         13    1    3    3    0    0 -0.12456872060E+03  0.12460505154E+03 -0.30243206588E+02  0.17876922712E+03  0.00000000000E+00 0. -1.
        -14    1    3    3    0    0 -0.66444820932E+02  0.14471600753E+03 -0.80370066262E+02  0.17837316114E+03  0.00000000000E+00 0.  1.
         15    1    5    5    0    0  0.34471890264E+02 -0.93155267048E+02  0.82892728465E+02  0.12938538232E+03  0.17770000000E+01 0. -1.
        -16    1    5    5    0    0  0.22906409968E+03 -0.28251303693E+03  0.16460843033E+03  0.39922413896E+03  0.00000000000E+00 0.  1.
          4    1    6    6  502    0 -0.71604139197E+02  0.58288954312E+02 -0.21870710255E+02  0.94884576787E+02  0.00000000000E+00 0. -1.
         -3    1    6    6    0  502 -0.91830920972E+00  0.48058290590E+02 -0.64193144813E+02  0.80194778055E+02  0.00000000000E+00 0.  1.
<mgrwt>
<rscale>  0 0.46944165E+03</rscale>
<asrwt>0</asrwt>
<pdfrwt beam="1">  1        1 0.77692865E-01 0.46944165E+03</pdfrwt>
<pdfrwt beam="2">  1       -2 0.85511945E-01 0.46944165E+03</pdfrwt>
<totfact> 0.47374827E+01</totfact>
</mgrwt>
</event>
<event>
12    3  0.1182097E-007  0.4147076E+03  0.7818608E-02  0.1038803E+00
          1   -1    0    0  501    0  0.00000000000E+00  0.00000000000E+00  0.81036526318E+03  0.81036526318E+03  0.00000000000E+00 0. -1.
         -2   -1    0    0    0  501 -0.00000000000E+00 -0.00000000000E+00 -0.38724998669E+03  0.38724998669E+03  0.00000000000E+00 0.  1.
        -24    2    1    2    0    0 -0.38211367398E+03  0.21485520377E+02  0.49858853880E+02  0.39406874104E+03  0.79572482221E+02 0.  0.
    5000000    2    1    2    0    0  0.38211367398E+03 -0.21485520377E+02  0.37325642261E+03  0.80354650882E+03  0.59991178300E+03 0.  0.
        -24    2    4    4    0    0  0.23917919504E+03 -0.84823447439E+02 -0.11042486784E+03  0.28889343596E+03  0.82849630831E+02 0.  0.
         24    2    4    4    0    0  0.14293447895E+03  0.63337927062E+02  0.48368129045E+03  0.51465307286E+03  0.80487492153E+02 0.  0.
         13    1    3    3    0    0 -0.26527596920E+03 -0.21795229884E+02  0.29117802948E+02  0.26775776054E+03  0.00000000000E+00 0. -1.
        -14    1    3    3    0    0 -0.11683770479E+03  0.43280750261E+02  0.20741050932E+02  0.12631098051E+03  0.00000000000E+00 0.  1.
         15    1    5    5    0    0  0.19822352352E+03 -0.38640408251E+02 -0.10303134693E+03  0.22672508156E+03  0.17770000000E+01 0. -1.
        -16    1    5    5    0    0  0.40955671515E+02 -0.46183039188E+02 -0.73935209133E+01  0.62168354405E+02  0.00000000000E+00 0.  1.
          2    1    6    6  502    0  0.91547539977E+02  0.79334729542E+02  0.31018652801E+03  0.33300245276E+03  0.00000000000E+00 0. -1.
         -1    1    6    6    0  502  0.51386938968E+02 -0.15996802479E+02  0.17349476245E+03  0.18165062010E+03  0.00000000000E+00 0.  1.
<mgrwt>
<rscale>  0 0.41470764E+03</rscale>
<asrwt>0</asrwt>
<pdfrwt beam="1">  1        1 0.12467158E+00 0.41470764E+03</pdfrwt>
<pdfrwt beam="2">  1       -2 0.59576921E-01 0.41470764E+03</pdfrwt>
<totfact> 0.52704241E+01</totfact>
</mgrwt>
</event>
<event>
12    3  0.1182097E-007  0.1036713E+04  0.7818608E-02  0.9269171E-01
         -4   -1    0    0    0  501 -0.00000000000E+00  0.00000000000E+00  0.66929481959E+03  0.66929481959E+03  0.00000000000E+00 0.  1.
          3   -1    0    0  501    0  0.00000000000E+00 -0.00000000000E+00 -0.18531860565E+04  0.18531860565E+04  0.00000000000E+00 0. -1.
        -24    2    1    2    0    0  0.99662742583E+03  0.22758168576E+03 -0.70344210296E+03  0.12435173638E+04  0.80280709788E+02 0.  0.
    5000000    2    1    2    0    0 -0.99662742583E+03 -0.22758168576E+03 -0.48044913396E+03  0.12789635122E+04  0.59988052622E+03 0.  0.
        -24    2    4    4    0    0 -0.45234309740E+03  0.99508869551E+01 -0.50041974704E+03  0.67941110643E+03  0.80412874581E+02 0.  0.
         24    2    4    4    0    0 -0.54428432843E+03 -0.23753257272E+03  0.19970613081E+02  0.59955240582E+03  0.79981927070E+02 0.  0.
         11    1    3    3    0    0  0.62643606136E+03  0.16122258957E+03 -0.48610736529E+03  0.80914475401E+03  0.00000000000E+00 0. -1.
        -12    1    3    3    0    0  0.37019136447E+03  0.66359096193E+02 -0.21733473767E+03  0.43437260984E+03  0.00000000000E+00 0.  1.
         15    1    5    5    0    0 -0.22636978115E+03 -0.18805129629E+02 -0.29776175437E+03  0.37451586189E+03  0.17770000000E+01 0. -1.
        -16    1    5    5    0    0 -0.22597331625E+03  0.28756016584E+02 -0.20265799267E+03  0.30489524453E+03  0.00000000000E+00 0.  1.
          2    1    6    6  502    0 -0.21851238846E+03 -0.11937347235E+03 -0.24394792581E+02  0.25018552259E+03  0.00000000000E+00 0. -1.
         -1    1    6    6    0  502 -0.32577193998E+03 -0.11815910036E+03  0.44365405662E+02  0.34936688323E+03  0.00000000000E+00 0.  1.
<mgrwt>
<rscale>  0 0.10367129E+04</rscale>
<asrwt>0</asrwt>
<pdfrwt beam="1">  1        3 0.28510554E+00 0.10367129E+04</pdfrwt>
<pdfrwt beam="2">  1       -4 0.10296844E+00 0.10367129E+04</pdfrwt>
<totfact> 0.80037481E-02</totfact>
</mgrwt>
</event>
<event>
12    3  0.1182097E-007  0.6596238E+03  0.7818608E-02  0.9788887E-01
         -2   -1    0    0    0  501 -0.00000000000E+00  0.00000000000E+00  0.59423823097E+03  0.59423823097E+03  0.00000000000E+00 0.  1.
          1   -1    0    0  501    0  0.00000000000E+00 -0.00000000000E+00 -0.88948986795E+03  0.88948986795E+03  0.00000000000E+00 0. -1.
        -24    2    1    2    0    0  0.31937272498E+03  0.44916183089E+03  0.11982257281E+03  0.56959248994E+03  0.79579317981E+02 0.  0.
    5000000    2    1    2    0    0 -0.31937272498E+03 -0.44916183089E+03 -0.41507420979E+03  0.91413560897E+03  0.59967659965E+03 0.  0.
        -24    2    4    4    0    0  0.14635267896E+03 -0.90168850934E+02  0.61252119646E+00  0.18947976164E+03  0.79703679797E+02 0.  0.
         24    2    4    4    0    0 -0.46572540394E+03 -0.35899297996E+03 -0.41568673099E+03  0.72465584733E+03  0.80960034661E+02 0.  0.
         11    1    3    3    0    0  0.21580386975E+03  0.33699114869E+03  0.55798718365E+02  0.40403940584E+03  0.00000000000E+00 0. -1.
        -12    1    3    3    0    0  0.10356885523E+03  0.11217068220E+03  0.64023854447E+02  0.16555308410E+03  0.00000000000E+00 0.  1.
         15    1    5    5    0    0  0.35219303810E+02 -0.39661395817E+02 -0.33463484992E+02  0.62740642615E+02  0.17770000000E+01 0. -1.
        -16    1    5    5    0    0  0.11113337515E+03 -0.50507455117E+02  0.34076006188E+02  0.12673911903E+03  0.00000000000E+00 0.  1.
          2    1    6    6  502    0 -0.16182698323E+03 -0.16274309693E+03 -0.19285164540E+03  0.29977499101E+03  0.00000000000E+00 0. -1.
         -1    1    6    6    0  502 -0.30389842071E+03 -0.19624988302E+03 -0.22283508559E+03  0.42488085632E+03  0.00000000000E+00 0.  1.
<mgrwt>
<rscale>  0 0.65962377E+03</rscale>
<asrwt>0</asrwt>
<pdfrwt beam="1">  1        1 0.13684459E+00 0.65962377E+03</pdfrwt>
<pdfrwt beam="2">  1       -2 0.91421267E-01 0.65962377E+03</pdfrwt>
<totfact> 0.17120953E+01</totfact>
</mgrwt>
</event>
<event>
12    3  0.1182097E-007  0.7751782E+03  0.7818608E-02  0.9596657E-01
          1   -1    0    0  501    0  0.00000000000E+00  0.00000000000E+00  0.17100178713E+04  0.17100178713E+04  0.00000000000E+00 0. -1.
         -2   -1    0    0    0  501 -0.00000000000E+00 -0.00000000000E+00 -0.53404982136E+03  0.53404982136E+03  0.00000000000E+00 0.  1.
        -24    2    1    2    0    0 -0.66404768261E+03  0.39129122668E+03  0.97751195466E+03  0.12474464573E+04  0.80776812022E+02 0.  0.
    5000000    2    1    2    0    0  0.66404768261E+03 -0.39129122668E+03  0.19845609528E+03  0.99662123539E+03  0.59983407391E+03 0.  0.
        -24    2    4    4    0    0  0.35785152166E+03 -0.22033743835E+03  0.39418639144E+03  0.58199508849E+03  0.82030930335E+02 0.  0.
         24    2    4    4    0    0  0.30619616095E+03 -0.17095378832E+03 -0.19573029616E+03  0.41462614691E+03  0.10306893879E+03 0.  0.
         13    1    3    3    0    0 -0.30512667432E+03  0.19958517759E+03  0.52102266677E+03  0.63592542784E+03  0.00000000000E+00 0. -1.
        -14    1    3    3    0    0 -0.35892100830E+03  0.19170604909E+03  0.45648928789E+03  0.61152102941E+03  0.00000000000E+00 0.  1.
         15    1    5    5    0    0  0.27555347806E+02 -0.34644754865E+02  0.17301066740E+02  0.47560917482E+02  0.17770000000E+01 0. -1.
        -16    1    5    5    0    0  0.33029617386E+03 -0.18569268349E+03  0.37688532470E+03  0.53443417100E+03  0.00000000000E+00 0.  1.
          4    1    6    6  502    0  0.30700431553E+02  0.12675787436E+01  0.72029714457E+01  0.31559563544E+02  0.00000000000E+00 0. -1.
         -3    1    6    6    0  502  0.27549572940E+03 -0.17222136707E+03 -0.20293326760E+03  0.38306658336E+03  0.00000000000E+00 0.  1.
<mgrwt>
<rscale>  0 0.77517824E+03</rscale>
<asrwt>0</asrwt>
<pdfrwt beam="1">  1        1 0.26307967E+00 0.77517824E+03</pdfrwt>
<pdfrwt beam="2">  1       -2 0.82161512E-01 0.77517824E+03</pdfrwt>
<totfact> 0.55374913E+00</totfact>
</mgrwt>
</event>
<event>
12    3  0.1182097E-007  0.1173977E+04  0.7818608E-02  0.9135945E-01
         -2   -1    0    0    0  501 -0.00000000000E+00  0.00000000000E+00  0.11236796478E+04  0.11236796478E+04  0.00000000000E+00 0.  1.
          1   -1    0    0  501    0  0.00000000000E+00 -0.00000000000E+00 -0.14081615230E+04  0.14081615230E+04  0.00000000000E+00 0. -1.
        -24    2    1    2    0    0  0.61394210787E+03 -0.98017872003E+03 -0.39333467028E+03  0.12243270775E+04  0.81175088062E+02 0.  0.
    5000000    2    1    2    0    0 -0.61394210787E+03  0.98017872003E+03  0.10885279507E+03  0.13075140932E+04  0.60005744558E+03 0.  0.
        -24    2    4    4    0    0 -0.60308372894E+03  0.93972296005E+03 -0.54501364060E+02  0.11207980541E+04  0.80178884886E+02 0.  0.
         24    2    4    4    0    0 -0.10858378931E+02  0.40455759988E+02  0.16335415913E+03  0.18671603916E+03  0.80148144502E+02 0.  0.
         13    1    3    3    0    0  0.46539253170E+03 -0.67455811225E+03 -0.28499822016E+03  0.86766516632E+03  0.00000000000E+00 0. -1.
        -14    1    3    3    0    0  0.14854957617E+03 -0.30562060779E+03 -0.10833645013E+03  0.35666191122E+03  0.00000000000E+00 0.  1.
         15    1    5    5    0    0 -0.28786792778E+03  0.48891682316E+03  0.59842779787E+01  0.56740336016E+03  0.17770000000E+01 0. -1.
        -16    1    5    5    0    0 -0.31521580116E+03  0.45080613689E+03 -0.60485642038E+02  0.55339469391E+03  0.00000000000E+00 0.  1.
          4    1    6    6  502    0  0.18442454572E+02  0.37411313380E+02  0.14745526297E+03  0.15324093800E+03  0.00000000000E+00 0. -1.
         -3    1    6    6    0  502 -0.29300833503E+02  0.30444466077E+01  0.15898896153E+02  0.33475101165E+02  0.00000000000E+00 0.  1.
<mgrwt>
<rscale>  0 0.11739767E+04</rscale>
<asrwt>0</asrwt>
<pdfrwt beam="1">  1        1 0.21664023E+00 0.11739767E+04</pdfrwt>
<pdfrwt beam="2">  1       -2 0.17287379E+00 0.11739767E+04</pdfrwt>
<totfact> 0.13215871E+00</totfact>
</mgrwt>
</event>
<event>
12    3  0.1182097E-007  0.9734694E+03  0.7818608E-02  0.9338131E-01
          1   -1    0    0  501    0  0.00000000000E+00  0.00000000000E+00  0.11846954742E+04  0.11846954742E+04  0.00000000000E+00 0. -1.
         -2   -1    0    0    0  501 -0.00000000000E+00 -0.00000000000E+00 -0.12131551407E+04  0.12131551407E+04  0.00000000000E+00 0.  1.
        -24    2    1    2    0    0 -0.82192055998E+03  0.47970406971E+03  0.58158405106E+03  0.11180359250E+04  0.78069966662E+02 0.  0.
    5000000    2    1    2    0    0  0.82192055998E+03 -0.47970406971E+03 -0.61004371758E+03  0.12798146898E+04  0.60008574516E+03 0.  0.
        -24    2    4    4    0    0  0.50827894017E+03 -0.14614990462E+03 -0.28062851650E+02  0.53536224329E+03  0.78217212042E+02 0.  0.
         24    2    4    4    0    0  0.31364161981E+03 -0.33355416510E+03 -0.58198086593E+03  0.74445244655E+03  0.76669877567E+02 0.  0.
         13    1    3    3    0    0 -0.73198581327E+03  0.44942409278E+03  0.53874687080E+03  0.10139198375E+04  0.00000000000E+00 0. -1.
        -14    1    3    3    0    0 -0.89934746711E+02  0.30279976930E+02  0.42837180264E+02  0.10411608753E+03  0.00000000000E+00 0.  1.
         15    1    5    5    0    0  0.34455611076E+03 -0.12102174555E+03 -0.48748938655E+02  0.36843560239E+03  0.17770000000E+01 0. -1.
        -16    1    5    5    0    0  0.16372282941E+03 -0.25128159072E+02  0.20686087005E+02  0.16692664090E+03  0.00000000000E+00 0.  1.
          2    1    6    6  502    0  0.19226558265E+03 -0.24783863078E+03 -0.36205218527E+03  0.47903217641E+03  0.00000000000E+00 0. -1.
         -1    1    6    6    0  502  0.12137603716E+03 -0.85715534312E+02 -0.21992868066E+03  0.26542027013E+03  0.00000000000E+00 0.  1.
<mgrwt>
<rscale>  0 0.97346940E+03</rscale>
<asrwt>0</asrwt>
<pdfrwt beam="1">  1        1 0.18226084E+00 0.97346940E+03</pdfrwt>
<pdfrwt beam="2">  1       -2 0.18663925E+00 0.97346940E+03</pdfrwt>
<totfact> 0.15703652E+00</totfact>
</mgrwt>
</event>
<event>
12    3  0.1182097E-007  0.5069105E+03  0.7818608E-02  0.1011991E+00
          1   -1    0    0  501    0  0.00000000000E+00  0.00000000000E+00  0.66513713590E+03  0.66513713590E+03  0.00000000000E+00 0. -1.
         -2   -1    0    0    0  501 -0.00000000000E+00 -0.00000000000E+00 -0.76909002283E+03  0.76909002283E+03  0.00000000000E+00 0.  1.
        -24    2    1    2    0    0 -0.41519290977E+03 -0.24287654457E+03 -0.37920129892E+03  0.61744056187E+03  0.77878457313E+02 0.  0.
    5000000    2    1    2    0    0  0.41519290977E+03  0.24287654457E+03  0.27524841199E+03  0.81678659686E+03  0.60000374021E+03 0.  0.
        -24    2    4    4    0    0  0.29247506252E+03  0.78178770863E+02 -0.14131526267E+03  0.34530415757E+03  0.87243196643E+02 0.  0.
         24    2    4    4    0    0  0.12271784725E+03  0.16469777371E+03  0.41656367466E+03  0.47148243929E+03  0.81150285345E+02 0.  0.
         13    1    3    3    0    0 -0.13759850224E+03 -0.42067503513E+02 -0.96456876878E+02  0.17322514762E+03  0.00000000000E+00 0. -1.
        -14    1    3    3    0    0 -0.27759440753E+03 -0.20080904106E+03 -0.28274442204E+03  0.44421541425E+03  0.00000000000E+00 0.  1.
         15    1    5    5    0    0  0.68059606113E+02 -0.18539653718E+02 -0.35852983678E+02  0.79148107443E+02  0.17770000000E+01 0. -1.
        -16    1    5    5    0    0  0.22441545641E+03  0.96718424580E+02 -0.10546227899E+03  0.26615605013E+03  0.00000000000E+00 0.  1.
          2    1    6    6  502    0  0.66225762863E+01  0.45574244586E+02  0.15333818298E+03  0.16010455536E+03  0.00000000000E+00 0. -1.
         -1    1    6    6    0  502  0.11609527096E+03  0.11912352912E+03  0.26322549168E+03  0.31137788393E+03  0.00000000000E+00 0.  1.
<mgrwt>
<rscale>  0 0.50691046E+03</rscale>
<asrwt>0</asrwt>
<pdfrwt beam="1">  1        1 0.10232879E+00 0.50691046E+03</pdfrwt>
<pdfrwt beam="2">  1       -2 0.11832154E+00 0.50691046E+03</pdfrwt>
<totfact> 0.14882437E+01</totfact>
</mgrwt>
</event>
<event>
12    3  0.1182097E-007  0.4680223E+03  0.7818608E-02  0.1022480E+00
          1   -1    0    0  501    0  0.00000000000E+00  0.00000000000E+00  0.23267166704E+04  0.23267166704E+04  0.00000000000E+00 0. -1.
         -2   -1    0    0    0  501 -0.00000000000E+00 -0.00000000000E+00 -0.17481563273E+03  0.17481563273E+03  0.00000000000E+00 0.  1.
        -24    2    1    2    0    0 -0.26445477019E+03  0.14617543168E+03  0.78747415788E+02  0.32217368364E+03  0.79316736163E+02 0.  0.
    5000000    2    1    2    0    0  0.26445477019E+03 -0.14617543168E+03  0.20731536219E+04  0.21793586195E+04  0.60027866036E+03 0.  0.
        -24    2    4    4    0    0  0.54867652702E+02 -0.33207862908E+03  0.77679607297E+03  0.85021478858E+03  0.78526253783E+02 0.  0.
         24    2    4    4    0    0  0.20958711749E+03  0.18590319740E+03  0.12963575489E+04  0.13291438309E+04  0.87141666173E+02 0.  0.
         11    1    3    3    0    0 -0.67133054467E+02  0.28602617655E+02 -0.14280273186E+02  0.74356458637E+02  0.00000000000E+00 0. -1.
        -12    1    3    3    0    0 -0.19732171572E+03  0.11757281402E+03  0.93027688974E+02  0.24781722500E+03  0.00000000000E+00 0.  1.
         15    1    5    5    0    0  0.40290126342E+02 -0.10563685020E+03  0.19036632930E+03  0.22141575252E+03  0.17770000000E+01 0. -1.
        -16    1    5    5    0    0  0.14577526360E+02 -0.22644177888E+03  0.58642974366E+03  0.62879903606E+03  0.00000000000E+00 0.  1.
          2    1    6    6  502    0  0.19402474108E+03  0.19523432721E+03  0.12158550204E+04  0.12466216239E+04  0.00000000000E+00 0. -1.
         -1    1    6    6    0  502  0.15562376408E+02 -0.93311298127E+01  0.80502528499E+02  0.82522206937E+02  0.00000000000E+00 0.  1.
<mgrwt>
<rscale>  0 0.46802225E+03</rscale>
<asrwt>0</asrwt>
<pdfrwt beam="1">  1        1 0.35795639E+00 0.46802225E+03</pdfrwt>
<pdfrwt beam="2">  1       -2 0.26894714E-01 0.46802225E+03</pdfrwt>
<totfact> 0.21553063E+01</totfact>
</mgrwt>
</event>
<event>
12    3  0.1182097E-007  0.1173853E+04  0.7818608E-02  0.9136056E-01
          1   -1    0    0  501    0  0.00000000000E+00  0.00000000000E+00  0.15816456644E+04  0.15816456644E+04  0.00000000000E+00 0. -1.
         -2   -1    0    0    0  501 -0.00000000000E+00 -0.00000000000E+00 -0.10208792085E+04  0.10208792085E+04  0.00000000000E+00 0.  1.
        -24    2    1    2    0    0  0.43347374320E+03 -0.10191283479E+04 -0.20394702880E+03  0.11289556636E+04  0.80152506613E+02 0.  0.
    5000000    2    1    2    0    0 -0.43347374320E+03  0.10191283479E+04  0.76471348475E+03  0.14735692092E+04  0.60008118207E+03 0.  0.
        -24    2    4    4    0    0 -0.50882071588E+03  0.52401634839E+03  0.32701066415E+03  0.80427421419E+03  0.80183432552E+02 0.  0.
         24    2    4    4    0    0  0.75346972684E+02  0.49511199954E+03  0.43770282059E+03  0.66929499505E+03  0.74558519688E+02 0.  0.
         11    1    3    3    0    0  0.26386265740E+03 -0.70689674913E+03 -0.12253030477E+03  0.76442147503E+03  0.00000000000E+00 0. -1.
        -12    1    3    3    0    0  0.16961108580E+03 -0.31223159880E+03 -0.81416724027E+02  0.36453418861E+03  0.00000000000E+00 0.  1.
         15    1    5    5    0    0 -0.43911235959E+03  0.48745313435E+03  0.29120848563E+03  0.71779924934E+03  0.17770000000E+01 0. -1.
        -16    1    5    5    0    0 -0.69708356294E+02  0.36563214037E+02  0.35802178526E+02  0.86474964846E+02  0.00000000000E+00 0.  1.
          4    1    6    6  502    0  0.58209133998E+02  0.22531037544E+03  0.16477378729E+03  0.28513763263E+03  0.00000000000E+00 0. -1.
         -3    1    6    6    0  502  0.17137838686E+02  0.26980162410E+03  0.27292903330E+03  0.38415736242E+03  0.00000000000E+00 0.  1.
<mgrwt>
<rscale>  0 0.11738532E+04</rscale>
<asrwt>0</asrwt>
<pdfrwt beam="1">  1        1 0.24333010E+00 0.11738532E+04</pdfrwt>
<pdfrwt beam="2">  1       -2 0.15705834E+00 0.11738532E+04</pdfrwt>
<totfact> 0.13058016E+00</totfact>
</mgrwt>
</event>
<event>
12    3  0.1182097E-007  0.1539401E+04  0.7818608E-02  0.8858666E-01
         -2   -1    0    0    0  501 -0.00000000000E+00  0.00000000000E+00  0.18226792315E+04  0.18226792315E+04  0.00000000000E+00 0.  1.
          1   -1    0    0  501    0  0.00000000000E+00 -0.00000000000E+00 -0.17056102527E+04  0.17056102527E+04  0.00000000000E+00 0. -1.
        -24    2    1    2    0    0  0.53772601600E+03 -0.14128190145E+04 -0.74529691447E+03  0.16873632418E+04  0.80748889152E+02 0.  0.
    5000000    2    1    2    0    0 -0.53772601600E+03  0.14128190145E+04  0.86236589333E+03  0.18409262423E+04  0.60010637359E+03 0.  0.
        -24    2    4    4    0    0 -0.68249608868E+00  0.51447084058E+03  0.69340800476E+02  0.52530905664E+03  0.80378770655E+02 0.  0.
         24    2    4    4    0    0 -0.53704351991E+03  0.89834817395E+03  0.79302509285E+03  0.13156171857E+04  0.80713056378E+02 0.  0.
         13    1    3    3    0    0  0.15695052399E+03 -0.35657165088E+03 -0.15977779502E+03  0.42107689674E+03  0.00000000000E+00 0. -1.
        -14    1    3    3    0    0  0.38077549201E+03 -0.10562473636E+04 -0.58551911946E+03  0.12662863451E+04  0.00000000000E+00 0.  1.
         15    1    5    5    0    0  0.18269671482E+01  0.51422744487E+03  0.74465809923E+02  0.51959745712E+03  0.17770000000E+01 0. -1.
        -16    1    5    5    0    0 -0.25094632369E+01  0.24339570187E+00 -0.51250094475E+01  0.57115995169E+01  0.00000000000E+00 0.  1.
          2    1    6    6  502    0 -0.49786144727E+03  0.86580490489E+03  0.75129981902E+03  0.12497742084E+04  0.00000000000E+00 0. -1.
         -1    1    6    6    0  502 -0.39182072635E+02  0.32543269062E+02  0.41725273832E+02  0.65842977253E+02  0.00000000000E+00 0.  1.
<mgrwt>
<rscale>  0 0.15394010E+04</rscale>
<asrwt>0</asrwt>
<pdfrwt beam="1">  1        1 0.26240158E+00 0.15394010E+04</pdfrwt>
<pdfrwt beam="2">  1       -2 0.28041219E+00 0.15394010E+04</pdfrwt>
<totfact> 0.16249923E-01</totfact>
</mgrwt>
</event>
<event>
12    3  0.1182097E-007  0.1229166E+04  0.7818608E-02  0.9087703E-01
         -2   -1    0    0    0  501 -0.00000000000E+00  0.00000000000E+00  0.18577803445E+04  0.18577803445E+04  0.00000000000E+00 0.  1.
          1   -1    0    0  501    0  0.00000000000E+00 -0.00000000000E+00 -0.94086777556E+03  0.94086777556E+03  0.00000000000E+00 0. -1.
        -24    2    1    2    0    0  0.99032067518E+03  0.70821088949E+03  0.74739594051E+03  0.14307803637E+04  0.78956023321E+02 0.  0.
    5000000    2    1    2    0    0 -0.99032067518E+03 -0.70821088949E+03  0.16951662847E+03  0.13678677564E+04  0.60002383947E+03 0.  0.
        -24    2    4    4    0    0 -0.75138443571E+02 -0.98863671399E+02 -0.15924769903E+03  0.21750763304E+03  0.80807979564E+02 0.  0.
         24    2    4    4    0    0 -0.91518223161E+03 -0.60934721809E+03  0.32876432749E+03  0.11503601233E+04  0.79874157814E+02 0.  0.
         11    1    3    3    0    0  0.60030809888E+03  0.46607105918E+03  0.49376652620E+03  0.90630978599E+03  0.00000000000E+00 0. -1.
        -12    1    3    3    0    0  0.39001257630E+03  0.24213983031E+03  0.25362941431E+03  0.52447057773E+03  0.00000000000E+00 0.  1.
         15    1    5    5    0    0 -0.58659561625E+02 -0.25914124533E+02 -0.11191998518E+03  0.12900281715E+03  0.17770000000E+01 0. -1.
        -16    1    5    5    0    0 -0.16478881946E+02 -0.72949546865E+02 -0.47327713841E+02  0.88504815888E+02  0.00000000000E+00 0.  1.
          2    1    6    6  502    0 -0.10167707539E+03 -0.51894194674E+02  0.56036961665E+02  0.12716672589E+03  0.00000000000E+00 0. -1.
         -1    1    6    6    0  502 -0.81350515622E+03 -0.55745302342E+03  0.27272736583E+03  0.10231933974E+04  0.00000000000E+00 0.  1.
<mgrwt>
<rscale>  0 0.12291664E+04</rscale>
<asrwt>0</asrwt>
<pdfrwt beam="1">  1        1 0.14474889E+00 0.12291664E+04</pdfrwt>
<pdfrwt beam="2">  1       -2 0.28581236E+00 0.12291664E+04</pdfrwt>
<totfact> 0.56026261E-01</totfact>
</mgrwt>
</event>
<event>
12    3  0.1182097E-007  0.9622273E+03  0.7818608E-02  0.9350972E-01
          3   -1    0    0  501    0  0.00000000000E+00  0.00000000000E+00  0.40745066427E+04  0.40745066427E+04  0.00000000000E+00 0. -1.
         -4   -1    0    0    0  501 -0.00000000000E+00 -0.00000000000E+00 -0.92410342129E+03  0.92410342129E+03  0.00000000000E+00 0.  1.
        -24    2    1    2    0    0  0.51514238056E+01  0.89737330788E+03  0.36853310474E+04  0.37937148682E+04  0.72816080037E+02 0.  0.
    5000000    2    1    2    0    0 -0.51514238056E+01 -0.89737330788E+03 -0.53492782595E+03  0.12048951958E+04  0.60026599360E+03 0.  0.
        -24    2    4    4    0    0  0.13955236921E+03 -0.28499403990E+02 -0.20405397592E+03  0.26027629043E+03  0.76280026829E+02 0.  0.
         24    2    4    4    0    0 -0.14470379302E+03 -0.86887390389E+03 -0.33087385003E+03  0.94461890538E+03  0.83344605121E+02 0.  0.
         13    1    3    3    0    0  0.20949608375E+02  0.67152993750E+03  0.26401172730E+04  0.27242633056E+04  0.00000000000E+00 0. -1.
        -14    1    3    3    0    0 -0.15798184570E+02  0.22584337038E+03  0.10452137743E+04  0.10694515626E+04  0.00000000000E+00 0.  1.
         15    1    5    5    0    0  0.87926198571E+02 -0.14401390097E+02 -0.18150760580E+03  0.20220431530E+03  0.17770000000E+01 0. -1.
        -16    1    5    5    0    0  0.51626170643E+02 -0.14098013893E+02 -0.22546370119E+02  0.58071975139E+02  0.00000000000E+00 0.  1.
          4    1    6    6  502    0 -0.13109618858E+03 -0.59106942085E+03 -0.24944227278E+03  0.65480586312E+03  0.00000000000E+00 0. -1.
         -3    1    6    6    0  502 -0.13607604443E+02 -0.27780448303E+03 -0.81431577256E+02  0.28981304226E+03  0.00000000000E+00 0.  1.
<mgrwt>
<rscale>  0 0.96222729E+03</rscale>
<asrwt>0</asrwt>
<pdfrwt beam="1">  1        3 0.62684717E+00 0.96222729E+03</pdfrwt>
<pdfrwt beam="2">  1       -4 0.14216976E+00 0.96222729E+03</pdfrwt>
<totfact> 0.65201717E-04</totfact>
</mgrwt>
</event>
<event>
12    3  0.1182097E-007  0.8272446E+03  0.7818608E-02  0.9521398E-01
         -2   -1    0    0    0  501 -0.00000000000E+00  0.00000000000E+00  0.30253425808E+03  0.30253425808E+03  0.00000000000E+00 0.  1.
          1   -1    0    0  501    0  0.00000000000E+00 -0.00000000000E+00 -0.34001976152E+04  0.34001976152E+04  0.00000000000E+00 0. -1.
        -24    2    1    2    0    0  0.27998454821E+03  0.77203421548E+03 -0.21869154726E+04  0.23374066993E+04  0.80265910795E+02 0.  0.
    5000000    2    1    2    0    0 -0.27998454821E+03 -0.77203421548E+03 -0.91074788455E+03  0.13653251740E+04  0.60018575834E+03 0.  0.
        -24    2    4    4    0    0 -0.23713665002E+03 -0.53555332174E+03 -0.94010462972E+03  0.11105645037E+04  0.80657615375E+02 0.  0.
         24    2    4    4    0    0 -0.42847898194E+02 -0.23648089373E+03  0.29356745166E+02  0.25476067030E+03  0.79259227615E+02 0.  0.
         11    1    3    3    0    0  0.22639875111E+03  0.51885565932E+03 -0.14731742341E+04  0.15781983125E+04  0.00000000000E+00 0. -1.
        -12    1    3    3    0    0  0.53585797105E+02  0.25317855615E+03 -0.71374123852E+03  0.75920838675E+03  0.00000000000E+00 0.  1.
         15    1    5    5    0    0 -0.39194889803E+02 -0.99283107010E+02 -0.23493654689E+03  0.25805370278E+03  0.17770000000E+01 0. -1.
        -16    1    5    5    0    0 -0.19794176022E+03 -0.43627021473E+03 -0.70516808282E+03  0.85251080095E+03  0.00000000000E+00 0.  1.
          4    1    6    6  502    0 -0.23350374407E+02 -0.39913423029E+02  0.33637530993E+02  0.57182207146E+02  0.00000000000E+00 0. -1.
         -3    1    6    6    0  502 -0.19497523787E+02 -0.19656747070E+03 -0.42807858272E+01  0.19757846315E+03  0.00000000000E+00 0.  1.
<mgrwt>
<rscale>  0 0.82724458E+03</rscale>
<asrwt>0</asrwt>
<pdfrwt beam="1">  1        1 0.52310738E+00 0.82724458E+03</pdfrwt>
<pdfrwt beam="2">  1       -2 0.46543728E-01 0.82724458E+03</pdfrwt>
<totfact> 0.12255895E+00</totfact>
</mgrwt>
</event>
<event>
12    3  0.1182097E-007  0.5025024E+03  0.7818608E-02  0.1013128E+00
         -2   -1    0    0    0  501 -0.00000000000E+00  0.00000000000E+00  0.39923399845E+03  0.39923399845E+03  0.00000000000E+00 0.  1.
          1   -1    0    0  501    0  0.00000000000E+00 -0.00000000000E+00 -0.75259206335E+03  0.75259206335E+03  0.00000000000E+00 0. -1.
        -24    2    1    2    0    0 -0.35127391071E+03  0.13696590580E+03 -0.83585900515E+02  0.39366006481E+03  0.76345426573E+02 0.  0.
    5000000    2    1    2    0    0  0.35127391071E+03 -0.13696590580E+03 -0.26977216438E+03  0.75816599699E+03  0.59990469128E+03 0.  0.
        -24    2    4    4    0    0 -0.85056779393E+02 -0.14733285042E+03  0.69941215015E+02  0.19934632692E+03  0.76847641240E+02 0.  0.
         24    2    4    4    0    0  0.43633069011E+03  0.10366944619E+02 -0.33971337940E+03  0.55881967007E+03  0.79889291177E+02 0.  0.
         13    1    3    3    0    0 -0.13152779718E+03  0.83722020624E+02 -0.56964800315E+02  0.16599375484E+03  0.00000000000E+00 0. -1.
        -14    1    3    3    0    0 -0.21974611353E+03  0.53243885181E+02 -0.26621100200E+02  0.22766630997E+03  0.00000000000E+00 0.  1.
         15    1    5    5    0    0 -0.31023953936E+02 -0.10841987672E+03  0.70033093515E+02  0.13275973525E+03  0.17770000000E+01 0. -1.
        -16    1    5    5    0    0 -0.54032825456E+02 -0.38912973700E+02 -0.91878499400E-01  0.66586591673E+02  0.00000000000E+00 0.  1.
          4    1    6    6  502    0  0.29441608670E+03 -0.30346520836E+02 -0.23193387470E+03  0.37602535243E+03  0.00000000000E+00 0. -1.
         -3    1    6    6    0  502  0.14191460340E+03  0.40713465455E+02 -0.10777950470E+03  0.18279431764E+03  0.00000000000E+00 0.  1.
<mgrwt>
<rscale>  0 0.50250235E+03</rscale>
<asrwt>0</asrwt>
<pdfrwt beam="1">  1        1 0.11578339E+00 0.50250235E+03</pdfrwt>
<pdfrwt beam="2">  1       -2 0.61420615E-01 0.50250235E+03</pdfrwt>
<totfact> 0.54846490E+01</totfact>
</mgrwt>
</event>
<event>
12    3  0.1182097E-007  0.8023009E+03  0.7818608E-02  0.9556693E-01
         -2   -1    0    0    0  501 -0.00000000000E+00  0.00000000000E+00  0.50148979483E+03  0.50148979483E+03  0.00000000000E+00 0.  1.
          1   -1    0    0  501    0  0.00000000000E+00 -0.00000000000E+00 -0.19954888242E+04  0.19954888242E+04  0.00000000000E+00 0. -1.
        -24    2    1    2    0    0  0.78490947855E+03  0.14261038513E+02 -0.11104770790E+03  0.79734844958E+03  0.84538097237E+02 0.  0.
    5000000    2    1    2    0    0 -0.78490947855E+03 -0.14261038513E+02 -0.13829513215E+04  0.16996301695E+04  0.59991840166E+03 0.  0.
        -24    2    4    4    0    0 -0.12924221957E+03  0.36484546106E+02  0.11721098228E+02  0.15561747612E+03  0.77747934418E+02 0.  0.
         24    2    4    4    0    0 -0.65566725898E+03 -0.50745584619E+02 -0.13946724197E+04  0.15440126934E+04  0.79933535360E+02 0.  0.
         11    1    3    3    0    0  0.43886508146E+03 -0.33719275833E+02 -0.56855720515E+02  0.44381541460E+03  0.00000000000E+00 0. -1.
        -12    1    3    3    0    0  0.34604439709E+03  0.47980314346E+02 -0.54191987389E+02  0.35353303498E+03  0.00000000000E+00 0.  1.
         15    1    5    5    0    0  0.90929207631E+01 -0.34397541150E+01  0.59184133747E+01  0.11519481857E+02  0.17770000000E+01 0. -1.
        -16    1    5    5    0    0 -0.13833514033E+03  0.39924300221E+02  0.58026848529E+01  0.14409799426E+03  0.00000000000E+00 0.  1.
          2    1    6    6  502    0 -0.25689961891E+03  0.13784655978E+02 -0.58933069842E+03  0.64303818163E+03  0.00000000000E+00 0. -1.
         -1    1    6    6    0  502 -0.39876764007E+03 -0.64530240597E+02 -0.80534172131E+03  0.90097451174E+03  0.00000000000E+00 0.  1.
<mgrwt>
<rscale>  0 0.80230088E+03</rscale>
<asrwt>0</asrwt>
<pdfrwt beam="1">  1        1 0.30699829E+00 0.80230088E+03</pdfrwt>
<pdfrwt beam="2">  1       -2 0.77152275E-01 0.80230088E+03</pdfrwt>
<totfact> 0.40885238E+00</totfact>
</mgrwt>
</event>
<event>
12    3  0.1182097E-007  0.6176911E+03  0.7818608E-02  0.9869368E-01
          1   -1    0    0  501    0  0.00000000000E+00  0.00000000000E+00  0.70137626465E+03  0.70137626465E+03  0.00000000000E+00 0. -1.
         -2   -1    0    0    0  501 -0.00000000000E+00 -0.00000000000E+00 -0.62049017271E+03  0.62049017271E+03  0.00000000000E+00 0.  1.
        -24    2    1    2    0    0  0.47586942098E+03  0.12860882615E+03 -0.13254361556E+03  0.51655660719E+03  0.79189534777E+02 0.  0.
    5000000    2    1    2    0    0 -0.47586942098E+03 -0.12860882615E+03  0.21342970750E+03  0.80530983017E+03  0.59998312187E+03 0.  0.
        -24    2    4    4    0    0 -0.56797225058E+02 -0.27176989911E+03 -0.35035337888E+02  0.29120483534E+03  0.80547988113E+02 0.  0.
         24    2    4    4    0    0 -0.41907219592E+03  0.14316107296E+03  0.24846504539E+03  0.51410499483E+03  0.80327260130E+02 0.  0.
         13    1    3    3    0    0  0.19341659512E+03  0.92176301027E+02 -0.64358003792E+02  0.22371500261E+03  0.00000000000E+00 0. -1.
        -14    1    3    3    0    0  0.28245282586E+03  0.36432525122E+02 -0.68185611768E+02  0.29284160458E+03  0.00000000000E+00 0.  1.
         15    1    5    5    0    0 -0.75191104470E+02 -0.19529271099E+03 -0.13794815970E+02  0.20972934900E+03  0.17770000000E+01 0. -1.
        -16    1    5    5    0    0  0.18393879412E+02 -0.76477188121E+02 -0.21240521918E+02  0.81475486338E+02  0.00000000000E+00 0.  1.
          2    1    6    6  502    0 -0.31665780478E+03  0.75133568804E+02  0.19972695666E+03  0.38184823649E+03  0.00000000000E+00 0. -1.
         -1    1    6    6    0  502 -0.10241439114E+03  0.68027504155E+02  0.48738088734E+02  0.13225675834E+03  0.00000000000E+00 0.  1.
<mgrwt>
<rscale>  0 0.61769109E+03</rscale>
<asrwt>0</asrwt>
<pdfrwt beam="1">  1        1 0.10790404E+00 0.61769109E+03</pdfrwt>
<pdfrwt beam="2">  1       -2 0.95460027E-01 0.61769109E+03</pdfrwt>
<totfact> 0.22659366E+01</totfact>
</mgrwt>
</event>
<event>
12    3  0.1182097E-007  0.4136480E+03  0.7818608E-02  0.1039154E+00
         -2   -1    0    0    0  501 -0.00000000000E+00  0.00000000000E+00  0.89104637232E+02  0.89104637232E+02  0.00000000000E+00 0.  1.
          1   -1    0    0  501    0  0.00000000000E+00 -0.00000000000E+00 -0.21121159808E+04  0.21121159808E+04  0.00000000000E+00 0. -1.
        -24    2    1    2    0    0 -0.56325463213E+02  0.18946623004E+03 -0.75999866799E+03  0.78905556726E+03  0.77075954416E+02 0.  0.
    5000000    2    1    2    0    0  0.56325463213E+02 -0.18946623004E+03 -0.12630126755E+04  0.14121650507E+04  0.59994924936E+03 0.  0.
        -24    2    4    4    0    0  0.30356112547E+03 -0.19425406648E+03 -0.79368718956E+03  0.87551486039E+03  0.81871342056E+02 0.  0.
         24    2    4    4    0    0 -0.24723566226E+03  0.47878364342E+01 -0.46932548599E+03  0.53665019035E+03  0.81108685933E+02 0.  0.
         11    1    3    3    0    0  0.14951059239E+02  0.75620602939E+02 -0.30988386089E+03  0.31932744480E+03  0.00000000000E+00 0. -1.
        -12    1    3    3    0    0 -0.71276522452E+02  0.11384562710E+03 -0.45011480710E+03  0.46972812247E+03  0.00000000000E+00 0.  1.
         15    1    5    5    0    0  0.25897944871E+03 -0.19418561970E+03 -0.67150428770E+03  0.74545259801E+03  0.17770000000E+01 0. -1.
        -16    1    5    5    0    0  0.44581676762E+02 -0.68446774194E-01 -0.12218290186E+03  0.13006226238E+03  0.00000000000E+00 0.  1.
          4    1    6    6  502    0 -0.20132306850E+03 -0.10840756096E+01 -0.43400344311E+03  0.47842569095E+03  0.00000000000E+00 0. -1.
         -3    1    6    6    0  502 -0.45912593765E+02  0.58719120439E+01 -0.35322042872E+02  0.58224499396E+02  0.00000000000E+00 0.  1.
<mgrwt>
<rscale>  0 0.41364797E+03</rscale>
<asrwt>0</asrwt>
<pdfrwt beam="1">  1        1 0.32494089E+00 0.41364797E+03</pdfrwt>
<pdfrwt beam="2">  1       -2 0.13708407E-01 0.41364797E+03</pdfrwt>
<totfact> 0.96878104E+01</totfact>
</mgrwt>
</event>
<event>
12    3  0.1182097E-007  0.5755488E+03  0.7818608E-02  0.9957475E-01
         -2   -1    0    0    0  501 -0.00000000000E+00  0.00000000000E+00  0.19358294160E+03  0.19358294160E+03  0.00000000000E+00 0.  1.
          1   -1    0    0  501    0  0.00000000000E+00 -0.00000000000E+00 -0.22643189315E+04  0.22643189315E+04  0.00000000000E+00 0. -1.
        -24    2    1    2    0    0  0.26465894541E+03  0.43985049329E+03 -0.64539818486E+03  0.82846188626E+03  0.79356575856E+02 0.  0.
    5000000    2    1    2    0    0 -0.26465894541E+03 -0.43985049329E+03 -0.14253378050E+04  0.16294399868E+04  0.59997833161E+03 0.  0.
        -24    2    4    4    0    0 -0.27939117985E+03 -0.11757119025E+03 -0.11678960190E+04  0.12091139922E+04  0.78058431601E+02 0.  0.
         24    2    4    4    0    0  0.14732234436E+02 -0.32227930304E+03 -0.25744178599E+03  0.42032599461E+03  0.79477548220E+02 0.  0.
         13    1    3    3    0    0  0.63283076144E+02  0.59187207191E+02 -0.13799787969E+03  0.16294565972E+03  0.00000000000E+00 0. -1.
        -14    1    3    3    0    0  0.20137586927E+03  0.38066328610E+03 -0.50740030517E+03  0.66551622655E+03  0.00000000000E+00 0.  1.
         15    1    5    5    0    0 -0.11150124369E+03 -0.75093169606E+02 -0.62375352799E+03  0.63807768561E+03  0.17770000000E+01 0. -1.
        -16    1    5    5    0    0 -0.16788993616E+03 -0.42478020645E+02 -0.54414249103E+03  0.57103630660E+03  0.00000000000E+00 0.  1.
          2    1    6    6  502    0  0.31703877207E+02 -0.24608130059E+03 -0.15900866871E+03  0.29469458606E+03  0.00000000000E+00 0. -1.
         -1    1    6    6    0  502 -0.16971642771E+02 -0.76198002452E+02 -0.98433117283E+02  0.12563140855E+03  0.00000000000E+00 0.  1.
<mgrwt>
<rscale>  0 0.57554881E+03</rscale>
<asrwt>0</asrwt>
<pdfrwt beam="1">  1        1 0.34835674E+00 0.57554881E+03</pdfrwt>
<pdfrwt beam="2">  1       -2 0.29781993E-01 0.57554881E+03</pdfrwt>
<totfact> 0.19263544E+01</totfact>
</mgrwt>
</event>
<event>
12    3  0.1182097E-007  0.5243610E+03  0.7818608E-02  0.1007609E+00
         -2   -1    0    0    0  501 -0.00000000000E+00  0.00000000000E+00  0.18927526759E+03  0.18927526759E+03  0.00000000000E+00 0.  1.
          1   -1    0    0  501    0  0.00000000000E+00 -0.00000000000E+00 -0.18358544773E+04  0.18358544773E+04  0.00000000000E+00 0. -1.
        -24    2    1    2    0    0 -0.32093451911E+03 -0.15699738008E+03 -0.19658951052E+03  0.41567554815E+03  0.80570359155E+02 0.  0.
    5000000    2    1    2    0    0  0.32093451911E+03  0.15699738008E+03 -0.14499896992E+04  0.16094541968E+04  0.60018792121E+03 0.  0.
        -24    2    4    4    0    0  0.48761047206E+03  0.13299926258E+03 -0.10959236121E+04  0.12093589377E+04  0.77766962856E+02 0.  0.
         24    2    4    4    0    0 -0.16667595295E+03  0.23998117503E+02 -0.35406608716E+03  0.40009525903E+03  0.79728534977E+02 0.  0.
         13    1    3    3    0    0 -0.25424386498E+03 -0.14749861624E+03 -0.13151080135E+03  0.32201067614E+03  0.00000000000E+00 0. -1.
        -14    1    3    3    0    0 -0.66690654124E+02 -0.94987638469E+01 -0.65078709169E+02  0.93664872013E+02  0.00000000000E+00 0.  1.
         15    1    5    5    0    0  0.40512331715E+03  0.79271468285E+02 -0.87444147961E+03  0.96698496719E+03  0.17770000000E+01 0. -1.
        -16    1    5    5    0    0  0.82487154910E+02  0.53727794295E+02 -0.22148213246E+03  0.24237397055E+03  0.00000000000E+00 0.  1.
          2    1    6    6  502    0 -0.64979852009E+02 -0.15958666141E+02 -0.75587281577E+02  0.10094799319E+03  0.00000000000E+00 0. -1.
         -1    1    6    6    0  502 -0.10169610094E+03  0.39956783644E+02 -0.27847880558E+03  0.29914726585E+03  0.00000000000E+00 0.  1.
<mgrwt>
<rscale>  0 0.52436102E+03</rscale>
<asrwt>0</asrwt>
<pdfrwt beam="1">  1        1 0.28243914E+00 0.52436102E+03</pdfrwt>
<pdfrwt beam="2">  1       -2 0.29119273E-01 0.52436102E+03</pdfrwt>
<totfact> 0.39015753E+01</totfact>
</mgrwt>
</event>
<event>
12    3  0.1182097E-007  0.6281056E+03  0.7818608E-02  0.9848753E-01
         -2   -1    0    0    0  501 -0.00000000000E+00  0.00000000000E+00  0.28729591554E+03  0.28729591554E+03  0.00000000000E+00 0.  1.
          1   -1    0    0  501    0  0.00000000000E+00 -0.00000000000E+00 -0.14355774522E+04  0.14355774522E+04  0.00000000000E+00 0. -1.
        -24    2    1    2    0    0  0.45379371488E+03 -0.20370591441E+03 -0.49153421719E+03  0.70366692874E+03  0.78207574483E+02 0.  0.
    5000000    2    1    2    0    0 -0.45379371488E+03  0.20370591441E+03 -0.65674731945E+03  0.10192064390E+04  0.60003323943E+03 0.  0.
        -24    2    4    4    0    0 -0.57903407078E+03  0.22973819410E+03 -0.55881593069E+03  0.84074309505E+03  0.80706967016E+02 0.  0.
         24    2    4    4    0    0  0.12524035590E+03 -0.26032279690E+02 -0.97931388761E+02  0.17846334394E+03  0.76783995035E+02 0.  0.
         13    1    3    3    0    0  0.25452057202E+02 -0.12232325634E+02 -0.67888885304E+01  0.29043519307E+02  0.00000000000E+00 0. -1.
        -14    1    3    3    0    0  0.42834165768E+03 -0.19147358877E+03 -0.48474532866E+03  0.67462340944E+03  0.00000000000E+00 0.  1.
         15    1    5    5    0    0 -0.19619719137E+03  0.85261695500E+02 -0.24370939797E+03  0.32428432433E+03  0.17770000000E+01 0. -1.
        -16    1    5    5    0    0 -0.38283687941E+03  0.14447649860E+03 -0.31510653273E+03  0.51645877072E+03  0.00000000000E+00 0.  1.
          4    1    6    6  502    0  0.12548326997E+02  0.11361348261E+02 -0.45726887542E+02  0.48759501525E+02  0.00000000000E+00 0. -1.
         -3    1    6    6    0  502  0.11269202890E+03 -0.37393627952E+02 -0.52204501219E+02  0.12970384241E+03  0.00000000000E+00 0.  1.
<mgrwt>
<rscale>  0 0.62810563E+03</rscale>
<asrwt>0</asrwt>
<pdfrwt beam="1">  1        1 0.22085807E+00 0.62810563E+03</pdfrwt>
<pdfrwt beam="2">  1       -2 0.44199371E-01 0.62810563E+03</pdfrwt>
<totfact> 0.32225049E+01</totfact>
</mgrwt>
</event>
<event>
12    3  0.1182097E-007  0.1029862E+04  0.7818608E-02  0.9276386E-01
         -2   -1    0    0    0  501 -0.00000000000E+00  0.00000000000E+00  0.45277658419E+03  0.45277658419E+03  0.00000000000E+00 0.  1.
          1   -1    0    0  501    0  0.00000000000E+00 -0.00000000000E+00 -0.24403703029E+04  0.24403703029E+04  0.00000000000E+00 0. -1.
        -24    2    1    2    0    0 -0.82538113380E+03 -0.45936632425E+03 -0.65095435311E+03  0.11498903805E+04  0.78961265303E+02 0.  0.
    5000000    2    1    2    0    0  0.82538113380E+03  0.45936632425E+03 -0.13366393656E+04  0.17432565066E+04  0.60005584593E+03 0.  0.
        -24    2    4    4    0    0  0.59829738494E+03  0.59329463841E+01 -0.77245095178E+03  0.98035342828E+03  0.80108743334E+02 0.  0.
         24    2    4    4    0    0  0.22708374887E+03  0.45343337787E+03 -0.56418841383E+03  0.76290307833E+03  0.80893037142E+02 0.  0.
         11    1    3    3    0    0 -0.42444222086E+03 -0.27959268625E+03 -0.33614064515E+03  0.60935523496E+03  0.00000000000E+00 0. -1.
        -12    1    3    3    0    0 -0.40093891294E+03 -0.17977363799E+03 -0.31481370797E+03  0.54053514553E+03  0.00000000000E+00 0.  1.
         15    1    5    5    0    0  0.54338217339E+02 -0.38162226097E+01 -0.38401165476E+02  0.66670928128E+02  0.17770000000E+01 0. -1.
        -16    1    5    5    0    0  0.54395916760E+03  0.97491689939E+01 -0.73404978630E+03  0.91368250015E+03  0.00000000000E+00 0.  1.
          2    1    6    6  502    0  0.15638137029E+03  0.22213842858E+03 -0.30044992198E+03  0.40505650229E+03  0.00000000000E+00 0. -1.
         -1    1    6    6    0  502  0.70702378578E+02  0.23129494928E+03 -0.26373849185E+03  0.35784657604E+03  0.00000000000E+00 0.  1.
<mgrwt>
<rscale>  0 0.10298616E+04</rscale>
<asrwt>0</asrwt>
<pdfrwt beam="1">  1        1 0.37544158E+00 0.10298616E+04</pdfrwt>
<pdfrwt beam="2">  1       -2 0.69657938E-01 0.10298616E+04</pdfrwt>
<totfact> 0.24838734E+00</totfact>
</mgrwt>
</event>
<event>
12    3  0.1182097E-007  0.1157036E+04  0.7818608E-02  0.9151317E-01
         -2   -1    0    0    0  501 -0.00000000000E+00  0.00000000000E+00  0.46471684255E+03  0.46471684255E+03  0.00000000000E+00 0.  1.
          1   -1    0    0  501    0  0.00000000000E+00 -0.00000000000E+00 -0.29872945120E+04  0.29872945120E+04  0.00000000000E+00 0. -1.
        -24    2    1    2    0    0  0.10825994517E+03 -0.10942345221E+04 -0.12368004304E+04  0.16569586143E+04  0.82262626294E+02 0.  0.
    5000000    2    1    2    0    0 -0.10825994517E+03  0.10942345221E+04 -0.12857772390E+04  0.17950527402E+04  0.59993485201E+03 0.  0.
        -24    2    4    4    0    0  0.15533263980E+03  0.99728997039E+02 -0.33280312652E+03  0.39045795385E+03  0.87323484055E+02 0.  0.
         24    2    4    4    0    0 -0.26359258496E+03  0.99450552508E+03 -0.95297411245E+03  0.14045947863E+04  0.78769058201E+02 0.  0.
         13    1    3    3    0    0  0.51340159197E+02 -0.48379717795E+03 -0.60879071332E+03  0.77930844597E+03  0.00000000000E+00 0. -1.
        -14    1    3    3    0    0  0.56919785972E+02 -0.61043734418E+03 -0.62800971712E+03  0.87765016834E+03  0.00000000000E+00 0.  1.
         15    1    5    5    0    0  0.35525799037E+02  0.32431367443E+02 -0.17361361628E+03  0.18016304138E+03  0.17770000000E+01 0. -1.
        -16    1    5    5    0    0  0.11980684076E+03  0.67297629595E+02 -0.15918951024E+03  0.21029491247E+03  0.00000000000E+00 0.  1.
          2    1    6    6  502    0 -0.19275002256E+03  0.70471006423E+03 -0.62748796975E+03  0.96307320491E+03  0.00000000000E+00 0. -1.
         -1    1    6    6    0  502 -0.70842562403E+02  0.28979546085E+03 -0.32548614270E+03  0.44152158143E+03  0.00000000000E+00 0.  1.
<mgrwt>
<rscale>  0 0.11570362E+04</rscale>
<asrwt>0</asrwt>
<pdfrwt beam="1">  1        1 0.45958379E+00 0.11570362E+04</pdfrwt>
<pdfrwt beam="2">  1       -2 0.71494896E-01 0.11570362E+04</pdfrwt>
<totfact> 0.95328441E-01</totfact>
</mgrwt>
</event>
<event>
12    3  0.1182097E-007  0.8637200E+03  0.7818608E-02  0.9472105E-01
          1   -1    0    0  501    0  0.00000000000E+00  0.00000000000E+00  0.13810125859E+04  0.13810125859E+04  0.00000000000E+00 0. -1.
         -2   -1    0    0    0  501 -0.00000000000E+00 -0.00000000000E+00 -0.10140249294E+04  0.10140249294E+04  0.00000000000E+00 0.  1.
        -24    2    1    2    0    0  0.65799019685E+03  0.46136423782E+03  0.94050829996E+03  0.12397840533E+04  0.81857054127E+02 0.  0.
    5000000    2    1    2    0    0 -0.65799019685E+03 -0.46136423782E+03 -0.57352064343E+03  0.11552534620E+04  0.59989713616E+03 0.  0.
        -24    2    4    4    0    0 -0.14276771189E+02 -0.20916674527E+03 -0.36505511114E+03  0.42859893069E+03  0.80481399733E+02 0.  0.
         24    2    4    4    0    0 -0.64371342566E+03 -0.25219749256E+03 -0.20846553230E+03  0.72665453133E+03  0.81230413744E+02 0.  0.
         11    1    3    3    0    0  0.52918123286E+03  0.40757239650E+03  0.78934216161E+03  0.10340256688E+04  0.00000000000E+00 0. -1.
        -12    1    3    3    0    0  0.12880896398E+03  0.53791841322E+02  0.15116613835E+03  0.20575838447E+03  0.00000000000E+00 0.  1.
         15    1    5    5    0    0  0.29642273849E+02 -0.43210918735E+02 -0.97563244661E+02  0.11075916366E+03  0.17770000000E+01 0. -1.
        -16    1    5    5    0    0 -0.43919045038E+02 -0.16595582653E+03 -0.26749186648E+03  0.31783976703E+03  0.00000000000E+00 0.  1.
          2    1    6    6  502    0 -0.15185602685E+03 -0.24568520481E+02 -0.37246523887E+02  0.15827560971E+03  0.00000000000E+00 0. -1.
         -1    1    6    6    0  502 -0.49185739881E+03 -0.22762897208E+03 -0.17121900841E+03  0.56837892161E+03  0.00000000000E+00 0.  1.
<mgrwt>
<rscale>  0 0.86372003E+03</rscale>
<asrwt>0</asrwt>
<pdfrwt beam="1">  1        1 0.21246348E+00 0.86372003E+03</pdfrwt>
<pdfrwt beam="2">  1       -2 0.15600383E+00 0.86372003E+03</pdfrwt>
<totfact> 0.19037734E+00</totfact>
</mgrwt>
</event>
<event>
12    3  0.1182097E-007  0.8766386E+03  0.7818608E-02  0.9455265E-01
         -4   -1    0    0    0  501 -0.00000000000E+00  0.00000000000E+00  0.53086170793E+03  0.53086170793E+03  0.00000000000E+00 0.  1.
          3   -1    0    0  501    0  0.00000000000E+00 -0.00000000000E+00 -0.15451108292E+04  0.15451108292E+04  0.00000000000E+00 0. -1.
        -24    2    1    2    0    0  0.75874264130E+03 -0.26036296043E+03 -0.38758111856E+03  0.89433505659E+03  0.78337750191E+02 0.  0.
    5000000    2    1    2    0    0 -0.75874264130E+03  0.26036296043E+03 -0.62666800267E+03  0.11816374805E+04  0.60006256579E+03 0.  0.
        -24    2    4    4    0    0 -0.81539988178E+03  0.24668811488E+03 -0.42141539295E+03  0.95499832747E+03  0.93267780257E+02 0.  0.
         24    2    4    4    0    0  0.56657240481E+02  0.13674845546E+02 -0.20525260972E+03  0.22663915302E+03  0.76417456040E+02 0.  0.
         11    1    3    3    0    0  0.52549157652E+03 -0.15941433376E+03 -0.23051263965E+03  0.59555890040E+03  0.00000000000E+00 0. -1.
        -12    1    3    3    0    0  0.23325106477E+03 -0.10094862667E+03 -0.15706847891E+03  0.29877615620E+03  0.00000000000E+00 0.  1.
         15    1    5    5    0    0 -0.25222058702E+03  0.37087263389E+02 -0.10331078787E+03  0.27507629168E+03  0.17770000000E+01 0. -1.
        -16    1    5    5    0    0 -0.56317929475E+03  0.20960085149E+03 -0.31810460508E+03  0.67992203579E+03  0.00000000000E+00 0.  1.
          2    1    6    6  502    0 -0.13168760675E+02 -0.13808455964E+02 -0.62741612021E+02  0.65578956936E+02  0.00000000000E+00 0. -1.
         -1    1    6    6    0  502  0.69826001156E+02  0.27483301509E+02 -0.14251099770E+03  0.16106019609E+03  0.00000000000E+00 0.  1.
<mgrwt>
<rscale>  0 0.87663864E+03</rscale>
<asrwt>0</asrwt>
<pdfrwt beam="1">  1        3 0.23770935E+00 0.87663864E+03</pdfrwt>
<pdfrwt beam="2">  1       -4 0.81671033E-01 0.87663864E+03</pdfrwt>
<totfact> 0.25955737E-01</totfact>
</mgrwt>
</event>
<event>
12    3  0.1182097E-007  0.4726681E+03  0.7818608E-02  0.1021170E+00
         -2   -1    0    0    0  501 -0.00000000000E+00  0.00000000000E+00  0.10902918895E+04  0.10902918895E+04  0.00000000000E+00 0.  1.
          1   -1    0    0  501    0  0.00000000000E+00 -0.00000000000E+00 -0.34579325723E+03  0.34579325723E+03  0.00000000000E+00 0. -1.
        -24    2    1    2    0    0  0.18323804825E+03  0.38730704144E+03  0.48785998231E+03  0.65547449172E+03  0.89758120951E+02 0.  0.
    5000000    2    1    2    0    0 -0.18323804825E+03 -0.38730704144E+03  0.25663864992E+03  0.78061065496E+03  0.59992222106E+03 0.  0.
        -24    2    4    4    0    0 -0.18181661935E+02  0.13077205159E+02 -0.15545365242E+03  0.17690529830E+03  0.81412900637E+02 0.  0.
         24    2    4    4    0    0 -0.16505638631E+03 -0.40038424660E+03  0.41209230233E+03  0.60370535666E+03  0.84195821925E+02 0.  0.
         13    1    3    3    0    0  0.95406157076E+02  0.13430991151E+03  0.23618162815E+03  0.28796397103E+03  0.00000000000E+00 0. -1.
        -14    1    3    3    0    0  0.87831891173E+02  0.25299712994E+03  0.25167835416E+03  0.36751052069E+03  0.00000000000E+00 0.  1.
         15    1    5    5    0    0 -0.23207555973E+02  0.43143775242E+02 -0.12285486120E+03  0.13227414957E+03  0.17770000000E+01 0. -1.
        -16    1    5    5    0    0  0.50258940374E+01 -0.30066570083E+02 -0.32598791218E+02  0.44631148723E+02  0.00000000000E+00 0.  1.
          4    1    6    6  502    0 -0.35527383188E+02 -0.10118028024E+03  0.15508892712E+03  0.18855296174E+03  0.00000000000E+00 0. -1.
         -3    1    6    6    0  502 -0.12952900313E+03 -0.29920396637E+03  0.25700337521E+03  0.41515239492E+03  0.00000000000E+00 0.  1.
<mgrwt>
<rscale>  0 0.47266812E+03</rscale>
<asrwt>0</asrwt>
<pdfrwt beam="1">  1        1 0.53198963E-01 0.47266812E+03</pdfrwt>
<pdfrwt beam="2">  1       -2 0.16773721E+00 0.47266812E+03</pdfrwt>
<totfact> 0.14782514E+01</totfact>
</mgrwt>
</event>
<event>
12    3  0.1182097E-007  0.8635488E+03  0.7818608E-02  0.9472331E-01
          1   -1    0    0  501    0  0.00000000000E+00  0.00000000000E+00  0.13338701954E+04  0.13338701954E+04  0.00000000000E+00 0. -1.
         -2   -1    0    0    0  501 -0.00000000000E+00 -0.00000000000E+00 -0.60509509459E+03  0.60509509459E+03  0.00000000000E+00 0.  1.
        -24    2    1    2    0    0 -0.22225131186E+03 -0.73082253968E+03  0.56631452203E+03  0.95409613640E+03  0.78038897337E+02 0.  0.
    5000000    2    1    2    0    0  0.22225131186E+03  0.73082253968E+03  0.16246057877E+03  0.98486915359E+03  0.60006381320E+03 0.  0.
        -24    2    4    4    0    0 -0.19233521687E+03  0.22493143971E+03  0.10259534275E+03  0.32336678514E+03  0.80332341924E+02 0.  0.
         24    2    4    4    0    0  0.41458652873E+03  0.50589109996E+03  0.59865236020E+02  0.66150236845E+03  0.78700331349E+02 0.  0.
         11    1    3    3    0    0 -0.61508077479E+02 -0.11910633116E+03  0.12086932411E+03  0.18049641334E+03  0.00000000000E+00 0. -1.
        -12    1    3    3    0    0 -0.16074323438E+03 -0.61171620852E+03  0.44544519793E+03  0.77359972306E+03  0.00000000000E+00 0.  1.
         15    1    5    5    0    0 -0.49520747914E+01  0.33475685562E+02  0.31340075726E+02  0.46157368254E+02  0.17770000000E+01 0. -1.
        -16    1    5    5    0    0 -0.18738314207E+03  0.19145575415E+03  0.71255267023E+02  0.27720941688E+03  0.00000000000E+00 0.  1.
          4    1    6    6  502    0  0.28957590518E+03  0.40639410566E+03  0.44149932125E+02  0.50095867143E+03  0.00000000000E+00 0. -1.
         -3    1    6    6    0  502  0.12501062355E+03  0.99496994305E+02  0.15715303895E+02  0.16054369702E+03  0.00000000000E+00 0.  1.
<mgrwt>
<rscale>  0 0.86354879E+03</rscale>
<asrwt>0</asrwt>
<pdfrwt beam="1">  1        1 0.20521080E+00 0.86354879E+03</pdfrwt>
<pdfrwt beam="2">  1       -2 0.93091553E-01 0.86354879E+03</pdfrwt>
<totfact> 0.74452267E+00</totfact>
</mgrwt>
</event>
<event>
12    3  0.1182097E-007  0.7936997E+03  0.7818608E-02  0.9569182E-01
          1   -1    0    0  501    0  0.00000000000E+00  0.00000000000E+00  0.19717827755E+04  0.19717827755E+04  0.00000000000E+00 0. -1.
         -2   -1    0    0    0  501 -0.00000000000E+00 -0.00000000000E+00 -0.35855747429E+03  0.35855747429E+03  0.00000000000E+00 0.  1.
        -24    2    1    2    0    0 -0.58284729610E+03  0.43489213800E+03  0.81209245681E+03  0.10931663654E+04  0.81709251017E+02 0.  0.
    5000000    2    1    2    0    0  0.58284729610E+03 -0.43489213800E+03  0.80113284438E+03  0.12371738844E+04  0.59995270113E+03 0.  0.
        -24    2    4    4    0    0 -0.57281521153E+02 -0.18667196861E+02  0.31082961848E+03  0.32615892018E+03  0.78325938152E+02 0.  0.
         24    2    4    4    0    0  0.64012881726E+03 -0.41622494114E+03  0.49030322590E+03  0.91101496420E+03  0.80888239933E+02 0.  0.
         13    1    3    3    0    0 -0.11822742883E+03  0.49643213125E+02  0.14153485151E+03  0.19098242780E+03  0.00000000000E+00 0. -1.
        -14    1    3    3    0    0 -0.46461986728E+03  0.38524892488E+03  0.67055760529E+03  0.90218393756E+03  0.00000000000E+00 0.  1.
         15    1    5    5    0    0 -0.46822607818E+02 -0.43201216155E+02  0.14770394126E+03  0.16086737914E+03  0.17770000000E+01 0. -1.
        -16    1    5    5    0    0 -0.10458913335E+02  0.24534019294E+02  0.16312567722E+03  0.16529154104E+03  0.00000000000E+00 0.  1.
          4    1    6    6  502    0  0.55889266950E+03 -0.38248902345E+03  0.40857217262E+03  0.79094253225E+03  0.00000000000E+00 0. -1.
         -3    1    6    6    0  502  0.81236147757E+02 -0.33735917695E+02  0.81731053280E+02  0.12007243195E+03  0.00000000000E+00 0.  1.
<mgrwt>
<rscale>  0 0.79369968E+03</rscale>
<asrwt>0</asrwt>
<pdfrwt beam="1">  1        1 0.30335119E+00 0.79369968E+03</pdfrwt>
<pdfrwt beam="2">  1       -2 0.55162689E-01 0.79369968E+03</pdfrwt>
<totfact> 0.87432097E+00</totfact>
</mgrwt>
</event>
<event>
12    3  0.1587708E-007  0.1452659E+04  0.7818608E-02  0.8916559E-01
          1   -1    0    0  501    0  0.00000000000E+00  0.00000000000E+00  0.15243731659E+04  0.15243731659E+04  0.00000000000E+00 0. -1.
         -2   -1    0    0    0  501 -0.00000000000E+00 -0.00000000000E+00 -0.14721134363E+04  0.14721134363E+04  0.00000000000E+00 0.  1.
        -24    2    1    2    0    0  0.13798809511E+04 -0.37494439564E+03 -0.11568662484E+03  0.14368184074E+04  0.80056241392E+02 0.  0.
    5000000    2    1    2    0    0 -0.13798809511E+04  0.37494439564E+03  0.16794635446E+03  0.15596681947E+04  0.59975341663E+03 0.  0.
        -24    2    4    4    0    0 -0.12023120014E+04  0.21411751561E+03 -0.54056346546E+02  0.12249685783E+04  0.78901647406E+02 0.  0.
         24    2    4    4    0    0 -0.17756894968E+03  0.16082688004E+03  0.22200270101E+03  0.33469961648E+03  0.73093206129E+02 0.  0.
         13    1    3    3    0    0  0.79943061656E+03 -0.17663013400E+03 -0.72047619588E+02  0.82187491410E+03  0.00000000000E+00 0. -1.
        -14    1    3    3    0    0  0.58045033450E+03 -0.19831426164E+03 -0.43639005248E+02  0.61494349331E+03  0.00000000000E+00 0.  1.
         15    1    5    5    0    0 -0.55891579916E+03  0.68062959235E+02 -0.68757967432E+00  0.56304801524E+03  0.17770000000E+01 0. -1.
        -16    1    5    5    0    0 -0.64339620222E+03  0.14605455637E+03 -0.53368766872E+02  0.66192056302E+03  0.00000000000E+00 0.  1.
          4    1    6    6  502    0 -0.67724482360E+02  0.17732295671E+02  0.65791385903E+02  0.96070527633E+02  0.00000000000E+00 0. -1.
         -3    1    6    6    0  502 -0.10984446732E+03  0.14309458437E+03  0.15621131510E+03  0.23862908884E+03  0.00000000000E+00 0.  1.
<mgrwt>
<rscale>  0 0.14526591E+04</rscale>
<asrwt>0</asrwt>
<pdfrwt beam="1">  1        1 0.23451895E+00 0.14526591E+04</pdfrwt>
<pdfrwt beam="2">  1       -2 0.22647899E+00 0.14526591E+04</pdfrwt>
<totfact> 0.47012319E-01</totfact>
</mgrwt>
</event>
<event>
12    3  0.1182097E-007  0.7068006E+03  0.7818608E-02  0.9705672E-01
         -2   -1    0    0    0  501 -0.00000000000E+00  0.00000000000E+00  0.14509437978E+04  0.14509437978E+04  0.00000000000E+00 0.  1.
          1   -1    0    0  501    0  0.00000000000E+00 -0.00000000000E+00 -0.52843006731E+03  0.52843006731E+03  0.00000000000E+00 0. -1.
        -24    2    1    2    0    0  0.34582278126E+03  0.58318862187E+03 -0.63084526255E+01  0.68234802903E+03  0.76528892743E+02 0.  0.
    5000000    2    1    2    0    0 -0.34582278126E+03 -0.58318862187E+03  0.92882218311E+03  0.12970258361E+04  0.59988582824E+03 0.  0.
        -24    2    4    4    0    0 -0.20145533154E+03 -0.12525370271E+03  0.72903121960E+03  0.77084961990E+03  0.80311124392E+02 0.  0.
         24    2    4    4    0    0 -0.14436744972E+03 -0.45793491917E+03  0.19979096351E+03  0.52617621619E+03  0.79991441114E+02 0.  0.
         13    1    3    3    0    0  0.23324071820E+02  0.58059468611E+02 -0.20770683205E+02  0.65926743454E+02  0.00000000000E+00 0. -1.
        -14    1    3    3    0    0  0.32249870944E+03  0.52512915326E+03  0.14462230580E+02  0.61642128557E+03  0.00000000000E+00 0.  1.
         15    1    5    5    0    0 -0.62160382751E+02  0.13552398819E+01  0.18374014596E+03  0.19398285704E+03  0.17770000000E+01 0. -1.
        -16    1    5    5    0    0 -0.13929494879E+03 -0.12660894259E+03  0.54529107364E+03  0.57686676286E+03  0.00000000000E+00 0.  1.
          2    1    6    6  502    0 -0.80153593530E+01 -0.11524479312E+03  0.25768544940E+02  0.11836226694E+03  0.00000000000E+00 0. -1.
         -1    1    6    6    0  502 -0.13635209037E+03 -0.34269012605E+03  0.17402241857E+03  0.40781394925E+03  0.00000000000E+00 0.  1.
<mgrwt>
<rscale>  0 0.70680061E+03</rscale>
<asrwt>0</asrwt>
<pdfrwt beam="1">  1        1 0.81296934E-01 0.70680061E+03</pdfrwt>
<pdfrwt beam="2">  1       -2 0.22322212E+00 0.70680061E+03</pdfrwt>
<totfact> 0.35082771E+00</totfact>
</mgrwt>
</event>
<event>
12    3  0.1182097E-007  0.9345173E+03  0.7818608E-02  0.9383433E-01
          1   -1    0    0  501    0  0.00000000000E+00  0.00000000000E+00  0.64819232100E+03  0.64819232100E+03  0.00000000000E+00 0. -1.
         -2   -1    0    0    0  501 -0.00000000000E+00 -0.00000000000E+00 -0.15245417092E+04  0.15245417092E+04  0.00000000000E+00 0.  1.
        -24    2    1    2    0    0  0.78060865947E+03 -0.38794073090E+03 -0.14708770503E+03  0.88755177228E+03  0.79154693927E+02 0.  0.
    5000000    2    1    2    0    0 -0.78060865947E+03  0.38794073090E+03 -0.72926168319E+03  0.12851822579E+04  0.60001911940E+03 0.  0.
        -24    2    4    4    0    0 -0.56697738560E+03  0.49516734300E+03 -0.70066159390E+03  0.10315392068E+04  0.80575508366E+02 0.  0.
         24    2    4    4    0    0 -0.21363127387E+03 -0.10722661210E+03 -0.28600089290E+02  0.25364305119E+03  0.79880941359E+02 0.  0.
         11    1    3    3    0    0  0.19395186769E+03 -0.96553066235E+02 -0.71596195640E+02  0.22817939612E+03  0.00000000000E+00 0. -1.
        -12    1    3    3    0    0  0.58665679178E+03 -0.29138766466E+03 -0.75491509394E+02  0.65937237616E+03  0.00000000000E+00 0.  1.
         15    1    5    5    0    0 -0.22894038348E+02  0.45933724741E+02 -0.52538880872E+02  0.73467923563E+02  0.17770000000E+01 0. -1.
        -16    1    5    5    0    0 -0.54408334725E+03  0.44923361826E+03 -0.64812271303E+03  0.95807128319E+03  0.00000000000E+00 0.  1.
          4    1    6    6  502    0 -0.33424212053E+02 -0.27814550263E+02  0.24193123345E+02  0.49760771446E+02  0.00000000000E+00 0. -1.
         -3    1    6    6    0  502 -0.18020706182E+03 -0.79412061841E+02 -0.52793212634E+02  0.20388227975E+03  0.00000000000E+00 0.  1.
<mgrwt>
<rscale>  0 0.93451727E+03</rscale>
<asrwt>0</asrwt>
<pdfrwt beam="1">  1        1 0.99721896E-01 0.93451727E+03</pdfrwt>
<pdfrwt beam="2">  1       -2 0.23454488E+00 0.93451727E+03</pdfrwt>
<totfact> 0.21627055E+00</totfact>
</mgrwt>
</event>
<event>
12    3  0.1182097E-007  0.3520669E+04  0.7818608E-02  0.8108909E-01
          1   -1    0    0  501    0  0.00000000000E+00  0.00000000000E+00  0.35200840289E+04  0.35200840289E+04  0.00000000000E+00 0. -1.
         -2   -1    0    0    0  501 -0.00000000000E+00 -0.00000000000E+00 -0.39479661259E+04  0.39479661259E+04  0.00000000000E+00 0.  1.
        -24    2    1    2    0    0 -0.32544416451E+04  0.13299861580E+04 -0.13781954221E+04  0.37770712737E+04  0.81186102304E+02 0.  0.
    5000000    2    1    2    0    0  0.32544416451E+04 -0.13299861580E+04  0.95031332516E+03  0.36909788812E+04  0.59998006931E+03 0.  0.
        -24    2    4    4    0    0  0.25083061349E+04 -0.11158211048E+04  0.50354763942E+03  0.27922186897E+04  0.79174374108E+02 0.  0.
         24    2    4    4    0    0  0.74613551017E+03 -0.21416505320E+03  0.44676568574E+03  0.89876019149E+03  0.74735763182E+02 0.  0.
         11    1    3    3    0    0 -0.18688747341E+04  0.72080576899E+03 -0.77860380434E+03  0.21490643574E+04  0.00000000000E+00 0. -1.
        -12    1    3    3    0    0 -0.13855669110E+04  0.60918038898E+03 -0.59959161774E+03  0.16280069162E+04  0.00000000000E+00 0.  1.
         15    1    5    5    0    0  0.11187620888E+04 -0.52514668176E+03  0.25750112883E+03  0.12624252998E+04  0.17770000000E+01 0. -1.
        -16    1    5    5    0    0  0.13895440461E+04 -0.59067442302E+03  0.24604651060E+03  0.15297933898E+04  0.00000000000E+00 0.  1.
          2    1    6    6  502    0  0.80251565845E+02 -0.27290343734E+01  0.59681816617E+02  0.10004839171E+03  0.00000000000E+00 0. -1.
         -1    1    6    6    0  502  0.66588394433E+03 -0.21143601882E+03  0.38708386912E+03  0.79871179978E+03  0.00000000000E+00 0.  1.
<mgrwt>
<rscale>  0 0.35206689E+04</rscale>
<asrwt>0</asrwt>
<pdfrwt beam="1">  1        1 0.54155139E+00 0.35206689E+04</pdfrwt>
<pdfrwt beam="2">  1       -2 0.60737941E+00 0.35206689E+04</pdfrwt>
<totfact> 0.74178518E-05</totfact>
</mgrwt>
</event>
<event>
12    3  0.1182097E-007  0.4093115E+03  0.7818608E-02  0.1040602E+00
          1   -1    0    0  501    0  0.00000000000E+00  0.00000000000E+00  0.31537719202E+03  0.31537719202E+03  0.00000000000E+00 0. -1.
         -2   -1    0    0    0  501 -0.00000000000E+00 -0.00000000000E+00 -0.73371929351E+03  0.73371929351E+03  0.00000000000E+00 0.  1.
        -24    2    1    2    0    0  0.17217450021E+03 -0.14568097652E+03 -0.32204369357E+03  0.40147038914E+03  0.81236244063E+02 0.  0.
    5000000    2    1    2    0    0 -0.17217450021E+03  0.14568097652E+03 -0.96298407920E+02  0.64762609639E+03  0.59939900894E+03 0.  0.
        -24    2    4    4    0    0 -0.25432787897E+03  0.30210659554E+03 -0.17435396759E+03  0.43866213314E+03  0.77936486569E+02 0.  0.
         24    2    4    4    0    0  0.82153378767E+02 -0.15642561902E+03  0.78055559674E+02  0.20896396326E+03  0.79718979013E+02 0.  0.
         11    1    3    3    0    0  0.24431507607E+02 -0.65386043807E+02 -0.73257157527E+02  0.10118717516E+03  0.00000000000E+00 0. -1.
        -12    1    3    3    0    0  0.14774299260E+03 -0.80294932712E+02 -0.24878653604E+03  0.30028321398E+03  0.00000000000E+00 0.  1.
         15    1    5    5    0    0 -0.10003570159E+03  0.66259704340E+02 -0.63923301473E+02  0.13596630543E+03  0.17770000000E+01 0. -1.
        -16    1    5    5    0    0 -0.15429217738E+03  0.23584689120E+03 -0.11043066612E+03  0.30269582771E+03  0.00000000000E+00 0.  1.
          2    1    6    6  502    0  0.67752383666E+02 -0.10138323766E+03  0.89080054195E+02  0.15101060369E+03  0.00000000000E+00 0. -1.
         -1    1    6    6    0  502  0.14400995101E+02 -0.55042381362E+02 -0.11024494521E+02  0.57953359569E+02  0.00000000000E+00 0.  1.
<mgrwt>
<rscale>  0 0.40931149E+03</rscale>
<asrwt>0</asrwt>
<pdfrwt beam="1">  1        1 0.48519569E-01 0.40931149E+03</pdfrwt>
<pdfrwt beam="2">  1       -2 0.11287989E+00 0.40931149E+03</pdfrwt>
<totfact> 0.46180616E+01</totfact>
</mgrwt>
</event>
<event>
12    3  0.1182097E-007  0.2438469E+04  0.7818608E-02  0.8425240E-01
         -2   -1    0    0    0  501 -0.00000000000E+00  0.00000000000E+00  0.14979118083E+04  0.14979118083E+04  0.00000000000E+00 0.  1.
          1   -1    0    0  501    0  0.00000000000E+00 -0.00000000000E+00 -0.40284215424E+04  0.40284215424E+04  0.00000000000E+00 0. -1.
        -24    2    1    2    0    0  0.22115582336E+04 -0.95212866443E+03 -0.15099012924E+04  0.28431912940E+04  0.79975038766E+02 0.  0.
    5000000    2    1    2    0    0 -0.22115582336E+04  0.95212866443E+03 -0.10206084417E+04  0.26831420568E+04  0.60005907299E+03 0.  0.
        -24    2    4    4    0    0 -0.95748646163E+03  0.12615336162E+03 -0.50522149171E+03  0.10934687171E+04  0.87920900741E+02 0.  0.
         24    2    4    4    0    0 -0.12540717720E+04  0.82597530281E+03 -0.51538695000E+03  0.15896733396E+04  0.80662310504E+02 0.  0.
         11    1    3    3    0    0  0.43275976473E+03 -0.20698761979E+03 -0.33140215059E+03  0.58305426345E+03  0.00000000000E+00 0. -1.
        -12    1    3    3    0    0  0.17787984689E+04 -0.74514104464E+03 -0.11784991418E+04  0.22601370305E+04  0.00000000000E+00 0.  1.
         15    1    5    5    0    0 -0.87495239126E+03  0.10236642050E+03 -0.43472159441E+03  0.98234749116E+03  0.17770000000E+01 0. -1.
        -16    1    5    5    0    0 -0.82534070377E+02  0.23786941125E+02 -0.70499897300E+02  0.11112122597E+03  0.00000000000E+00 0.  1.
          2    1    6    6  502    0 -0.92435528865E+03  0.62175379467E+03 -0.34642636356E+03  0.11666283496E+04  0.00000000000E+00 0. -1.
         -1    1    6    6    0  502 -0.32971648335E+03  0.20422150814E+03 -0.16896058644E+03  0.42304498999E+03  0.00000000000E+00 0.  1.
<mgrwt>
<rscale>  0 0.24384694E+04</rscale>
<asrwt>0</asrwt>
<pdfrwt beam="1">  1        1 0.61975716E+00 0.24384694E+04</pdfrwt>
<pdfrwt beam="2">  1       -2 0.23044797E+00 0.24384694E+04</pdfrwt>
<totfact> 0.57413511E-03</totfact>
</mgrwt>
</event>
<event>
12    3  0.1182097E-007  0.6921586E+03  0.7818608E-02  0.9730737E-01
          1   -1    0    0  501    0  0.00000000000E+00  0.00000000000E+00  0.21495665635E+04  0.21495665635E+04  0.00000000000E+00 0. -1.
         -2   -1    0    0    0  501 -0.00000000000E+00 -0.00000000000E+00 -0.28847847192E+03  0.28847847192E+03  0.00000000000E+00 0.  1.
        -24    2    1    2    0    0  0.64378610403E+03  0.18187200578E+03  0.86501300011E+03  0.10965440829E+04  0.81384649913E+02 0.  0.
    5000000    2    1    2    0    0 -0.64378610403E+03 -0.18187200578E+03  0.99607509151E+03  0.13415009525E+04  0.59993436595E+03 0.  0.
        -24    2    4    4    0    0 -0.38738338615E+03 -0.21267046744E+03  0.97041170598E+03  0.10695222867E+04  0.82972447647E+02 0.  0.
         24    2    4    4    0    0 -0.25640271789E+03  0.30798461657E+02  0.25663385532E+02  0.27197866582E+03  0.81381117730E+02 0.  0.
         13    1    3    3    0    0  0.33459816315E+03  0.12957253799E+03  0.49824348230E+03  0.61399636891E+03  0.00000000000E+00 0. -1.
        -14    1    3    3    0    0  0.30918794089E+03  0.52299467792E+02  0.36676951781E+03  0.48254771403E+03  0.00000000000E+00 0.  1.
         15    1    5    5    0    0 -0.50052022233E+02 -0.50869810200E+02  0.21497396677E+03  0.22651690144E+03  0.17770000000E+01 0. -1.
        -16    1    5    5    0    0 -0.33733136391E+03 -0.16180065724E+03  0.75543773921E+03  0.84300538526E+03  0.00000000000E+00 0.  1.
          2    1    6    6  502    0 -0.48299939401E+02  0.32650826711E+02  0.26078007571E+02  0.63867230329E+02  0.00000000000E+00 0. -1.
         -1    1    6    6    0  502 -0.20810277849E+03 -0.18523650530E+01 -0.41462203861E+00  0.20811143549E+03  0.00000000000E+00 0.  1.
<mgrwt>
<rscale>  0 0.69215865E+03</rscale>
<asrwt>0</asrwt>
<pdfrwt beam="1">  1        1 0.33070254E+00 0.69215865E+03</pdfrwt>
<pdfrwt beam="2">  1       -2 0.44381305E-01 0.69215865E+03</pdfrwt>
<totfact> 0.10501905E+01</totfact>
</mgrwt>
</event>
<event>
12    3  0.1182097E-007  0.7991909E+03  0.7818608E-02  0.9561189E-01
          1   -1    0    0  501    0  0.00000000000E+00  0.00000000000E+00  0.15096761287E+04  0.15096761287E+04  0.00000000000E+00 0. -1.
         -2   -1    0    0    0  501 -0.00000000000E+00 -0.00000000000E+00 -0.64750370396E+03  0.64750370396E+03  0.00000000000E+00 0.  1.
        -24    2    1    2    0    0  0.19940762574E+03 -0.77087335355E+03 -0.55614211501E+02  0.80213470853E+03  0.79485984269E+02 0.  0.
    5000000    2    1    2    0    0 -0.19940762574E+03  0.77087335355E+03  0.91778663627E+03  0.13550451242E+04  0.59983818682E+03 0.  0.
        -24    2    4    4    0    0 -0.76471602137E+02  0.37667523754E+03  0.55644808053E+02  0.39581871112E+03  0.76445842922E+02 0.  0.
         24    2    4    4    0    0 -0.12293602360E+03  0.39419811601E+03  0.86214182821E+03  0.95922641303E+03  0.79506974167E+02 0.  0.
         11    1    3    3    0    0  0.51408107641E+02 -0.19605803270E+03 -0.49047373496E+02  0.20853582561E+03  0.00000000000E+00 0. -1.
        -12    1    3    3    0    0  0.14799951810E+03 -0.57481532085E+03 -0.65668380049E+01  0.59359888292E+03  0.00000000000E+00 0.  1.
         15    1    5    5    0    0 -0.35672383820E+02  0.18562174398E+03  0.65909906859E+02  0.20018797255E+03  0.17770000000E+01 0. -1.
        -16    1    5    5    0    0 -0.40799218317E+02  0.19105349356E+03 -0.10265098806E+02  0.19563073857E+03  0.00000000000E+00 0.  1.
          4    1    6    6  502    0 -0.40410251782E+02  0.52658735166E+02  0.18119640263E+03  0.19297167451E+03  0.00000000000E+00 0. -1.
         -3    1    6    6    0  502 -0.82525771818E+02  0.34153938084E+03  0.68094542558E+03  0.76625473852E+03  0.00000000000E+00 0.  1.
<mgrwt>
<rscale>  0 0.79919090E+03</rscale>
<asrwt>0</asrwt>
<pdfrwt beam="1">  1        1 0.23225787E+00 0.79919090E+03</pdfrwt>
<pdfrwt beam="2">  1       -2 0.99615955E-01 0.79919090E+03</pdfrwt>
<totfact> 0.48338765E+00</totfact>
</mgrwt>
</event>
<event>
12    3  0.1182097E-007  0.7655555E+03  0.7818608E-02  0.9611257E-01
          1   -1    0    0  501    0  0.00000000000E+00  0.00000000000E+00  0.14887614701E+04  0.14887614701E+04  0.00000000000E+00 0. -1.
         -2   -1    0    0    0  501 -0.00000000000E+00 -0.00000000000E+00 -0.45213124444E+03  0.45213124444E+03  0.00000000000E+00 0.  1.
        -24    2    1    2    0    0  0.67478547647E+03  0.10386118922E+03  0.22784733973E+03  0.72427496346E+03  0.80853117357E+02 0.  0.
    5000000    2    1    2    0    0 -0.67478547647E+03 -0.10386118922E+03  0.80878288591E+03  0.12166177511E+04  0.59992200306E+03 0.  0.
        -24    2    4    4    0    0  0.47721607315E+02 -0.83652148077E+02  0.30642452673E+03  0.33110432139E+03  0.80368198789E+02 0.  0.
         24    2    4    4    0    0 -0.72250708379E+03 -0.20209041145E+02  0.50235835918E+03  0.88551342966E+03  0.96670686425E+02 0.  0.
         11    1    3    3    0    0  0.66790148939E+03  0.10091054159E+03  0.23370352979E+03  0.71476756836E+03  0.00000000000E+00 0. -1.
        -12    1    3    3    0    0  0.68839870777E+01  0.29506476353E+01 -0.58561900624E+01  0.95073951007E+01  0.00000000000E+00 0.  1.
         15    1    5    5    0    0  0.17271938769E+02 -0.92122231645E+02  0.23436960320E+03  0.25242245159E+03  0.17770000000E+01 0. -1.
        -16    1    5    5    0    0  0.30449668547E+02  0.84700835681E+01  0.72054923529E+02  0.78681869799E+02  0.00000000000E+00 0.  1.
          2    1    6    6  502    0 -0.35528913548E+03 -0.98482666749E+01  0.30578991953E+03  0.46886547434E+03  0.00000000000E+00 0. -1.
         -3    1    6    6    0  502 -0.36721794831E+03 -0.10360774470E+02  0.19656843965E+03  0.41664795532E+03  0.00000000000E+00 0.  1.
<mgrwt>
<rscale>  0 0.76555548E+03</rscale>
<asrwt>0</asrwt>
<pdfrwt beam="1">  1        1 0.22904022E+00 0.76555548E+03</pdfrwt>
<pdfrwt beam="2">  1       -2 0.69558654E-01 0.76555548E+03</pdfrwt>
<totfact> 0.11343129E+01</totfact>
</mgrwt>
</event>
<event>
12    3  0.1182097E-007  0.7322483E+03  0.7818608E-02  0.9663619E-01
          1   -1    0    0  501    0  0.00000000000E+00  0.00000000000E+00  0.13061879361E+04  0.13061879361E+04  0.00000000000E+00 0. -1.
         -2   -1    0    0    0  501 -0.00000000000E+00 -0.00000000000E+00 -0.65098041398E+03  0.65098041398E+03  0.00000000000E+00 0.  1.
        -24    2    1    2    0    0 -0.52466517502E+03  0.37965309997E+03  0.83126849271E+03  0.10569396297E+04  0.81878273317E+02 0.  0.
    5000000    2    1    2    0    0  0.52466517502E+03 -0.37965309997E+03 -0.17606097058E+03  0.90022872039E+03  0.60000355121E+03 0.  0.
        -24    2    4    4    0    0  0.46512024511E+03 -0.48380988603E+03 -0.41131453613E+01  0.67641337625E+03  0.84316602001E+02 0.  0.
         24    2    4    4    0    0  0.59544929905E+02  0.10415678606E+03 -0.17194782522E+03  0.22381534414E+03  0.78313593414E+02 0.  0.
         13    1    3    3    0    0 -0.19565628714E+03  0.14495796091E+03  0.37825342494E+03  0.44985536188E+03  0.00000000000E+00 0. -1.
        -14    1    3    3    0    0 -0.32900888788E+03  0.23469513906E+03  0.45301506777E+03  0.60708426781E+03  0.00000000000E+00 0.  1.
         15    1    5    5    0    0  0.49822623488E+02 -0.21980636931E+02  0.87650811859E+01  0.55185383828E+02  0.17770000000E+01 0. -1.
        -16    1    5    5    0    0  0.41529762163E+03 -0.46182924910E+03 -0.12878226547E+02  0.62122799242E+03  0.00000000000E+00 0.  1.
          2    1    6    6  502    0  0.72417501607E+02  0.56333080059E+02 -0.12875969347E+03  0.15810366571E+03  0.00000000000E+00 0. -1.
         -1    1    6    6    0  502 -0.12872571703E+02  0.47823706001E+02 -0.43188131756E+02  0.65711678434E+02  0.00000000000E+00 0.  1.
<mgrwt>
<rscale>  0 0.73224834E+03</rscale>
<asrwt>0</asrwt>
<pdfrwt beam="1">  1        1 0.20095199E+00 0.73224834E+03</pdfrwt>
<pdfrwt beam="2">  1       -2 0.10015083E+00 0.73224834E+03</pdfrwt>
<totfact> 0.66701883E+00</totfact>
</mgrwt>
</event>
<event>
12    3  0.1182097E-007  0.1068857E+04  0.7818608E-02  0.9236089E-01
          1   -1    0    0  501    0  0.00000000000E+00  0.00000000000E+00  0.17013276017E+04  0.17013276017E+04  0.00000000000E+00 0. -1.
         -2   -1    0    0    0  501 -0.00000000000E+00 -0.00000000000E+00 -0.79554440251E+03  0.79554440251E+03  0.00000000000E+00 0.  1.
        -24    2    1    2    0    0  0.59972331717E+03  0.87006848277E+03  0.16169097120E+03  0.10719928827E+04  0.79608721626E+02 0.  0.
    5000000    2    1    2    0    0 -0.59972331717E+03 -0.87006848277E+03  0.74409222798E+03  0.14248791215E+04  0.59993336733E+03 0.  0.
        -24    2    4    4    0    0 -0.60041616903E+02 -0.11399782633E+03  0.40535246799E+03  0.43277929264E+03  0.79917411528E+02 0.  0.
         24    2    4    4    0    0 -0.53968170027E+03 -0.75607065644E+03  0.33873976000E+03  0.99209982885E+03  0.81352752017E+02 0.  0.
         13    1    3    3    0    0  0.17850792835E+03  0.31331751683E+03  0.77094898617E+02  0.36875001049E+03  0.00000000000E+00 0. -1.
        -14    1    3    3    0    0  0.42121538882E+03  0.55675096593E+03  0.84596072579E+02  0.70324287223E+03  0.00000000000E+00 0.  1.
         15    1    5    5    0    0 -0.22503498327E+02 -0.10635371747E+03  0.24719111936E+03  0.27004467756E+03  0.17770000000E+01 0. -1.
        -16    1    5    5    0    0 -0.37538118575E+02 -0.76441088569E+01  0.15816134862E+03  0.16273461508E+03  0.00000000000E+00 0.  1.
          4    1    6    6  502    0 -0.26851124741E+03 -0.31206885599E+03  0.16631257947E+03  0.44401028699E+03  0.00000000000E+00 0. -1.
         -3    1    6    6    0  502 -0.27117045286E+03 -0.44400180045E+03  0.17242718053E+03  0.54808954186E+03  0.00000000000E+00 0.  1.
<mgrwt>
<rscale>  0 0.10688574E+04</rscale>
<asrwt>0</asrwt>
<pdfrwt beam="1">  1        1 0.26174271E+00 0.10688574E+04</pdfrwt>
<pdfrwt beam="2">  1       -2 0.12239145E+00 0.10688574E+04</pdfrwt>
<totfact> 0.20942763E+00</totfact>
</mgrwt>
</event>
<event>
12    3  0.1182097E-007  0.5394611E+03  0.7818608E-02  0.1003963E+00
         -2   -1    0    0    0  501 -0.00000000000E+00  0.00000000000E+00  0.11908645641E+04  0.11908645641E+04  0.00000000000E+00 0.  1.
          1   -1    0    0  501    0  0.00000000000E+00 -0.00000000000E+00 -0.37913435794E+03  0.37913435794E+03  0.00000000000E+00 0. -1.
        -24    2    1    2    0    0 -0.93775258633E+02 -0.52441576774E+03  0.38033002764E+03  0.65923390682E+03  0.78311668229E+02 0.  0.
    5000000    2    1    2    0    0  0.93775258633E+02  0.52441576774E+03  0.43140017855E+03  0.91076501525E+03  0.59965081702E+03 0.  0.
        -24    2    4    4    0    0  0.41161664382E+02  0.23503904343E+03  0.53455217757E+03  0.59020975083E+03  0.75258786027E+02 0.  0.
         24    2    4    4    0    0  0.52613594251E+02  0.28937672431E+03 -0.10315199903E+03  0.32055526442E+03  0.74888342006E+02 0.  0.
         13    1    3    3    0    0  0.10040579851E+02 -0.73012008325E+02  0.35633162467E+02  0.81861400371E+02  0.00000000000E+00 0. -1.
        -14    1    3    3    0    0 -0.10381583848E+03 -0.45140375942E+03  0.34469686518E+03  0.57737250645E+03  0.00000000000E+00 0.  1.
         15    1    5    5    0    0  0.22637017516E+02  0.95071433746E+02  0.30919778624E+03  0.32427988038E+03  0.17770000000E+01 0. -1.
        -16    1    5    5    0    0  0.18524646866E+02  0.13996760968E+03  0.22535439133E+03  0.26592987044E+03  0.00000000000E+00 0.  1.
          2    1    6    6  502    0  0.31936952638E+02  0.33112123363E+02 -0.98149848156E+01  0.47039510885E+02  0.00000000000E+00 0. -1.
         -1    1    6    6    0  502  0.20676641613E+02  0.25626460095E+03 -0.93337014211E+02  0.27351575353E+03  0.00000000000E+00 0.  1.
<mgrwt>
<rscale>  0 0.53946112E+03</rscale>
<asrwt>0</asrwt>
<pdfrwt beam="1">  1        1 0.58328363E-01 0.53946112E+03</pdfrwt>
<pdfrwt beam="2">  1       -2 0.18320993E+00 0.53946112E+03</pdfrwt>
<totfact> 0.10160875E+01</totfact>
</mgrwt>
</event>
<event>
12    3  0.1182097E-007  0.6318204E+03  0.7818608E-02  0.9841503E-01
         -2   -1    0    0    0  501 -0.00000000000E+00  0.00000000000E+00  0.32505567741E+03  0.32505567741E+03  0.00000000000E+00 0.  1.
          1   -1    0    0  501    0  0.00000000000E+00 -0.00000000000E+00 -0.14215015483E+04  0.14215015483E+04  0.00000000000E+00 0. -1.
        -24    2    1    2    0    0  0.69466726042E+02  0.51759478030E+03 -0.24758953801E+03  0.58326095323E+03  0.78503360499E+02 0.  0.
    5000000    2    1    2    0    0 -0.69466726042E+02 -0.51759478030E+03 -0.84885633293E+03  0.11632962725E+04  0.59997596710E+03 0.  0.
        -24    2    4    4    0    0 -0.29159751984E+03 -0.24551475196E+03 -0.25410787494E+03  0.46813598580E+03  0.96300997354E+02 0.  0.
         24    2    4    4    0    0  0.22213079380E+03 -0.27208002834E+03 -0.59474845799E+03  0.69516028672E+03  0.78437647715E+02 0.  0.
         13    1    3    3    0    0  0.15664940245E+02  0.15209671628E+03 -0.11278491570E+03  0.18999799647E+03  0.00000000000E+00 0. -1.
        -14    1    3    3    0    0  0.53801785797E+02  0.36549806403E+03 -0.13480462232E+03  0.39326295676E+03  0.00000000000E+00 0.  1.
         15    1    5    5    0    0 -0.98426826211E+02 -0.36637900357E+02 -0.41395577054E+02  0.11290229134E+03  0.17770000000E+01 0. -1.
        -16    1    5    5    0    0 -0.19317069363E+03 -0.20887685160E+03 -0.21271229788E+03  0.35523369447E+03  0.00000000000E+00 0.  1.
          2    1    6    6  502    0  0.19402077355E+03 -0.24694005179E+03 -0.47345977444E+03  0.56814400266E+03  0.00000000000E+00 0. -1.
         -3    1    6    6    0  502  0.28110020242E+02 -0.25139976552E+02 -0.12128868355E+03  0.12701628406E+03  0.00000000000E+00 0.  1.
<mgrwt>
<rscale>  0 0.63182035E+03</rscale>
<asrwt>0</asrwt>
<pdfrwt beam="1">  1        1 0.21869255E+00 0.63182035E+03</pdfrwt>
<pdfrwt beam="2">  1       -2 0.50008566E-01 0.63182035E+03</pdfrwt>
<totfact> 0.25709662E+01</totfact>
</mgrwt>
</event>
<event>
12    3  0.1182097E-007  0.6486546E+03  0.7818608E-02  0.9809307E-01
          1   -1    0    0  501    0  0.00000000000E+00  0.00000000000E+00  0.13097810831E+04  0.13097810831E+04  0.00000000000E+00 0. -1.
         -2   -1    0    0    0  501 -0.00000000000E+00 -0.00000000000E+00 -0.47832786303E+03  0.47832786303E+03  0.00000000000E+00 0.  1.
        -24    2    1    2    0    0 -0.45825495693E+03  0.40383698213E+03  0.31507592736E+02  0.61639478799E+03  0.76602170829E+02 0.  0.
    5000000    2    1    2    0    0  0.45825495693E+03 -0.40383698213E+03  0.79994562736E+03  0.11717141582E+04  0.59993261956E+03 0.  0.
        -24    2    4    4    0    0  0.11577244169E+03 -0.28674901196E+03  0.72781472811E+03  0.79492979838E+03  0.81060790683E+02 0.  0.
         24    2    4    4    0    0  0.34248251524E+03 -0.11708797017E+03  0.72130899252E+02  0.37678435978E+03  0.75892826702E+02 0.  0.
         13    1    3    3    0    0 -0.29385460300E+03  0.20926152828E+03  0.12751826186E+02  0.36097579419E+03  0.00000000000E+00 0. -1.
        -14    1    3    3    0    0 -0.16440035392E+03  0.19457545385E+03  0.18755766550E+02  0.25541899379E+03  0.00000000000E+00 0.  1.
         15    1    5    5    0    0  0.12701358149E+03 -0.24167481094E+03  0.61156751828E+03  0.66974409387E+03  0.17770000000E+01 0. -1.
        -16    1    5    5    0    0 -0.11241139799E+02 -0.45074201019E+02  0.11624720983E+03  0.12518570451E+03  0.00000000000E+00 0.  1.
          4    1    6    6  502    0  0.20211272945E+03 -0.60165514044E+02  0.78915686680E+02  0.22516023204E+03  0.00000000000E+00 0. -1.
         -3    1    6    6    0  502  0.14036978578E+03 -0.56922456129E+02 -0.67847874282E+01  0.15162412774E+03  0.00000000000E+00 0.  1.
<mgrwt>
<rscale>  0 0.64865457E+03</rscale>
<asrwt>0</asrwt>
<pdfrwt beam="1">  1        1 0.20150478E+00 0.64865457E+03</pdfrwt>
<pdfrwt beam="2">  1       -2 0.73588903E-01 0.64865457E+03</pdfrwt>
<totfact> 0.13557009E+01</totfact>
</mgrwt>
</event>
<event>
12    3  0.1182097E-007  0.5968704E+03  0.7818608E-02  0.9911920E-01
          1   -1    0    0  501    0  0.00000000000E+00  0.00000000000E+00  0.95666210076E+03  0.95666210076E+03  0.00000000000E+00 0. -1.
         -2   -1    0    0    0  501 -0.00000000000E+00 -0.00000000000E+00 -0.48444755359E+03  0.48444755359E+03  0.00000000000E+00 0.  1.
        -24    2    1    2    0    0  0.53328447891E+03  0.71001335619E+02  0.28434667188E+03  0.61362487469E+03  0.79050186116E+02 0.  0.
    5000000    2    1    2    0    0 -0.53328447891E+03 -0.71001335619E+02  0.18786787528E+03  0.82748477966E+03  0.60000266408E+03 0.  0.
        -24    2    4    4    0    0 -0.96021674739E+02  0.12262494562E+03 -0.15501715830E+03  0.23412014797E+03  0.80776760335E+02 0.  0.
         24    2    4    4    0    0 -0.43726280417E+03 -0.19362628124E+03  0.34288503358E+03  0.59336463169E+03  0.76299037966E+02 0.  0.
         11    1    3    3    0    0  0.46642308644E+03  0.87821396292E+02  0.24261365410E+03  0.53303328074E+03  0.00000000000E+00 0. -1.
        -12    1    3    3    0    0  0.66861392462E+02 -0.16820060673E+02  0.41733017781E+02  0.80591593954E+02  0.00000000000E+00 0.  1.
         15    1    5    5    0    0  0.11484967047E+02  0.18789536331E+02 -0.39346857256E+02  0.45125204139E+02  0.17770000000E+01 0. -1.
        -16    1    5    5    0    0 -0.10750664179E+03  0.10383540929E+03 -0.11567030104E+03  0.18899494383E+03  0.00000000000E+00 0.  1.
          2    1    6    6  502    0 -0.30475441920E+02 -0.19159296001E+02  0.53691063963E+02  0.64641794011E+02  0.00000000000E+00 0. -1.
         -1    1    6    6    0  502 -0.40678736225E+03 -0.17446698524E+03  0.28919396962E+03  0.52872283768E+03  0.00000000000E+00 0.  1.
<mgrwt>
<rscale>  0 0.59687040E+03</rscale>
<asrwt>0</asrwt>
<pdfrwt beam="1">  1        1 0.14717878E+00 0.59687040E+03</pdfrwt>
<pdfrwt beam="2">  1       -2 0.74530393E-01 0.59687040E+03</pdfrwt>
<totfact> 0.24178440E+01</totfact>
</mgrwt>
</event>
<event>
12    3  0.1182097E-007  0.4192402E+03  0.7818608E-02  0.1037314E+00
          1   -1    0    0  501    0  0.00000000000E+00  0.00000000000E+00  0.16228969632E+04  0.16228969632E+04  0.00000000000E+00 0. -1.
         -2   -1    0    0    0  501 -0.00000000000E+00 -0.00000000000E+00 -0.16026354834E+03  0.16026354834E+03  0.00000000000E+00 0.  1.
        -24    2    1    2    0    0 -0.57261773953E+02 -0.29474538645E+03  0.25535277714E+03  0.40197310074E+03  0.78889665566E+02 0.  0.
    5000000    2    1    2    0    0  0.57261773953E+02  0.29474538645E+03  0.12072806377E+04  0.13811874108E+04  0.59999864327E+03 0.  0.
        -24    2    4    4    0    0 -0.17653540593E+03  0.71798979383E+02  0.10669181758E+03  0.23137409335E+03  0.76360881015E+02 0.  0.
         24    2    4    4    0    0  0.23379717988E+03  0.22294640707E+03  0.11005888201E+04  0.11498133174E+04  0.80054307893E+02 0.  0.
         11    1    3    3    0    0 -0.74841563430E+02 -0.26926645492E+03  0.23116919399E+03  0.36269116285E+03  0.00000000000E+00 0. -1.
        -12    1    3    3    0    0  0.17579789477E+02 -0.25478931538E+02  0.24183583157E+02  0.39281937894E+02  0.00000000000E+00 0.  1.
         15    1    5    5    0    0 -0.13213507510E+03  0.82960768738E+02  0.99435129597E+02  0.18502072843E+03  0.17770000000E+01 0. -1.
        -16    1    5    5    0    0 -0.44400330832E+02 -0.11161789354E+02  0.72566879854E+01  0.46353364928E+02  0.00000000000E+00 0.  1.
          2    1    6    6  502    0  0.39369292289E+02  0.16605366461E+02  0.23865304763E+03  0.24244784288E+03  0.00000000000E+00 0. -1.
         -1    1    6    6    0  502  0.19442788759E+03  0.20634104061E+03  0.86193577247E+03  0.90736547453E+03  0.00000000000E+00 0.  1.
<mgrwt>
<rscale>  0 0.41924021E+03</rscale>
<asrwt>0</asrwt>
<pdfrwt beam="1">  1        1 0.24967644E+00 0.41924021E+03</pdfrwt>
<pdfrwt beam="2">  1       -2 0.24655932E-01 0.41924021E+03</pdfrwt>
<totfact> 0.74320360E+01</totfact>
</mgrwt>
</event>
<event>
12    3  0.1182097E-007  0.8282336E+03  0.7818608E-02  0.9520026E-01
          1   -1    0    0  501    0  0.00000000000E+00  0.00000000000E+00  0.72025613967E+03  0.72025613967E+03  0.00000000000E+00 0. -1.
         -2   -1    0    0    0  501 -0.00000000000E+00 -0.00000000000E+00 -0.11831939158E+04  0.11831939158E+04  0.00000000000E+00 0.  1.
        -24    2    1    2    0    0 -0.72698087460E+03 -0.33712540156E+03 -0.40275921071E+03  0.90036923000E+03  0.79341288781E+02 0.  0.
    5000000    2    1    2    0    0  0.72698087460E+03  0.33712540156E+03 -0.60178565381E+02  0.10030808254E+04  0.60032903827E+03 0.  0.
        -24    2    4    4    0    0  0.47233048729E+03  0.71164363783E+02 -0.28785604861E+03  0.56311357138E+03  0.77944426725E+02 0.  0.
         24    2    4    4    0    0  0.25465038732E+03  0.26596103777E+03  0.22767748323E+03  0.43996725405E+03  0.78435036111E+02 0.  0.
         11    1    3    3    0    0 -0.21685746505E+03 -0.13016905668E+03 -0.98924092037E+02  0.27158261994E+03  0.00000000000E+00 0. -1.
        -12    1    3    3    0    0 -0.51012340955E+03 -0.20695634487E+03 -0.30383511867E+03  0.62878661006E+03  0.00000000000E+00 0.  1.
         15    1    5    5    0    0  0.15008931449E+03  0.56964663099E+02 -0.11182443673E+03  0.19565182735E+03  0.17770000000E+01 0. -1.
        -16    1    5    5    0    0  0.32224117279E+03  0.14199700683E+02 -0.17603161188E+03  0.36746174403E+03  0.00000000000E+00 0.  1.
          2    1    6    6  502    0  0.36113743311E+02  0.57621842690E+02  0.12345476935E+02  0.69115049097E+02  0.00000000000E+00 0. -1.
         -3    1    6    6    0  502  0.21853664401E+03  0.20833919508E+03  0.21533200630E+03  0.37085220495E+03  0.00000000000E+00 0.  1.
<mgrwt>
<rscale>  0 0.82823360E+03</rscale>
<asrwt>0</asrwt>
<pdfrwt beam="1">  1        1 0.11080864E+00 0.82823360E+03</pdfrwt>
<pdfrwt beam="2">  1       -2 0.18202983E+00 0.82823360E+03</pdfrwt>
<totfact> 0.40723998E+00</totfact>
</mgrwt>
</event>
<event>
12    3  0.1182097E-007  0.1189852E+04  0.7818608E-02  0.9121786E-01
         -2   -1    0    0    0  501 -0.00000000000E+00  0.00000000000E+00  0.59287381359E+03  0.59287381359E+03  0.00000000000E+00 0.  1.
          1   -1    0    0  501    0  0.00000000000E+00 -0.00000000000E+00 -0.28718141098E+04  0.28718141098E+04  0.00000000000E+00 0. -1.
        -24    2    1    2    0    0 -0.37776280859E+03  0.10831230703E+04 -0.47497422708E+03  0.12442582082E+04  0.81961255136E+02 0.  0.
    5000000    2    1    2    0    0  0.37776280859E+03 -0.10831230703E+04 -0.18039660691E+04  0.22204297152E+04  0.60012850008E+03 0.  0.
        -24    2    4    4    0    0  0.39919652161E+03 -0.49078531996E+03 -0.59818466160E+03  0.87435652551E+03  0.80289172240E+02 0.  0.
         24    2    4    4    0    0 -0.21433713019E+02 -0.59233775032E+03 -0.12057814075E+04  0.13460731897E+04  0.81736250990E+02 0.  0.
         13    1    3    3    0    0 -0.91070546079E+02  0.37682404367E+03 -0.15260839868E+03  0.41662876473E+03  0.00000000000E+00 0. -1.
        -14    1    3    3    0    0 -0.28669226251E+03  0.70629902661E+03 -0.32236582839E+03  0.82762944346E+03  0.00000000000E+00 0.  1.
         15    1    5    5    0    0  0.50230510913E+02 -0.47478488114E+02 -0.10079522265E+03  0.12222988873E+03  0.17770000000E+01 0. -1.
        -16    1    5    5    0    0  0.34896601069E+03 -0.44330683184E+03 -0.49738943895E+03  0.75212663678E+03  0.00000000000E+00 0.  1.
          4    1    6    6  502    0  0.23806673097E+02 -0.24958167509E+03 -0.56024666650E+03  0.61378668734E+03  0.00000000000E+00 0. -1.
         -3    1    6    6    0  502 -0.45240386116E+02 -0.34275607522E+03 -0.64553474102E+03  0.73228650233E+03  0.00000000000E+00 0.  1.
<mgrwt>
<rscale>  0 0.11898516E+04</rscale>
<asrwt>0</asrwt>
<pdfrwt beam="1">  1        1 0.44181756E+00 0.11898516E+04</pdfrwt>
<pdfrwt beam="2">  1       -2 0.91211356E-01 0.11898516E+04</pdfrwt>
<totfact> 0.66135117E-01</totfact>
</mgrwt>
</event>
<event>
12    3  0.1182097E-007  0.6703504E+03  0.7818608E-02  0.9769325E-01
         -2   -1    0    0    0  501 -0.00000000000E+00  0.00000000000E+00  0.73030519540E+03  0.73030519540E+03  0.00000000000E+00 0.  1.
          1   -1    0    0  501    0  0.00000000000E+00 -0.00000000000E+00 -0.67235128084E+03  0.67235128084E+03  0.00000000000E+00 0. -1.
        -24    2    1    2    0    0 -0.34678727910E+03  0.41633156329E+03 -0.15177405028E+03  0.56747893956E+03  0.73509162441E+02 0.  0.
    5000000    2    1    2    0    0  0.34678727910E+03 -0.41633156329E+03  0.20972796484E+03  0.83517753669E+03  0.59995192392E+03 0.  0.
        -24    2    4    4    0    0 -0.16062518916E+03 -0.96584726203E+02  0.63063052504E+02  0.21289510446E+03  0.78856300856E+02 0.  0.
         24    2    4    4    0    0  0.50741246826E+03 -0.31974683708E+03  0.14666491234E+03  0.62228243222E+03  0.77584638757E+02 0.  0.
         11    1    3    3    0    0 -0.24181598370E+03  0.23819393670E+03 -0.10730465679E+03  0.35598540816E+03  0.00000000000E+00 0. -1.
        -12    1    3    3    0    0 -0.10497129540E+03  0.17813762658E+03 -0.44469393492E+02  0.21149353139E+03  0.00000000000E+00 0.  1.
         15    1    5    5    0    0 -0.91733533262E+02 -0.83345093936E+02  0.89118388164E+01  0.12427398927E+03  0.17770000000E+01 0. -1.
        -16    1    5    5    0    0 -0.68891655897E+02 -0.13239632267E+02  0.54151213688E+02  0.88621115196E+02  0.00000000000E+00 0.  1.
          2    1    6    6  502    0  0.42259705909E+03 -0.25368706744E+03  0.91017871671E+02  0.50122814715E+03  0.00000000000E+00 0. -1.
         -1    1    6    6    0  502  0.84815409174E+02 -0.66059769647E+02  0.55647040668E+02  0.12105428507E+03  0.00000000000E+00 0.  1.
<mgrwt>
<rscale>  0 0.67035039E+03</rscale>
<asrwt>0</asrwt>
<pdfrwt beam="1">  1        1 0.10343866E+00 0.67035039E+03</pdfrwt>
<pdfrwt beam="2">  1       -2 0.11235464E+00 0.67035039E+03</pdfrwt>
<totfact> 0.16273169E+01</totfact>
</mgrwt>
</event>
<event>
12    3  0.1182097E-007  0.8645773E+03  0.7818608E-02  0.9470978E-01
         -2   -1    0    0    0  501 -0.00000000000E+00  0.00000000000E+00  0.22312496610E+04  0.22312496610E+04  0.00000000000E+00 0.  1.
          1   -1    0    0  501    0  0.00000000000E+00 -0.00000000000E+00 -0.11484980403E+04  0.11484980403E+04  0.00000000000E+00 0. -1.
        -24    2    1    2    0    0  0.21724229434E+03 -0.73626856648E+03 -0.89077206588E+03  0.11787888445E+04  0.82356846483E+02 0.  0.
    5000000    2    1    2    0    0 -0.21724229434E+03  0.73626856648E+03  0.19735236865E+04  0.22009588568E+04  0.60011543186E+03 0.  0.
        -24    2    4    4    0    0 -0.41156574309E+03  0.48716201653E+03  0.14205584628E+04  0.15592509424E+04  0.81018293684E+02 0.  0.
         24    2    4    4    0    0  0.19432344874E+03  0.24910654995E+03  0.55296522374E+03  0.64170791440E+03  0.78758064838E+02 0.  0.
         11    1    3    3    0    0  0.86249199695E+02 -0.41519834019E+03 -0.52297701804E+03  0.67330048830E+03  0.00000000000E+00 0. -1.
        -12    1    3    3    0    0  0.13099309465E+03 -0.32107022629E+03 -0.36779504785E+03  0.50548835622E+03  0.00000000000E+00 0.  1.
         15    1    5    5    0    0 -0.24658089785E+03  0.25350145184E+03  0.70760211805E+03  0.79105564942E+03  0.17770000000E+01 0. -1.
        -16    1    5    5    0    0 -0.16498484523E+03  0.23366056469E+03  0.71295634475E+03  0.76819529298E+03  0.00000000000E+00 0.  1.
          4    1    6    6  502    0  0.33619276024E+02  0.21100557222E+02  0.32899035732E+02  0.51554202424E+02  0.00000000000E+00 0. -1.
         -3    1    6    6    0  502  0.16070417272E+03  0.22800599273E+03  0.52006618801E+03  0.59015371197E+03  0.00000000000E+00 0.  1.
<mgrwt>
<rscale>  0 0.86457730E+03</rscale>
<asrwt>0</asrwt>
<pdfrwt beam="1">  1        1 0.17669201E+00 0.86457730E+03</pdfrwt>
<pdfrwt beam="2">  1       -2 0.34326918E+00 0.86457730E+03</pdfrwt>
<totfact> 0.18267229E-01</totfact>
</mgrwt>
</event>
<event>
12    3  0.1182097E-007  0.1199701E+04  0.7818608E-02  0.9113118E-01
         -2   -1    0    0    0  501 -0.00000000000E+00  0.00000000000E+00  0.18005185525E+04  0.18005185525E+04  0.00000000000E+00 0.  1.
          1   -1    0    0  501    0  0.00000000000E+00 -0.00000000000E+00 -0.88166965302E+03  0.88166965302E+03  0.00000000000E+00 0. -1.
        -24    2    1    2    0    0  0.87137013794E+03  0.80376064913E+03  0.49671136577E+03  0.12880695033E+04  0.84165112010E+02 0.  0.
    5000000    2    1    2    0    0 -0.87137013794E+03 -0.80376064913E+03  0.42213753373E+03  0.13941187022E+04  0.60004146537E+03 0.  0.
        -24    2    4    4    0    0 -0.92216193653E+02 -0.18780387576E+03  0.32350205087E+03  0.39283629254E+03  0.76763622231E+02 0.  0.
         24    2    4    4    0    0 -0.77915394429E+03 -0.61595677337E+03  0.98635482858E+02  0.10012824097E+04  0.79711291131E+02 0.  0.
         13    1    3    3    0    0  0.77080156033E+03  0.67521268509E+03  0.44134758813E+03  0.11157216988E+04  0.00000000000E+00 0. -1.
        -14    1    3    3    0    0  0.10056857761E+03  0.12854796403E+03  0.55363777645E+02  0.17234780456E+03  0.00000000000E+00 0.  1.
         15    1    5    5    0    0 -0.17765273991E+02 -0.10553229145E+03  0.19979988603E+03  0.22666235172E+03  0.17770000000E+01 0. -1.
        -16    1    5    5    0    0 -0.74450919661E+02 -0.82271584312E+02  0.12370216484E+03  0.16617394083E+03  0.00000000000E+00 0.  1.
          4    1    6    6  502    0 -0.15457197889E+03 -0.11072929746E+03 -0.11184442647E+02  0.19046933016E+03  0.00000000000E+00 0. -1.
         -3    1    6    6    0  502 -0.62458196539E+03 -0.50522747590E+03  0.10981992551E+03  0.81081307953E+03  0.00000000000E+00 0.  1.
<mgrwt>
<rscale>  0 0.11997015E+04</rscale>
<asrwt>0</asrwt>
<pdfrwt beam="1">  1        1 0.13564149E+00 0.11997015E+04</pdfrwt>
<pdfrwt beam="2">  1       -2 0.27700285E+00 0.11997015E+04</pdfrwt>
<totfact> 0.71102713E-01</totfact>
</mgrwt>
</event>
<event>
12    3  0.1182097E-007  0.7134370E+03  0.7818608E-02  0.9694525E-01
          1   -1    0    0  501    0  0.00000000000E+00  0.00000000000E+00  0.34987207287E+04  0.34987207287E+04  0.00000000000E+00 0. -1.
         -2   -1    0    0    0  501 -0.00000000000E+00 -0.00000000000E+00 -0.22334312795E+03  0.22334312795E+03  0.00000000000E+00 0.  1.
        -24    2    1    2    0    0  0.42272907802E+03 -0.40897956828E+03  0.37423093058E+03  0.70167916599E+03  0.79628524466E+02 0.  0.
    5000000    2    1    2    0    0 -0.42272907802E+03  0.40897956828E+03  0.29011466702E+04  0.30203846907E+04  0.60008959082E+03 0.  0.
        -24    2    4    4    0    0 -0.53925818338E+03  0.43293923839E+03  0.24655200918E+04  0.25617269967E+04  0.73621396371E+02 0.  0.
         24    2    4    4    0    0  0.11652910536E+03 -0.23959670110E+02  0.43562657837E+03  0.45865769397E+03  0.80269958672E+02 0.  0.
         11    1    3    3    0    0  0.18064654257E+03 -0.13737344853E+03  0.17713229393E+03  0.28788971370E+03  0.00000000000E+00 0. -1.
        -12    1    3    3    0    0  0.24208253546E+03 -0.27160611975E+03  0.19709863665E+03  0.41378945229E+03  0.00000000000E+00 0.  1.
         15    1    5    5    0    0 -0.67775666607E+02  0.38395524696E+02  0.35724422272E+03  0.36564237952E+03  0.17770000000E+01 0. -1.
        -16    1    5    5    0    0 -0.47148251677E+03  0.39454371370E+03  0.21082758691E+04  0.21960846172E+04  0.00000000000E+00 0.  1.
          4    1    6    6  502    0  0.49928951966E+02 -0.51130700335E+02  0.22648009233E+03  0.23748785439E+03  0.00000000000E+00 0. -1.
         -3    1    6    6    0  502  0.66600153389E+02  0.27171030225E+02  0.20914648604E+03  0.22116983957E+03  0.00000000000E+00 0.  1.
<mgrwt>
<rscale>  0 0.71343698E+03</rscale>
<asrwt>0</asrwt>
<pdfrwt beam="1">  1        1 0.53826469E+00 0.71343698E+03</pdfrwt>
<pdfrwt beam="2">  1       -2 0.34360484E-01 0.71343698E+03</pdfrwt>
<totfact> 0.19055572E+00</totfact>
</mgrwt>
</event>
<event>
12    3  0.1267158E-007  0.6551863E+03  0.7818608E-02  0.9797096E-01
         -2   -1    0    0    0  501 -0.00000000000E+00  0.00000000000E+00  0.25562707429E+03  0.25562707429E+03  0.00000000000E+00 0.  1.
          1   -1    0    0  501    0  0.00000000000E+00 -0.00000000000E+00 -0.23008192991E+04  0.23008192991E+04  0.00000000000E+00 0. -1.
        -24    2    1    2    0    0 -0.25821951530E+03  0.58817408320E+03 -0.99289689108E+03  0.11852628383E+04  0.79860436152E+02 0.  0.
    5000000    2    1    2    0    0  0.25821951530E+03 -0.58817408320E+03 -0.10522953338E+04  0.13711835351E+04  0.60016060128E+03 0.  0.
        -24    2    4    4    0    0  0.79325220209E+02 -0.77138743092E+02  0.46923168774E+02  0.14323655234E+03  0.77923359207E+02 0.  0.
         24    2    4    4    0    0  0.17889429509E+03 -0.51103534011E+03 -0.10992185025E+04  0.12279469828E+04  0.80076142454E+02 0.  0.
         11    1    3    3    0    0 -0.13394874913E+03  0.22231508367E+03 -0.43711611527E+03  0.50836675939E+03  0.00000000000E+00 0. -1.
        -12    1    3    3    0    0 -0.12427076616E+03  0.36585899953E+03 -0.55578077581E+03  0.67689607889E+03  0.00000000000E+00 0.  1.
         15    1    5    5    0    0  0.62901058613E+02 -0.32115431924E+02 -0.71183168104E+01  0.71005438563E+02  0.17770000000E+01 0. -1.
        -16    1    5    5    0    0  0.16424161596E+02 -0.45023311169E+02  0.54041485584E+02  0.72231113773E+02  0.00000000000E+00 0.  1.
          2    1    6    6  502    0  0.96286249148E+02 -0.17415484678E+03 -0.35821728775E+03  0.40978113387E+03  0.00000000000E+00 0. -1.
         -1    1    6    6    0  502  0.82608045939E+02 -0.33688049332E+03 -0.74100121478E+03  0.81816584892E+03  0.00000000000E+00 0.  1.
<mgrwt>
<rscale>  0 0.65518633E+03</rscale>
<asrwt>0</asrwt>
<pdfrwt beam="1">  1        1 0.35397220E+00 0.65518633E+03</pdfrwt>
<pdfrwt beam="2">  1       -2 0.39327242E-01 0.65518633E+03</pdfrwt>
<totfact> 0.10608886E+01</totfact>
</mgrwt>
</event>
<event>
12    3  0.1182097E-007  0.6207418E+03  0.7818608E-02  0.9863284E-01
          1   -1    0    0  501    0  0.00000000000E+00  0.00000000000E+00  0.10531490683E+04  0.10531490683E+04  0.00000000000E+00 0. -1.
         -2   -1    0    0    0  501 -0.00000000000E+00 -0.00000000000E+00 -0.44465847004E+03  0.44465847004E+03  0.00000000000E+00 0.  1.
        -24    2    1    2    0    0  0.48010216629E+03  0.49358919543E+02  0.53408536709E+03  0.72421882063E+03  0.79443865712E+02 0.  0.
    5000000    2    1    2    0    0 -0.48010216629E+03 -0.49358919543E+02  0.74405231142E+02  0.77358871768E+03  0.59997414335E+03 0.  0.
        -24    2    4    4    0    0 -0.44311173623E+03  0.20263172284E+03 -0.10475739978E+02  0.49380848182E+03  0.79557838688E+02 0.  0.
         24    2    4    4    0    0 -0.36990430059E+02 -0.25199064239E+03  0.84880971120E+02  0.27978023586E+03  0.78769444304E+02 0.  0.
         13    1    3    3    0    0  0.37038766569E+03  0.54904318376E+02  0.36733325064E+03  0.52453333936E+03  0.00000000000E+00 0. -1.
        -14    1    3    3    0    0  0.10971450060E+03 -0.55453988336E+01  0.16675211645E+03  0.19968548127E+03  0.00000000000E+00 0.  1.
         15    1    5    5    0    0 -0.11233336732E+03  0.23393840693E+02 -0.24439233835E+02  0.11733069111E+03  0.17770000000E+01 0. -1.
        -16    1    5    5    0    0 -0.33077836891E+03  0.17923788215E+03  0.13963493856E+02  0.37647779071E+03  0.00000000000E+00 0.  1.
          4    1    6    6  502    0 -0.60225151158E+02 -0.15052164520E+03  0.44420007126E+02  0.16809810093E+03  0.00000000000E+00 0. -1.
         -3    1    6    6    0  502  0.23234721099E+02 -0.10146899719E+03  0.40460963994E+02  0.11168213493E+03  0.00000000000E+00 0.  1.
<mgrwt>
<rscale>  0 0.62074176E+03</rscale>
<asrwt>0</asrwt>
<pdfrwt beam="1">  1        1 0.16202293E+00 0.62074176E+03</pdfrwt>
<pdfrwt beam="2">  1       -2 0.68408996E-01 0.62074176E+03</pdfrwt>
<totfact> 0.24505486E+01</totfact>
</mgrwt>
</event>
<event>
12    3  0.1182097E-007  0.6195107E+03  0.7818608E-02  0.9865734E-01
         -2   -1    0    0    0  501 -0.00000000000E+00  0.00000000000E+00  0.13736328035E+04  0.13736328035E+04  0.00000000000E+00 0.  1.
          1   -1    0    0  501    0  0.00000000000E+00 -0.00000000000E+00 -0.34968365295E+03  0.34968365295E+03  0.00000000000E+00 0. -1.
        -24    2    1    2    0    0  0.32293442680E+03 -0.36355607402E+03  0.73051476328E+02  0.49814592576E+03  0.79706851579E+02 0.  0.
    5000000    2    1    2    0    0 -0.32293442680E+03  0.36355607402E+03  0.95089767419E+03  0.12251705306E+04  0.60031390073E+03 0.  0.
        -24    2    4    4    0    0  0.13662966907E+03 -0.30522346275E+02  0.17520768052E+03  0.23819314541E+03  0.80243149972E+02 0.  0.
         24    2    4    4    0    0 -0.45956409587E+03  0.39407842029E+03  0.77568999367E+03  0.98697738523E+03  0.77022289813E+02 0.  0.
         13    1    3    3    0    0  0.10827789498E+03 -0.11813196928E+03 -0.13458502425E+02  0.16081167866E+03  0.00000000000E+00 0. -1.
        -14    1    3    3    0    0  0.21465653183E+03 -0.24542410474E+03  0.86509978753E+02  0.33733424710E+03  0.00000000000E+00 0.  1.
         15    1    5    5    0    0  0.73809592998E+02 -0.39537848747E+02  0.14603333520E+03  0.16834485505E+03  0.17770000000E+01 0. -1.
        -16    1    5    5    0    0  0.62820076067E+02  0.90155024712E+01  0.29174345313E+02  0.69848290360E+02  0.00000000000E+00 0.  1.
          4    1    6    6  502    0 -0.40570906300E+02  0.30460666457E+02  0.35318408206E+02  0.61816183942E+02  0.00000000000E+00 0. -1.
         -1    1    6    6    0  502 -0.41899318957E+03  0.36361775384E+03  0.74037158546E+03  0.92516120129E+03  0.00000000000E+00 0.  1.
<mgrwt>
<rscale>  0 0.61951068E+03</rscale>
<asrwt>0</asrwt>
<pdfrwt beam="1">  1        1 0.53797486E-01 0.61951068E+03</pdfrwt>
<pdfrwt beam="2">  1       -2 0.21132812E+00 0.61951068E+03</pdfrwt>
<totfact> 0.73262363E+00</totfact>
</mgrwt>
</event>
<event>
12    3  0.1182097E-007  0.5648523E+03  0.7818608E-02  0.9981135E-01
         -2   -1    0    0    0  501 -0.00000000000E+00  0.00000000000E+00  0.47857923321E+03  0.47857923321E+03  0.00000000000E+00 0.  1.
          1   -1    0    0  501    0  0.00000000000E+00 -0.00000000000E+00 -0.14569607888E+04  0.14569607888E+04  0.00000000000E+00 0. -1.
        -24    2    1    2    0    0 -0.51865984326E+03  0.15139319689E+03 -0.98712207129E+03  0.11282030790E+04  0.80649058894E+02 0.  0.
    5000000    2    1    2    0    0  0.51865984326E+03 -0.15139319689E+03  0.87405157276E+01  0.80733694301E+03  0.59982381568E+03 0.  0.
        -24    2    4    4    0    0  0.41024644632E+03 -0.31916007670E+02  0.26378019150E+03  0.49484791390E+03  0.77289651305E+02 0.  0.
         24    2    4    4    0    0  0.10841339694E+03 -0.11947718922E+03 -0.25503967577E+03  0.31248902911E+03  0.81091884404E+02 0.  0.
         13    1    3    3    0    0 -0.29026192258E+03  0.44198436678E+02 -0.55182276688E+03  0.62507107720E+03  0.00000000000E+00 0. -1.
        -14    1    3    3    0    0 -0.22839792067E+03  0.10719476021E+03 -0.43529930441E+03  0.50313200177E+03  0.00000000000E+00 0.  1.
         15    1    5    5    0    0  0.16153984849E+03  0.39956321872E+01  0.14410645339E+03  0.21652001147E+03  0.17770000000E+01 0. -1.
        -16    1    5    5    0    0  0.24870659782E+03 -0.35911639857E+02  0.11967373811E+03  0.27832790243E+03  0.00000000000E+00 0.  1.
          2    1    6    6  502    0  0.20206367242E+02  0.25221764705E+01 -0.75430574952E+02  0.78130853630E+02  0.00000000000E+00 0. -1.
         -1    1    6    6    0  502  0.88207029695E+02 -0.12199936569E+03 -0.17960910082E+03  0.23435817548E+03  0.00000000000E+00 0.  1.
<mgrwt>
<rscale>  0 0.56485232E+03</rscale>
<asrwt>0</asrwt>
<pdfrwt beam="1">  1        1 0.22414781E+00 0.56485232E+03</pdfrwt>
<pdfrwt beam="2">  1       -2 0.73627575E-01 0.56485232E+03</pdfrwt>
<totfact> 0.10853743E+01</totfact>
</mgrwt>
</event>
<event>
12    3  0.1182097E-007  0.9597856E+03  0.7818608E-02  0.9353785E-01
         -2   -1    0    0    0  501 -0.00000000000E+00  0.00000000000E+00  0.57712611370E+03  0.57712611370E+03  0.00000000000E+00 0.  1.
          1   -1    0    0  501    0  0.00000000000E+00 -0.00000000000E+00 -0.25213917163E+04  0.25213917163E+04  0.00000000000E+00 0. -1.
        -24    2    1    2    0    0 -0.58552695537E+03  0.67818938759E+03 -0.17976972036E+04  0.20102980790E+04  0.82464961337E+02 0.  0.
    5000000    2    1    2    0    0  0.58552695537E+03 -0.67818938759E+03 -0.14656839900E+03  0.10882197510E+04  0.59996439052E+03 0.  0.
        -24    2    4    4    0    0  0.64197709021E+03 -0.46683557700E+03  0.26086899143E+02  0.79812569851E+03  0.79082640426E+02 0.  0.
         24    2    4    4    0    0 -0.56450134841E+02 -0.21135381060E+03 -0.17265529815E+03  0.29009405245E+03  0.80545988801E+02 0.  0.
         11    1    3    3    0    0 -0.18219871044E+03  0.20429867167E+03 -0.46774251609E+03  0.54195698970E+03  0.00000000000E+00 0. -1.
        -12    1    3    3    0    0 -0.40332824492E+03  0.47389071593E+03 -0.13299546875E+04  0.14683410893E+04  0.00000000000E+00 0.  1.
         15    1    5    5    0    0  0.36039011521E+03 -0.28155319533E+03  0.50773997599E+02  0.46014605670E+03  0.17770000000E+01 0. -1.
        -16    1    5    5    0    0  0.28158697500E+03 -0.18528238167E+03 -0.24687098456E+02  0.33797964181E+03  0.00000000000E+00 0.  1.
          2    1    6    6  502    0 -0.62975683391E+02 -0.10404960320E+03 -0.64783143378E+02  0.13780098799E+03  0.00000000000E+00 0. -1.
         -1    1    6    6    0  502  0.65255485504E+01 -0.10730420739E+03 -0.10787215477E+03  0.15229306446E+03  0.00000000000E+00 0.  1.
<mgrwt>
<rscale>  0 0.95978561E+03</rscale>
<asrwt>0</asrwt>
<pdfrwt beam="1">  1        1 0.38790642E+00 0.95978561E+03</pdfrwt>
<pdfrwt beam="2">  1       -2 0.88788632E-01 0.95978561E+03</pdfrwt>
<totfact> 0.12788981E+00</totfact>
</mgrwt>
</event>
<event>
12    3  0.1182097E-007  0.9772850E+03  0.7818608E-02  0.9333815E-01
         -2   -1    0    0    0  501 -0.00000000000E+00  0.00000000000E+00  0.20899715625E+04  0.20899715625E+04  0.00000000000E+00 0.  1.
          1   -1    0    0  501    0  0.00000000000E+00 -0.00000000000E+00 -0.59790187914E+03  0.59790187914E+03  0.00000000000E+00 0. -1.
        -24    2    1    2    0    0  0.42122129830E+03  0.87383366842E+03  0.25711253177E+03  0.10067537583E+04  0.80209809985E+02 0.  0.
    5000000    2    1    2    0    0 -0.42122129830E+03 -0.87383366842E+03  0.12349571516E+04  0.16811196833E+04  0.60002630048E+03 0.  0.
        -24    2    4    4    0    0 -0.25982303702E+03 -0.65097397152E+03  0.12011811893E+04  0.13931116064E+04  0.81538802556E+02 0.  0.
         24    2    4    4    0    0 -0.16139826128E+03 -0.22285969690E+03  0.33775962291E+02  0.28800807690E+03  0.78051223468E+02 0.  0.
         11    1    3    3    0    0  0.38032090079E+03  0.77986648454E+03  0.25458673303E+03  0.90424008201E+03  0.00000000000E+00 0. -1.
        -12    1    3    3    0    0  0.40900397516E+02  0.93967183881E+02  0.25257987391E+01  0.10251367627E+03  0.00000000000E+00 0.  1.
         15    1    5    5    0    0 -0.12966675819E+02 -0.11224590689E+03  0.18710945720E+03  0.21858724802E+03  0.17770000000E+01 0. -1.
        -16    1    5    5    0    0 -0.24685636120E+03 -0.53872806464E+03  0.10140717321E+04  0.11745243584E+04  0.00000000000E+00 0.  1.
          4    1    6    6  502    0 -0.40839466062E+02 -0.93331178272E+02 -0.18400822211E+02  0.10352372233E+03  0.00000000000E+00 0. -1.
         -3    1    6    6    0  502 -0.12055879522E+03 -0.12952851862E+03  0.52176784502E+02  0.18448435457E+03  0.00000000000E+00 0.  1.
<mgrwt>
<rscale>  0 0.97728499E+03</rscale>
<asrwt>0</asrwt>
<pdfrwt beam="1">  1        1 0.91984905E-01 0.97728499E+03</pdfrwt>
<pdfrwt beam="2">  1       -2 0.32153408E+00 0.97728499E+03</pdfrwt>
<totfact> 0.71764397E-01</totfact>
</mgrwt>
</event>
<event>
12    3  0.1182097E-007  0.1064946E+04  0.7818608E-02  0.9240048E-01
         -2   -1    0    0    0  501 -0.00000000000E+00  0.00000000000E+00  0.57715919588E+03  0.57715919588E+03  0.00000000000E+00 0.  1.
          1   -1    0    0  501    0  0.00000000000E+00 -0.00000000000E+00 -0.22124909610E+04  0.22124909610E+04  0.00000000000E+00 0. -1.
        -24    2    1    2    0    0  0.35790260449E+03 -0.94972432916E+03 -0.43470690756E+03  0.11069385732E+04  0.79198065770E+02 0.  0.
    5000000    2    1    2    0    0 -0.35790260449E+03  0.94972432916E+03 -0.12006248576E+04  0.16827115837E+04  0.59995637315E+03 0.  0.
        -24    2    4    4    0    0  0.10052998601E+03  0.13192060124E+03 -0.42551045266E+03  0.46360605487E+03  0.79762808853E+02 0.  0.
         24    2    4    4    0    0 -0.45843259050E+03  0.81780372792E+03 -0.77511440494E+03  0.12191055289E+04  0.80327905116E+02 0.  0.
         11    1    3    3    0    0  0.30917966039E+03 -0.73413944985E+03 -0.35297329005E+03  0.87128809111E+03  0.00000000000E+00 0. -1.
        -12    1    3    3    0    0  0.48722944097E+02 -0.21558487931E+03 -0.81733617505E+02  0.23565048207E+03  0.00000000000E+00 0.  1.
         15    1    5    5    0    0  0.42496035564E+02  0.96802392415E+02 -0.17864139001E+03  0.20758737960E+03  0.17770000000E+01 0. -1.
        -16    1    5    5    0    0  0.58033950442E+02  0.35118208821E+02 -0.24686906265E+03  0.25601867527E+03  0.00000000000E+00 0.  1.
          4    1    6    6  502    0 -0.13890994844E+03  0.29365417190E+03 -0.22870767413E+03  0.39728572420E+03  0.00000000000E+00 0. -1.
         -3    1    6    6    0  502 -0.31952264206E+03  0.52414955602E+03 -0.54640673081E+03  0.82181980467E+03  0.00000000000E+00 0.  1.
<mgrwt>
<rscale>  0 0.10649459E+04</rscale>
<asrwt>0</asrwt>
<pdfrwt beam="1">  1        1 0.34038322E+00 0.10649459E+04</pdfrwt>
<pdfrwt beam="2">  1       -2 0.88793725E-01 0.10649459E+04</pdfrwt>
<totfact> 0.20468364E+00</totfact>
</mgrwt>
</event>
<event>
12    3  0.1182097E-007  0.1006986E+04  0.7818608E-02  0.9300915E-01
         -2   -1    0    0    0  501 -0.00000000000E+00  0.00000000000E+00  0.57017989034E+03  0.57017989034E+03  0.00000000000E+00 0.  1.
          1   -1    0    0  501    0  0.00000000000E+00 -0.00000000000E+00 -0.25128437322E+04  0.25128437322E+04  0.00000000000E+00 0. -1.
        -24    2    1    2    0    0  0.28373506937E+03 -0.94004186407E+03 -0.21639611631E+03  0.10083596987E+04  0.76011229829E+02 0.  0.
    5000000    2    1    2    0    0 -0.28373506937E+03  0.94004186407E+03 -0.17262677256E+04  0.20746639238E+04  0.60003819937E+03 0.  0.
        -24    2    4    4    0    0  0.55746311469E+02  0.17953956041E+03 -0.64488168290E+02  0.21417934784E+03  0.79824583932E+02 0.  0.
         24    2    4    4    0    0 -0.33948138084E+03  0.76050230366E+03 -0.16617795573E+04  0.18604845760E+04  0.79247704557E+02 0.  0.
         11    1    3    3    0    0  0.43537721950E+02 -0.15306372174E+03 -0.64131804632E+02  0.17157192226E+03  0.00000000000E+00 0. -1.
        -12    1    3    3    0    0  0.24019734742E+03 -0.78697814233E+03 -0.15226431168E+03  0.83678777646E+03  0.00000000000E+00 0.  1.
         15    1    5    5    0    0  0.21571948290E+02  0.10534998205E+02 -0.29784795382E+02  0.38296565187E+02  0.17770000000E+01 0. -1.
        -16    1    5    5    0    0  0.34174363180E+02  0.16900456220E+03 -0.34703372908E+02  0.17588278266E+03  0.00000000000E+00 0.  1.
          4    1    6    6  502    0 -0.59570862816E+02  0.20504176250E+03 -0.46682342774E+03  0.51333704791E+03  0.00000000000E+00 0. -1.
         -3    1    6    6    0  502 -0.27991051802E+03  0.55546054116E+03 -0.11949561295E+04  0.13471475281E+04  0.00000000000E+00 0.  1.
<mgrwt>
<rscale>  0 0.10069865E+04</rscale>
<asrwt>0</asrwt>
<pdfrwt beam="1">  1        1 0.38659134E+00 0.10069865E+04</pdfrwt>
<pdfrwt beam="2">  1       -2 0.87719983E-01 0.10069865E+04</pdfrwt>
<totfact> 0.13237631E+00</totfact>
</mgrwt>
</event>
<event>
12    3  0.1182097E-007  0.1011647E+04  0.7818608E-02  0.9295862E-01
          1   -1    0    0  501    0  0.00000000000E+00  0.00000000000E+00  0.41889029506E+04  0.41889029506E+04  0.00000000000E+00 0. -1.
         -2   -1    0    0    0  501 -0.00000000000E+00 -0.00000000000E+00 -0.28343130536E+03  0.28343130536E+03  0.00000000000E+00 0.  1.
        -24    2    1    2    0    0 -0.65214585242E+03 -0.76086984662E+03  0.19721445978E+04  0.22135764297E+04  0.79681610379E+02 0.  0.
    5000000    2    1    2    0    0  0.65214585242E+03  0.76086984662E+03  0.19333270475E+04  0.22587578263E+04  0.60001359083E+03 0.  0.
        -24    2    4    4    0    0  0.96073256519E+02  0.13333593705E+03  0.42292762543E+02  0.18861252827E+03  0.82325362599E+02 0.  0.
         24    2    4    4    0    0  0.55607259591E+03  0.62753390957E+03  0.18910342849E+04  0.20701452981E+04  0.80469551640E+02 0.  0.
         13    1    3    3    0    0 -0.99764991340E+02 -0.11447842990E+03  0.36618628571E+03  0.39642245175E+03  0.00000000000E+00 0. -1.
        -14    1    3    3    0    0 -0.55238086108E+03 -0.64639141672E+03  0.16059583121E+04  0.18171539779E+04  0.00000000000E+00 0.  1.
         15    1    5    5    0    0  0.77943689125E+02  0.13948323882E+03  0.50785712453E+02  0.16766973163E+03  0.17770000000E+01 0. -1.
        -16    1    5    5    0    0  0.18129567395E+02 -0.61473017644E+01 -0.84929499096E+01  0.20942796639E+02  0.00000000000E+00 0.  1.
          4    1    6    6  502    0  0.23865072333E+03  0.32941215057E+03  0.90015980905E+03  0.98780272044E+03  0.00000000000E+00 0. -1.
         -3    1    6    6    0  502  0.31742187258E+03  0.29812175900E+03  0.99087447587E+03  0.10823425776E+04  0.00000000000E+00 0.  1.
<mgrwt>
<rscale>  0 0.10116470E+04</rscale>
<asrwt>0</asrwt>
<pdfrwt beam="1">  1        1 0.64444656E+00 0.10116470E+04</pdfrwt>
<pdfrwt beam="2">  1       -2 0.43604819E-01 0.10116470E+04</pdfrwt>
<totfact> 0.29964898E-01</totfact>
</mgrwt>
</event>
<event>
12    3  0.1182097E-007  0.1372413E+04  0.7818608E-02  0.8974033E-01
         -2   -1    0    0    0  501 -0.00000000000E+00  0.00000000000E+00  0.12193375147E+04  0.12193375147E+04  0.00000000000E+00 0.  1.
          1   -1    0    0  501    0  0.00000000000E+00 -0.00000000000E+00 -0.17223898809E+04  0.17223898809E+04  0.00000000000E+00 0. -1.
        -24    2    1    2    0    0  0.95143053203E+03 -0.94067909983E+03  0.12571409520E+03  0.13462607614E+04  0.80726562259E+02 0.  0.
    5000000    2    1    2    0    0 -0.95143053203E+03  0.94067909983E+03 -0.62876646145E+03  0.15954666342E+04  0.60005774022E+03 0.  0.
        -24    2    4    4    0    0 -0.91354457430E+03  0.67648190919E+03 -0.65750856201E+03  0.13156707509E+04  0.80501882202E+02 0.  0.
         24    2    4    4    0    0 -0.37885957728E+02  0.26419719064E+03  0.28742100564E+02  0.27979588325E+03  0.78893134066E+02 0.  0.
         11    1    3    3    0    0  0.51426530059E+03 -0.45391986614E+03  0.53140326752E+02  0.68799414140E+03  0.00000000000E+00 0. -1.
        -12    1    3    3    0    0  0.43716523144E+03 -0.48675923369E+03  0.72573768452E+02  0.65826662002E+03  0.00000000000E+00 0.  1.
         15    1    5    5    0    0 -0.53938006631E+03  0.37190142314E+03 -0.41665544365E+03  0.77643186495E+03  0.17770000000E+01 0. -1.
        -16    1    5    5    0    0 -0.37416450799E+03  0.30458048605E+03 -0.24085311836E+03  0.53923888598E+03  0.00000000000E+00 0.  1.
          2    1    6    6  502    0 -0.21603058392E+02  0.17550351739E+03  0.56179997618E+02  0.18553805238E+03  0.00000000000E+00 0. -1.
         -1    1    6    6    0  502 -0.16282899336E+02  0.88693673252E+02 -0.27437897055E+02  0.94257830871E+02  0.00000000000E+00 0.  1.
<mgrwt>
<rscale>  0 0.13724125E+04</rscale>
<asrwt>0</asrwt>
<pdfrwt beam="1">  1        1 0.26498306E+00 0.13724125E+04</pdfrwt>
<pdfrwt beam="2">  1       -2 0.18759039E+00 0.13724125E+04</pdfrwt>
<totfact> 0.62062224E-01</totfact>
</mgrwt>
</event>
<event>
12    3  0.1182097E-007  0.5935637E+03  0.7818608E-02  0.9918850E-01
          1   -1    0    0  501    0  0.00000000000E+00  0.00000000000E+00  0.20839894969E+04  0.20839894969E+04  0.00000000000E+00 0. -1.
         -2   -1    0    0    0  501 -0.00000000000E+00 -0.00000000000E+00 -0.62508339567E+03  0.62508339567E+03  0.00000000000E+00 0.  1.
        -24    2    1    2    0    0 -0.25761658362E+03  0.46426764573E+03  0.17698949343E+04  0.18494834662E+04  0.78423608336E+02 0.  0.
    5000000    2    1    2    0    0  0.25761658362E+03 -0.46426764573E+03 -0.31098883307E+03  0.85958942634E+03  0.60022427189E+03 0.  0.
        -24    2    4    4    0    0  0.28724313060E+03 -0.48815095692E+03 -0.42790762951E+03  0.71456996214E+03  0.81886009650E+02 0.  0.
         24    2    4    4    0    0 -0.29626546987E+02  0.23883311192E+02  0.11691879644E+03  0.14501946421E+03  0.76892751266E+02 0.  0.
         11    1    3    3    0    0 -0.59936409890E+02  0.17296928725E+03  0.53915367509E+03  0.56938337957E+03  0.00000000000E+00 0. -1.
        -12    1    3    3    0    0 -0.19768017373E+03  0.29129835847E+03  0.12307412592E+04  0.12801000866E+04  0.00000000000E+00 0.  1.
         15    1    5    5    0    0  0.13049166950E+03 -0.19984126314E+03 -0.22933360763E+03  0.33100100842E+03  0.17770000000E+01 0. -1.
        -16    1    5    5    0    0  0.15675146111E+03 -0.28830969378E+03 -0.19857402188E+03  0.38356895371E+03  0.00000000000E+00 0.  1.
          4    1    6    6  502    0 -0.44494491191E+02  0.42381741532E+02  0.76207724923E+02  0.97895807364E+02  0.00000000000E+00 0. -1.
         -3    1    6    6    0  502  0.14867944203E+02 -0.18498430340E+02  0.40711071519E+02  0.47123656841E+02  0.00000000000E+00 0.  1.
<mgrwt>
<rscale>  0 0.59356365E+03</rscale>
<asrwt>0</asrwt>
<pdfrwt beam="1">  1        1 0.32061377E+00 0.59356365E+03</pdfrwt>
<pdfrwt beam="2">  1       -2 0.96166677E-01 0.59356365E+03</pdfrwt>
<totfact> 0.22437611E+00</totfact>
</mgrwt>
</event>
<event>
12    3  0.1182097E-007  0.5195231E+03  0.7818608E-02  0.1008805E+00
          3   -1    0    0  501    0  0.00000000000E+00  0.00000000000E+00  0.12473424010E+03  0.12473424010E+03  0.00000000000E+00 0. -1.
         -4   -1    0    0    0  501 -0.00000000000E+00 -0.00000000000E+00 -0.28106629838E+04  0.28106629838E+04  0.00000000000E+00 0.  1.
        -24    2    1    2    0    0 -0.42155176343E+03  0.10304156061E+03 -0.90974283950E+03  0.10110019672E+04  0.78546109092E+02 0.  0.
    5000000    2    1    2    0    0  0.42155176343E+03 -0.10304156061E+03 -0.17761859042E+04  0.19243952567E+04  0.60011439342E+03 0.  0.
        -24    2    4    4    0    0  0.83880434623E+02  0.14974096530E+03 -0.14768562849E+03  0.24022686940E+03  0.80247242430E+02 0.  0.
         24    2    4    4    0    0  0.33767132880E+03 -0.25278252591E+03 -0.16285002758E+04  0.16841683873E+04  0.80554807503E+02 0.  0.
         13    1    3    3    0    0 -0.26070228014E+03  0.40403512683E+02 -0.47683879378E+03  0.54495261992E+03  0.00000000000E+00 0. -1.
        -14    1    3    3    0    0 -0.16084948329E+03  0.62638047924E+02 -0.43290404572E+03  0.46604934731E+03  0.00000000000E+00 0.  1.
         15    1    5    5    0    0  0.15918805009E+02  0.69385794859E+02 -0.10452949956E+03  0.12648071351E+03  0.17770000000E+01 0. -1.
        -16    1    5    5    0    0  0.67961629614E+02  0.80355170440E+02 -0.43156128923E+02  0.11374615589E+03  0.00000000000E+00 0.  1.
          2    1    6    6  502    0  0.20032844925E+03 -0.11211712024E+03 -0.77294769165E+03  0.80631871506E+03  0.00000000000E+00 0. -1.
         -3    1    6    6    0  502  0.13734287955E+03 -0.14066540566E+03 -0.85555258412E+03  0.87784967227E+03  0.00000000000E+00 0.  1.
<mgrwt>
<rscale>  0 0.51952305E+03</rscale>
<asrwt>0</asrwt>
<pdfrwt beam="1">  1        3 0.19189884E-01 0.51952305E+03</pdfrwt>
<pdfrwt beam="2">  1       -4 0.43240968E+00 0.51952305E+03</pdfrwt>
<totfact> 0.24789293E-01</totfact>
</mgrwt>
</event>
<event>
12    3  0.1182097E-007  0.3233693E+03  0.7818608E-02  0.1074109E+00
          1   -1    0    0  501    0  0.00000000000E+00  0.00000000000E+00  0.24968695899E+03  0.24968695899E+03  0.00000000000E+00 0. -1.
         -2   -1    0    0    0  501 -0.00000000000E+00 -0.00000000000E+00 -0.12476079379E+04  0.12476079379E+04  0.00000000000E+00 0.  1.
        -24    2    1    2    0    0 -0.27601488622E+03 -0.10859777531E+03 -0.14818614668E+02  0.30786738477E+03  0.81148265844E+02 0.  0.
    5000000    2    1    2    0    0  0.27601488622E+03  0.10859777531E+03 -0.98310236428E+03  0.11894275122E+04  0.60022483605E+03 0.  0.
        -24    2    4    4    0    0  0.19669145511E+03  0.12698772284E+02 -0.24910371236E+02  0.21974802201E+03  0.93914212172E+02 0.  0.
         24    2    4    4    0    0  0.79323431101E+02  0.95899003026E+02 -0.95819199305E+03  0.96967949016E+03  0.81594072023E+02 0.  0.
         13    1    3    3    0    0 -0.25135420931E+03 -0.77742860454E+02  0.60957280386E+01  0.26317303964E+03  0.00000000000E+00 0. -1.
        -14    1    3    3    0    0 -0.24660676901E+02 -0.30854914855E+02 -0.20914342707E+02  0.44694345132E+02  0.00000000000E+00 0.  1.
         15    1    5    5    0    0  0.16797733069E+03  0.51386911358E+01 -0.55621289464E+02  0.17703015377E+03  0.17770000000E+01 0. -1.
        -16    1    5    5    0    0  0.28714124423E+02  0.75600811480E+01  0.30710918228E+02  0.42717868238E+02  0.00000000000E+00 0.  1.
          4    1    6    6  502    0  0.53286480617E+02  0.69984246453E+01 -0.27158429173E+03  0.27685096076E+03  0.00000000000E+00 0. -1.
         -3    1    6    6    0  502  0.26036950484E+02  0.88900578380E+02 -0.68660770132E+03  0.69282852939E+03  0.00000000000E+00 0.  1.
<mgrwt>
<rscale>  0 0.32336926E+03</rscale>
<asrwt>0</asrwt>
<pdfrwt beam="1">  1        1 0.38413378E-01 0.32336926E+03</pdfrwt>
<pdfrwt beam="2">  1       -2 0.19193968E+00 0.32336926E+03</pdfrwt>
<totfact> 0.15746531E+01</totfact>
</mgrwt>
</event>
<event>
12    3  0.1182097E-007  0.1153265E+04  0.7818608E-02  0.9154777E-01
          1   -1    0    0  501    0  0.00000000000E+00  0.00000000000E+00  0.32403088022E+04  0.32403088022E+04  0.00000000000E+00 0. -1.
         -2   -1    0    0    0  501 -0.00000000000E+00 -0.00000000000E+00 -0.47757305330E+03  0.47757305330E+03  0.00000000000E+00 0.  1.
        -24    2    1    2    0    0 -0.10375283338E+04  0.41421678172E+03  0.18228891901E+04  0.21394761457E+04  0.79953693862E+02 0.  0.
    5000000    2    1    2    0    0  0.10375283338E+04 -0.41421678172E+03  0.93984655884E+03  0.15784057098E+04  0.60001037067E+03 0.  0.
        -24    2    4    4    0    0  0.77793518931E+03 -0.12123620045E+03  0.34792331413E+03  0.86435758271E+03  0.78625843096E+02 0.  0.
         24    2    4    4    0    0  0.25959314447E+03 -0.29298058127E+03  0.59192324471E+03  0.71404812709E+03  0.79154144027E+02 0.  0.
         13    1    3    3    0    0 -0.49960035870E+03  0.19010532989E+03  0.79784898025E+03  0.96036636247E+03  0.00000000000E+00 0. -1.
        -14    1    3    3    0    0 -0.53792797509E+03  0.22411145182E+03  0.10250402098E+04  0.11791097833E+04  0.00000000000E+00 0.  1.
         15    1    5    5    0    0  0.55736784421E+03 -0.12080633307E+03  0.23910370084E+03  0.61840667958E+03  0.17770000000E+01 0. -1.
        -16    1    5    5    0    0  0.22056734510E+03 -0.42986737356E+00  0.10881961329E+03  0.24595090313E+03  0.00000000000E+00 0.  1.
          4    1    6    6  502    0  0.22484331731E+03 -0.28443529678E+03  0.55209559540E+03  0.66050548965E+03  0.00000000000E+00 0. -1.
         -3    1    6    6    0  502  0.34749827165E+02 -0.85452844879E+01  0.39827649306E+02  0.53542637442E+02  0.00000000000E+00 0.  1.
<mgrwt>
<rscale>  0 0.11532646E+04</rscale>
<asrwt>0</asrwt>
<pdfrwt beam="1">  1        1 0.49850903E+00 0.11532646E+04</pdfrwt>
<pdfrwt beam="2">  1       -2 0.73472779E-01 0.11532646E+04</pdfrwt>
<totfact> 0.58524443E-01</totfact>
</mgrwt>
</event>
<event>
12    3  0.1998676E-007  0.5765857E+03  0.7818608E-02  0.9955210E-01
          3   -1    0    0  501    0  0.00000000000E+00  0.00000000000E+00  0.17669469681E+04  0.17669469681E+04  0.00000000000E+00 0. -1.
         -4   -1    0    0    0  501 -0.00000000000E+00 -0.00000000000E+00 -0.27614312413E+03  0.27614312413E+03  0.00000000000E+00 0.  1.
        -24    2    1    2    0    0  0.17329084172E+03 -0.53567588970E+03  0.70118659389E+03  0.90269409098E+03  0.78839126061E+02 0.  0.
    5000000    2    1    2    0    0 -0.17329084172E+03  0.53567588970E+03  0.78961725003E+03  0.11403960012E+04  0.60002438567E+03 0.  0.
        -24    2    4    4    0    0 -0.18702382314E+02  0.72572112173E+02 -0.81793099942E+02  0.13840032335E+03  0.82752931879E+02 0.  0.
         24    2    4    4    0    0 -0.15458845941E+03  0.46310377753E+03  0.87141034998E+03  0.10019956779E+04  0.79225247725E+02 0.  0.
         13    1    3    3    0    0  0.14333538710E+03 -0.39873049562E+03  0.47432295119E+03  0.63601360312E+03  0.00000000000E+00 0. -1.
        -14    1    3    3    0    0  0.29955454625E+02 -0.13694539408E+03  0.22686364270E+03  0.26668048786E+03  0.00000000000E+00 0.  1.
         15    1    5    5    0    0 -0.43990587981E+02  0.44557243864E+02 -0.19567740339E+02  0.65624492399E+02  0.17770000000E+01 0. -1.
        -16    1    5    5    0    0  0.25288205667E+02  0.28014868309E+02 -0.62225359603E+02  0.72775830947E+02  0.00000000000E+00 0.  1.
          2    1    6    6  502    0 -0.67962929171E+02  0.16461645124E+03  0.24700962469E+03  0.30451812828E+03  0.00000000000E+00 0. -1.
         -1    1    6    6    0  502 -0.86625530235E+02  0.29848732629E+03  0.62440072529E+03  0.69747754959E+03  0.00000000000E+00 0.  1.
<mgrwt>
<rscale>  0 0.57658566E+03</rscale>
<asrwt>0</asrwt>
<pdfrwt beam="1">  1        3 0.27183799E+00 0.57658566E+03</pdfrwt>
<pdfrwt beam="2">  1       -4 0.42483559E-01 0.57658566E+03</pdfrwt>
<totfact> 0.69661485E-01</totfact>
</mgrwt>
</event>
<event>
12    3  0.1182097E-007  0.4914049E+03  0.7818608E-02  0.1016047E+00
          3   -1    0    0  501    0  0.00000000000E+00  0.00000000000E+00  0.44236945353E+03  0.44236945353E+03  0.00000000000E+00 0. -1.
         -4   -1    0    0    0  501 -0.00000000000E+00 -0.00000000000E+00 -0.73201821312E+03  0.73201821312E+03  0.00000000000E+00 0.  1.
        -24    2    1    2    0    0 -0.17588957294E+03 -0.34727358310E+03 -0.22345170814E+03  0.45608027544E+03  0.80885526424E+02 0.  0.
    5000000    2    1    2    0    0  0.17588957294E+03  0.34727358310E+03 -0.66197051452E+02  0.71830739120E+03  0.60003947807E+03 0.  0.
        -24    2    4    4    0    0 -0.63532008628E+02  0.33489291396E+03  0.15577375431E+03  0.38318181352E+03  0.79832698431E+02 0.  0.
         24    2    4    4    0    0  0.23942158157E+03  0.12380669143E+02 -0.22197080576E+03  0.33512557769E+03  0.74579752769E+02 0.  0.
         13    1    3    3    0    0 -0.94985836419E+02 -0.18710865111E+03 -0.73833701862E+02  0.22244858275E+03  0.00000000000E+00 0. -1.
        -14    1    3    3    0    0 -0.80903736520E+02 -0.16016493200E+03 -0.14961800628E+03  0.23363169268E+03  0.00000000000E+00 0.  1.
         15    1    5    5    0    0 -0.83703464229E+01  0.86043919621E+01  0.24187953793E+02  0.27061284115E+02  0.17770000000E+01 0. -1.
        -16    1    5    5    0    0 -0.55161662205E+02  0.32628852200E+03  0.13158580051E+03  0.35612052940E+03  0.00000000000E+00 0.  1.
          4    1    6    6  502    0  0.11590412168E+03 -0.30294916585E+02 -0.94676675087E+02  0.15269322251E+03  0.00000000000E+00 0. -1.
         -3    1    6    6    0  502  0.12351745988E+03  0.42675585728E+02 -0.12729413067E+03  0.18243235518E+03  0.00000000000E+00 0.  1.
<mgrwt>
<rscale>  0 0.49140489E+03</rscale>
<asrwt>0</asrwt>
<pdfrwt beam="1">  1        3 0.68056840E-01 0.49140489E+03</pdfrwt>
<pdfrwt beam="2">  1       -4 0.11261819E+00 0.49140489E+03</pdfrwt>
<totfact> 0.29018362E+00</totfact>
</mgrwt>
</event>
<event>
12    3  0.1182097E-007  0.5670153E+03  0.7818608E-02  0.9976305E-01
         -4   -1    0    0    0  501 -0.00000000000E+00  0.00000000000E+00  0.22201219117E+03  0.22201219117E+03  0.00000000000E+00 0.  1.
          3   -1    0    0  501    0  0.00000000000E+00 -0.00000000000E+00 -0.24118145419E+04  0.24118145419E+04  0.00000000000E+00 0. -1.
        -24    2    1    2    0    0 -0.50971767873E+03  0.18143434128E+03 -0.14042319530E+04  0.15069858925E+04  0.80053546575E+02 0.  0.
    5000000    2    1    2    0    0  0.50971767873E+03 -0.18143434128E+03 -0.78557039781E+03  0.11268408406E+04  0.59993241112E+03 0.  0.
        -24    2    4    4    0    0  0.45642212448E+03 -0.19269226461E+03 -0.86640346936E+03  0.10013089672E+04  0.80704469933E+02 0.  0.
         24    2    4    4    0    0  0.53295554246E+02  0.11257923328E+02  0.80833071552E+02  0.12553187342E+03  0.79101889025E+02 0.  0.
         11    1    3    3    0    0 -0.17627345505E+03  0.29745362119E+02 -0.40406740628E+03  0.44184565896E+03  0.00000000000E+00 0. -1.
        -12    1    3    3    0    0 -0.33344422368E+03  0.15168897916E+03 -0.10001645467E+04  0.10651402336E+04  0.00000000000E+00 0.  1.
         15    1    5    5    0    0  0.27074967931E+03 -0.10514901922E+03 -0.42831519355E+03  0.51751209439E+03  0.17770000000E+01 0. -1.
        -16    1    5    5    0    0  0.18567244517E+03 -0.87543245386E+02 -0.43808827582E+03  0.48379687279E+03  0.00000000000E+00 0.  1.
          4    1    6    6  502    0 -0.23426843270E+01 -0.26090834339E+02  0.10043444506E+02  0.28055134715E+02  0.00000000000E+00 0. -1.
         -3    1    6    6    0  502  0.55638238573E+02  0.37348757667E+02  0.70789627046E+02  0.97476738703E+02  0.00000000000E+00 0.  1.
<mgrwt>
<rscale>  0 0.56701529E+03</rscale>
<asrwt>0</asrwt>
<pdfrwt beam="1">  1        3 0.37104835E+00 0.56701529E+03</pdfrwt>
<pdfrwt beam="2">  1       -4 0.34155726E-01 0.56701529E+03</pdfrwt>
<totfact> 0.31646228E-01</totfact>
</mgrwt>
</event>
<event>
12    3  0.1182097E-007  0.1646585E+04  0.7818608E-02  0.8792429E-01
          1   -1    0    0  501    0  0.00000000000E+00  0.00000000000E+00  0.12244666115E+04  0.12244666115E+04  0.00000000000E+00 0. -1.
         -2   -1    0    0    0  501 -0.00000000000E+00 -0.00000000000E+00 -0.31143858794E+04  0.31143858794E+04  0.00000000000E+00 0.  1.
        -24    2    1    2    0    0 -0.75717403322E+03 -0.14443371271E+04 -0.20190060278E+04  0.25965361326E+04  0.78691132260E+02 0.  0.
    5000000    2    1    2    0    0  0.75717403322E+03  0.14443371271E+04  0.12908675989E+03  0.17423163584E+04  0.59965043812E+03 0.  0.
        -24    2    4    4    0    0  0.30070120058E+03  0.88114924932E+03  0.32097443446E+03  0.98832088481E+03  0.83116617864E+02 0.  0.
         24    2    4    4    0    0  0.45647283264E+03  0.56318787776E+03 -0.19188767456E+03  0.75399547359E+03  0.78359823623E+02 0.  0.
         13    1    3    3    0    0 -0.60000631715E+03 -0.11749544598E+04 -0.16756371527E+04  0.21326709617E+04  0.00000000000E+00 0. -1.
        -14    1    3    3    0    0 -0.15716771608E+03 -0.26938266728E+03 -0.34336887507E+03  0.46386517090E+03  0.00000000000E+00 0.  1.
         15    1    5    5    0    0  0.45437785775E+02  0.22332215317E+03  0.56830285323E+02  0.23488340838E+03  0.17770000000E+01 0. -1.
        -16    1    5    5    0    0  0.25526341480E+03  0.65782709615E+03  0.26414414913E+03  0.75343747643E+03  0.00000000000E+00 0.  1.
          2    1    6    6  502    0  0.32132408093E+03  0.44537025772E+03 -0.13042349170E+03  0.56445913815E+03  0.00000000000E+00 0. -1.
         -1    1    6    6    0  502  0.13514875172E+03  0.11781762003E+03 -0.61464182861E+02  0.18953633545E+03  0.00000000000E+00 0.  1.
<mgrwt>
<rscale>  0 0.16465847E+04</rscale>
<asrwt>0</asrwt>
<pdfrwt beam="1">  1        1 0.18837948E+00 0.16465847E+04</pdfrwt>
<pdfrwt beam="2">  1       -2 0.47913628E+00 0.16465847E+04</pdfrwt>
<totfact> 0.18610776E-02</totfact>
</mgrwt>
</event>
<event>
12    3  0.1182097E-007  0.3677921E+03  0.7818608E-02  0.1055540E+00
          1   -1    0    0  501    0  0.00000000000E+00  0.00000000000E+00  0.12707983365E+04  0.12707983365E+04  0.00000000000E+00 0. -1.
         -2   -1    0    0    0  501 -0.00000000000E+00 -0.00000000000E+00 -0.31202948723E+03  0.31202948723E+03  0.00000000000E+00 0.  1.
        -24    2    1    2    0    0 -0.20714195260E+02 -0.12394757793E+03  0.95833418085E+03  0.96977229705E+03  0.79131700307E+02 0.  0.
    5000000    2    1    2    0    0  0.20714195260E+02  0.12394757793E+03  0.43466843908E+00  0.61305552670E+03  0.60003734044E+03 0.  0.
        -24    2    4    4    0    0  0.29261446881E+03  0.55907047606E+01 -0.21797327106E+02  0.30424744552E+03  0.80230301633E+02 0.  0.
         24    2    4    4    0    0 -0.27190027355E+03  0.11835687317E+03  0.22231995545E+02  0.30880808118E+03  0.83246989087E+02 0.  0.
         11    1    3    3    0    0 -0.18424709968E+02 -0.26037201265E+02  0.82044950546E+02  0.88027153181E+02  0.00000000000E+00 0. -1.
        -12    1    3    3    0    0 -0.22894852926E+01 -0.97910376669E+02  0.87628923030E+03  0.88174514387E+03  0.00000000000E+00 0.  1.
         15    1    5    5    0    0  0.19117066895E+03 -0.34477843727E+02 -0.96455195515E+01  0.19450228830E+03  0.17770000000E+01 0. -1.
        -16    1    5    5    0    0  0.10144379986E+03  0.40068548488E+02 -0.12151807555E+02  0.10974515723E+03  0.00000000000E+00 0.  1.
          2    1    6    6  502    0 -0.96329302164E+02  0.11822374350E+02 -0.20134407151E+02  0.99118602402E+02  0.00000000000E+00 0. -1.
         -1    1    6    6    0  502 -0.17557097139E+03  0.10653449882E+03  0.42366402696E+02  0.20968947878E+03  0.00000000000E+00 0.  1.
<mgrwt>
<rscale>  0 0.36779212E+03</rscale>
<asrwt>0</asrwt>
<pdfrwt beam="1">  1        1 0.19550743E+00 0.36779212E+03</pdfrwt>
<pdfrwt beam="2">  1       -2 0.48004537E-01 0.36779212E+03</pdfrwt>
<totfact> 0.37110132E+01</totfact>
</mgrwt>
</event>
<event>
12    3  0.1182097E-007  0.4287811E+03  0.7818608E-02  0.1034246E+00
         -2   -1    0    0    0  501 -0.00000000000E+00  0.00000000000E+00  0.16548009818E+04  0.16548009818E+04  0.00000000000E+00 0.  1.
          1   -1    0    0  501    0  0.00000000000E+00 -0.00000000000E+00 -0.16894456891E+03  0.16894456891E+03  0.00000000000E+00 0. -1.
        -24    2    1    2    0    0  0.24617656468E+01 -0.34235174727E+03  0.65222094699E+03  0.74106669240E+03  0.81098087189E+02 0.  0.
    5000000    2    1    2    0    0 -0.24617656468E+01  0.34235174727E+03  0.83363546593E+03  0.10826788583E+04  0.60002886687E+03 0.  0.
        -24    2    4    4    0    0 -0.18771240962E+03  0.21671638992E+03  0.10997537589E+03  0.32108775575E+03  0.93812692143E+02 0.  0.
         24    2    4    4    0    0  0.18525064398E+03  0.12563535736E+03  0.72366009004E+03  0.76159110258E+03  0.78962253665E+02 0.  0.
         13    1    3    3    0    0 -0.23019513756E+02 -0.12051876980E+03  0.16996526634E+03  0.20962553196E+03  0.00000000000E+00 0. -1.
        -14    1    3    3    0    0  0.25481279403E+02 -0.22183297748E+03  0.48225568064E+03  0.53144116044E+03  0.00000000000E+00 0.  1.
         15    1    5    5    0    0 -0.13217986822E+03  0.16785088746E+03  0.12217044899E+03  0.24611829335E+03  0.17770000000E+01 0. -1.
        -16    1    5    5    0    0 -0.55532541402E+02  0.48865502459E+02 -0.12195073108E+02  0.74969462405E+02  0.00000000000E+00 0.  1.
          4    1    6    6  502    0  0.21808545535E+02  0.17620213489E+02  0.20957251881E+03  0.21143964913E+03  0.00000000000E+00 0. -1.
         -3    1    6    6    0  502  0.16344209844E+03  0.10801514387E+03  0.51408757123E+03  0.55015145346E+03  0.00000000000E+00 0.  1.
<mgrwt>
<rscale>  0 0.42878113E+03</rscale>
<asrwt>0</asrwt>
<pdfrwt beam="1">  1        1 0.25991473E-01 0.42878113E+03</pdfrwt>
<pdfrwt beam="2">  1       -2 0.25458476E+00 0.42878113E+03</pdfrwt>
<totfact> 0.10469434E+01</totfact>
</mgrwt>
</event>
<event>
12    3  0.1182097E-007  0.1334477E+04  0.7818608E-02  0.9002663E-01
          1   -1    0    0  501    0  0.00000000000E+00  0.00000000000E+00  0.92582494885E+03  0.92582494885E+03  0.00000000000E+00 0. -1.
         -2   -1    0    0    0  501 -0.00000000000E+00 -0.00000000000E+00 -0.20057501893E+04  0.20057501893E+04  0.00000000000E+00 0.  1.
        -24    2    1    2    0    0 -0.10123687727E+04  0.76568831446E+03 -0.23585964270E+03  0.12934897662E+04  0.79478785558E+02 0.  0.
    5000000    2    1    2    0    0  0.10123687727E+04 -0.76568831446E+03 -0.84406559772E+03  0.16380853719E+04  0.59975647174E+03 0.  0.
        -24    2    4    4    0    0  0.41359247212E+03 -0.67110727778E+03 -0.48777466065E+03  0.93029440303E+03  0.77973363861E+02 0.  0.
         24    2    4    4    0    0  0.59877630063E+03 -0.94581036681E+02 -0.35629093707E+03  0.70779096885E+03  0.80908547429E+02 0.  0.
         13    1    3    3    0    0 -0.10042212299E+04  0.76466676815E+03 -0.23910886710E+03  0.12846589412E+04  0.00000000000E+00 0. -1.
        -14    1    3    3    0    0 -0.81475428536E+01  0.10215463013E+01  0.32492244009E+01  0.88308250240E+01  0.00000000000E+00 0.  1.
         15    1    5    5    0    0  0.23600742118E+03 -0.30882002988E+03 -0.24198304024E+03  0.45785179173E+03  0.17770000000E+01 0. -1.
        -16    1    5    5    0    0  0.17758505094E+03 -0.36228724790E+03 -0.24579162041E+03  0.47244261130E+03  0.00000000000E+00 0.  1.
          4    1    6    6  502    0  0.14104709198E+03 -0.15936261830E+02 -0.12411440638E+03  0.18855405715E+03  0.00000000000E+00 0. -1.
         -3    1    6    6    0  502  0.45772920865E+03 -0.78644774851E+02 -0.23217653069E+03  0.51923691170E+03  0.00000000000E+00 0.  1.
<mgrwt>
<rscale>  0 0.13344768E+04</rscale>
<asrwt>0</asrwt>
<pdfrwt beam="1">  1        1 0.14243461E+00 0.13344768E+04</pdfrwt>
<pdfrwt beam="2">  1       -2 0.30857695E+00 0.13344768E+04</pdfrwt>
<totfact> 0.41378084E-01</totfact>
</mgrwt>
</event>
<event>
12    3  0.1182097E-007  0.1432379E+04  0.7818608E-02  0.8930709E-01
          1   -1    0    0  501    0  0.00000000000E+00  0.00000000000E+00  0.86553711878E+03  0.86553711878E+03  0.00000000000E+00 0. -1.
         -2   -1    0    0    0  501 -0.00000000000E+00 -0.00000000000E+00 -0.28117932435E+04  0.28117932435E+04  0.00000000000E+00 0.  1.
        -24    2    1    2    0    0  0.58063201173E+03 -0.12568546409E+04 -0.25347936677E+03  0.14096705945E+04  0.78117054388E+02 0.  0.
    5000000    2    1    2    0    0 -0.58063201173E+03  0.12568546409E+04 -0.16927767580E+04  0.22676597678E+04  0.59997545664E+03 0.  0.
        -24    2    4    4    0    0 -0.36484190105E+03  0.11873942578E+04 -0.15443673436E+04  0.19835772724E+04  0.80582673164E+02 0.  0.
         24    2    4    4    0    0 -0.21579011069E+03  0.69460383187E+02 -0.14840941435E+03  0.28408249544E+03  0.85366230097E+02 0.  0.
         13    1    3    3    0    0  0.48600682392E+03 -0.11115118828E+04 -0.21508399843E+03  0.12320399445E+04  0.00000000000E+00 0. -1.
        -14    1    3    3    0    0  0.94625187816E+02 -0.14534275815E+03 -0.38395368347E+02  0.17763065002E+03  0.00000000000E+00 0.  1.
         15    1    5    5    0    0 -0.95385417890E+02  0.39129734261E+03 -0.45437959135E+03  0.60718692266E+03  0.17770000000E+01 0. -1.
        -16    1    5    5    0    0 -0.26945648316E+03  0.79609691515E+03 -0.10899877523E+04  0.13763903497E+04  0.00000000000E+00 0.  1.
          2    1    6    6  502    0 -0.20584937154E+03  0.79675342551E+02 -0.11752695199E+03  0.25006940720E+03  0.00000000000E+00 0. -1.
         -1    1    6    6    0  502 -0.99407391478E+01 -0.10214959364E+02 -0.30882462362E+02  0.34013088233E+02  0.00000000000E+00 0.  1.
<mgrwt>
<rscale>  0 0.14323791E+04</rscale>
<asrwt>0</asrwt>
<pdfrwt beam="1">  1        1 0.13315955E+00 0.14323791E+04</pdfrwt>
<pdfrwt beam="2">  1       -2 0.43258359E+00 0.14323791E+04</pdfrwt>
<totfact> 0.74029886E-02</totfact>
</mgrwt>
</event>
<event>
12    3  0.1182097E-007  0.7406901E+03  0.7818608E-02  0.9650070E-01
         -2   -1    0    0    0  501 -0.00000000000E+00  0.00000000000E+00  0.46822185807E+03  0.46822185807E+03  0.00000000000E+00 0.  1.
          1   -1    0    0  501    0  0.00000000000E+00 -0.00000000000E+00 -0.15289976667E+04  0.15289976667E+04  0.00000000000E+00 0. -1.
        -24    2    1    2    0    0 -0.60499235700E+03 -0.41740409590E+03 -0.40323907348E+03  0.84283475132E+03  0.86756765393E+02 0.  0.
    5000000    2    1    2    0    0  0.60499235700E+03  0.41740409590E+03 -0.65753673517E+03  0.11543847735E+04  0.60000642981E+03 0.  0.
        -24    2    4    4    0    0  0.42419523470E+03  0.30463120139E+03 -0.81170643303E+02  0.53466501969E+03  0.80847040414E+02 0.  0.
         24    2    4    4    0    0  0.18079712231E+03  0.11277289451E+03 -0.57636609187E+03  0.61971975378E+03  0.80308008328E+02 0.  0.
         11    1    3    3    0    0 -0.38172422147E+03 -0.31017104964E+03 -0.28378124411E+03  0.56784791608E+03  0.00000000000E+00 0. -1.
        -12    1    3    3    0    0 -0.22326813553E+03 -0.10723304627E+03 -0.11945782937E+03  0.27498683524E+03  0.00000000000E+00 0.  1.
         15    1    5    5    0    0  0.12928653377E+03  0.14023825168E+03 -0.24672749225E+02  0.19233740492E+03  0.17770000000E+01 0. -1.
        -16    1    5    5    0    0  0.29490870093E+03  0.16439294971E+03 -0.56497894078E+02  0.34232761477E+03  0.00000000000E+00 0.  1.
          4    1    6    6  502    0  0.13464812030E+03  0.90359656832E+02 -0.32542885470E+03  0.36359169869E+03  0.00000000000E+00 0. -1.
         -3    1    6    6    0  502  0.46149002009E+02  0.22413237682E+02 -0.25093723717E+03  0.25612805510E+03  0.00000000000E+00 0.  1.
<mgrwt>
<rscale>  0 0.74069011E+03</rscale>
<asrwt>0</asrwt>
<pdfrwt beam="1">  1        1 0.23523041E+00 0.74069011E+03</pdfrwt>
<pdfrwt beam="2">  1       -2 0.72034131E-01 0.74069011E+03</pdfrwt>
<totfact> 0.98945639E+00</totfact>
</mgrwt>
</event>
<event>
12    3  0.1182097E-007  0.8714996E+03  0.7818608E-02  0.9461927E-01
          1   -1    0    0  501    0  0.00000000000E+00  0.00000000000E+00  0.17280962589E+04  0.17280962589E+04  0.00000000000E+00 0. -1.
         -2   -1    0    0    0  501 -0.00000000000E+00 -0.00000000000E+00 -0.55976010486E+03  0.55976010486E+03  0.00000000000E+00 0.  1.
        -24    2    1    2    0    0 -0.62557947689E+03  0.46648280874E+03  0.10290157317E+04  0.12938034192E+04  0.78089812243E+02 0.  0.
    5000000    2    1    2    0    0  0.62557947689E+03 -0.46648280874E+03  0.13932042238E+03  0.99405294457E+03  0.59981262386E+03 0.  0.
        -24    2    4    4    0    0  0.48762091346E+02 -0.36457763749E+03  0.14338879023E+03  0.40293439359E+03  0.80629926637E+02 0.  0.
         24    2    4    4    0    0  0.57681738555E+03 -0.10190517126E+03 -0.40683678523E+01  0.59111855097E+03  0.79382803457E+02 0.  0.
         13    1    3    3    0    0 -0.46127215346E+03  0.33348371600E+03  0.80376121767E+03  0.98489364067E+03  0.00000000000E+00 0. -1.
        -14    1    3    3    0    0 -0.16430732343E+03  0.13299909274E+03  0.22525451402E+03  0.30890977856E+03  0.00000000000E+00 0.  1.
         15    1    5    5    0    0  0.52238976121E+02 -0.13323548075E+03  0.34486646152E+02  0.14721783333E+03  0.17770000000E+01 0. -1.
        -16    1    5    5    0    0 -0.34768847753E+01 -0.23134215673E+03  0.10890214408E+03  0.25571656027E+03  0.00000000000E+00 0.  1.
          2    1    6    6  502    0  0.36651599422E+02 -0.19477515901E+02 -0.16226250742E+02  0.44564611285E+02  0.00000000000E+00 0. -1.
         -3    1    6    6    0  502  0.54016578613E+03 -0.82427655356E+02  0.12157882890E+02  0.54655393969E+03  0.00000000000E+00 0.  1.
<mgrwt>
<rscale>  0 0.87149963E+03</rscale>
<asrwt>0</asrwt>
<pdfrwt beam="1">  1        1 0.26586096E+00 0.87149963E+03</pdfrwt>
<pdfrwt beam="2">  1       -2 0.86116940E-01 0.87149963E+03</pdfrwt>
<totfact> 0.47734628E+00</totfact>
</mgrwt>
</event>
<event>
12    3  0.1182097E-007  0.6157128E+03  0.7818608E-02  0.9873333E-01
         -2   -1    0    0    0  501 -0.00000000000E+00  0.00000000000E+00  0.25640856977E+03  0.25640856977E+03  0.00000000000E+00 0.  1.
          1   -1    0    0  501    0  0.00000000000E+00 -0.00000000000E+00 -0.20734241588E+04  0.20734241588E+04  0.00000000000E+00 0. -1.
        -24    2    1    2    0    0  0.43332695431E+02  0.60211832100E+03 -0.76342203352E+03  0.97546403863E+03  0.65518656999E+02 0.  0.
    5000000    2    1    2    0    0 -0.43332695431E+02 -0.60211832100E+03 -0.10535935555E+04  0.13543686900E+04  0.59985912775E+03 0.  0.
        -24    2    4    4    0    0 -0.35102112207E+02 -0.38212107770E+02  0.53274824293E+02  0.10944670572E+03  0.80299757340E+02 0.  0.
         24    2    4    4    0    0 -0.82305832232E+01 -0.56390621323E+03 -0.11068683798E+04  0.12449219843E+04  0.81333737089E+02 0.  0.
         11    1    3    3    0    0  0.25714374195E+02  0.29749447858E+03 -0.42979912347E+03  0.52334642481E+03  0.00000000000E+00 0. -1.
        -12    1    3    3    0    0  0.17618321235E+02  0.30462384242E+03 -0.33362291004E+03  0.45211761381E+03  0.00000000000E+00 0.  1.
         15    1    5    5    0    0 -0.44427079473E+01 -0.23494967114E+02  0.68211104705E+02  0.72302584101E+02  0.17770000000E+01 0. -1.
        -16    1    5    5    0    0 -0.30659404260E+02 -0.14717140656E+02 -0.14936280412E+02  0.37144121624E+02  0.00000000000E+00 0.  1.
          2    1    6    6  502    0  0.22147248342E+02 -0.47924738017E+03 -0.92356393678E+03  0.10407395915E+04  0.00000000000E+00 0. -1.
         -3    1    6    6    0  502 -0.30377831565E+02 -0.84658833061E+02 -0.18330444305E+03  0.20418239275E+03  0.00000000000E+00 0.  1.
<mgrwt>
<rscale>  0 0.61571276E+03</rscale>
<asrwt>0</asrwt>
<pdfrwt beam="1">  1        1 0.31898833E+00 0.61571276E+03</pdfrwt>
<pdfrwt beam="2">  1       -2 0.39447472E-01 0.61571276E+03</pdfrwt>
<totfact> 0.15068979E+01</totfact>
</mgrwt>
</event>
<event>
12    3  0.1182097E-007  0.7467540E+03  0.7818608E-02  0.9640457E-01
          1   -1    0    0  501    0  0.00000000000E+00  0.00000000000E+00  0.87011142892E+03  0.87011142892E+03  0.00000000000E+00 0. -1.
         -2   -1    0    0    0  501 -0.00000000000E+00 -0.00000000000E+00 -0.85708931394E+03  0.85708931394E+03  0.00000000000E+00 0.  1.
        -24    2    1    2    0    0 -0.44596772843E+03  0.55802910596E+03 -0.24476650812E+03  0.75935890920E+03  0.80197329088E+02 0.  0.
    5000000    2    1    2    0    0  0.44596772843E+03 -0.55802910596E+03  0.25778862310E+03  0.96784183366E+03  0.59998261881E+03 0.  0.
        -24    2    4    4    0    0  0.45722625824E+03 -0.50183619304E+03  0.40230887157E+03  0.79302587951E+03  0.78372198946E+02 0.  0.
         24    2    4    4    0    0 -0.11258529806E+02 -0.56192912920E+02 -0.14452024846E+03  0.17481595415E+03  0.79938211469E+02 0.  0.
         11    1    3    3    0    0 -0.28452510124E+03  0.33107561501E+03 -0.18705108810E+03  0.47492494738E+03  0.00000000000E+00 0. -1.
        -12    1    3    3    0    0 -0.16144262719E+03  0.22695349095E+03 -0.57715420020E+02  0.28443396182E+03  0.00000000000E+00 0.  1.
         15    1    5    5    0    0  0.15547212678E+03 -0.20240221682E+03  0.18771595028E+03  0.31682593849E+03  0.17770000000E+01 0. -1.
        -16    1    5    5    0    0  0.30175413146E+03 -0.29943397622E+03  0.21459292129E+03  0.47619994102E+03  0.00000000000E+00 0.  1.
          4    1    6    6  502    0 -0.43034512691E+02 -0.13912205441E+02 -0.72747523294E+02  0.85660497828E+02  0.00000000000E+00 0. -1.
         -3    1    6    6    0  502  0.31775982886E+02 -0.42280707479E+02 -0.71772725169E+02  0.89155456320E+02  0.00000000000E+00 0.  1.
<mgrwt>
<rscale>  0 0.74675404E+03</rscale>
<asrwt>0</asrwt>
<pdfrwt beam="1">  1        1 0.13386330E+00 0.74675404E+03</pdfrwt>
<pdfrwt beam="2">  1       -2 0.13185990E+00 0.74675404E+03</pdfrwt>
<totfact> 0.72381935E+00</totfact>
</mgrwt>
</event>
<event>
12    3  0.1182097E-007  0.3943583E+03  0.7818608E-02  0.1045751E+00
          1   -1    0    0  501    0  0.00000000000E+00  0.00000000000E+00  0.15496482897E+04  0.15496482897E+04  0.00000000000E+00 0. -1.
         -2   -1    0    0    0  501 -0.00000000000E+00 -0.00000000000E+00 -0.22690498704E+03  0.22690498704E+03  0.00000000000E+00 0.  1.
        -24    2    1    2    0    0 -0.70415561698E+02 -0.31965746681E+03  0.92810651767E+03  0.98733614798E+03  0.79446293407E+02 0.  0.
    5000000    2    1    2    0    0  0.70415561698E+02  0.31965746681E+03  0.39463678503E+03  0.78921712880E+03  0.59998853062E+03 0.  0.
        -24    2    4    4    0    0  0.47866187981E+02 -0.44389843618E+02  0.40125369974E+03  0.41425992566E+03  0.79656288455E+02 0.  0.
         24    2    4    4    0    0  0.22549373717E+02  0.36404731043E+03 -0.66169147029E+01  0.37495720314E+03  0.86661422440E+02 0.  0.
         11    1    3    3    0    0 -0.23693557410E+02 -0.10674963922E+03  0.20839989291E+03  0.23534524746E+03  0.00000000000E+00 0. -1.
        -12    1    3    3    0    0 -0.46722004289E+02 -0.21290782759E+03  0.71970662476E+03  0.75199090052E+03  0.00000000000E+00 0.  1.
         15    1    5    5    0    0  0.65632059037E+01 -0.50199982019E+02  0.12499643101E+03  0.13487171445E+03  0.17770000000E+01 0. -1.
        -16    1    5    5    0    0  0.41302982077E+02  0.58101384010E+01  0.27625726873E+03  0.27938821121E+03  0.00000000000E+00 0.  1.
          2    1    6    6  502    0 -0.39495390947E+01  0.29564380634E+03 -0.31852582798E+02  0.29738097806E+03  0.00000000000E+00 0. -1.
         -1    1    6    6    0  502  0.26498912812E+02  0.68403504096E+02  0.25235668095E+02  0.77576225076E+02  0.00000000000E+00 0.  1.
<mgrwt>
<rscale>  0 0.39435831E+03</rscale>
<asrwt>0</asrwt>
<pdfrwt beam="1">  1        1 0.23840742E+00 0.39435831E+03</pdfrwt>
<pdfrwt beam="2">  1       -2 0.34908461E-01 0.39435831E+03</pdfrwt>
<totfact> 0.44207050E+01</totfact>
</mgrwt>
</event>
<event>
12    3  0.1182097E-007  0.4029888E+03  0.7818608E-02  0.1042750E+00
          1   -1    0    0  501    0  0.00000000000E+00  0.00000000000E+00  0.94088158997E+03  0.94088158997E+03  0.00000000000E+00 0. -1.
         -2   -1    0    0    0  501 -0.00000000000E+00 -0.00000000000E+00 -0.43221569268E+03  0.43221569268E+03  0.00000000000E+00 0.  1.
        -24    2    1    2    0    0 -0.12492157073E+02  0.38258779445E+03 -0.13522714384E+03  0.41333693179E+03  0.77663146330E+02 0.  0.
    5000000    2    1    2    0    0  0.12492157073E+02 -0.38258779445E+03  0.64389304113E+03  0.95976035087E+03  0.60001017344E+03 0.  0.
        -24    2    4    4    0    0 -0.28880555582E+02 -0.15373153296E+03 -0.81940124428E+02  0.19387697062E+03  0.80041395702E+02 0.  0.
         24    2    4    4    0    0  0.41372712655E+02 -0.22885626149E+03  0.72583316556E+03  0.76588338025E+03  0.75210891128E+02 0.  0.
         13    1    3    3    0    0 -0.41805104273E+02  0.25701748124E+03 -0.10584725773E+03  0.28108591992E+03  0.00000000000E+00 0. -1.
        -14    1    3    3    0    0  0.29312947200E+02  0.12557031321E+03 -0.29379886111E+02  0.13225101187E+03  0.00000000000E+00 0.  1.
         15    1    5    5    0    0  0.86618253695E+01 -0.13187254809E+03 -0.58835847069E+02  0.14467277141E+03  0.17770000000E+01 0. -1.
        -16    1    5    5    0    0 -0.37542380951E+02 -0.21858984875E+02 -0.23104277358E+02  0.49204199206E+02  0.00000000000E+00 0.  1.
          4    1    6    6  502    0  0.23386984457E+02 -0.18283985628E+02  0.13954171052E+03  0.14266444598E+03  0.00000000000E+00 0. -1.
         -3    1    6    6    0  502  0.17985728198E+02 -0.21057227586E+03  0.58629145504E+03  0.62321893427E+03  0.00000000000E+00 0.  1.
<mgrwt>
<rscale>  0 0.40298877E+03</rscale>
<asrwt>0</asrwt>
<pdfrwt beam="1">  1        1 0.14475101E+00 0.40298877E+03</pdfrwt>
<pdfrwt beam="2">  1       -2 0.66494722E-01 0.40298877E+03</pdfrwt>
<totfact> 0.32804751E+01</totfact>
</mgrwt>
</event>
<event>
12    3  0.1182097E-007  0.5050164E+03  0.7818608E-02  0.1012478E+00
          1   -1    0    0  501    0  0.00000000000E+00  0.00000000000E+00  0.15733182162E+04  0.15733182162E+04  0.00000000000E+00 0. -1.
         -2   -1    0    0    0  501 -0.00000000000E+00 -0.00000000000E+00 -0.18411916310E+03  0.18411916310E+03  0.00000000000E+00 0.  1.
        -24    2    1    2    0    0 -0.19365663247E+03  0.29102984881E+03  0.65578827384E+03  0.74744965440E+03  0.80134022544E+02 0.  0.
    5000000    2    1    2    0    0  0.19365663247E+03 -0.29102984881E+03  0.73341077921E+03  0.10099877248E+04  0.59998547405E+03 0.  0.
        -24    2    4    4    0    0  0.38303129926E+03 -0.12893698184E+03  0.56414503163E+03  0.69842597851E+03  0.78749661909E+02 0.  0.
         24    2    4    4    0    0 -0.18937466679E+03 -0.16209286697E+03  0.16926574758E+03  0.31156174633E+03  0.79265165939E+02 0.  0.
         11    1    3    3    0    0 -0.78074771754E+02  0.13335242938E+03  0.37219834477E+03  0.40300142463E+03  0.00000000000E+00 0. -1.
        -12    1    3    3    0    0 -0.11558186072E+03  0.15767741943E+03  0.28358992906E+03  0.34444822977E+03  0.00000000000E+00 0.  1.
         15    1    5    5    0    0  0.16716885504E+03 -0.23733785767E+02  0.19379286313E+03  0.25703608737E+03  0.17770000000E+01 0. -1.
        -16    1    5    5    0    0  0.21586244421E+03 -0.10520319608E+03  0.37035216850E+03  0.44138989114E+03  0.00000000000E+00 0.  1.
          2    1    6    6  502    0 -0.12133593772E+03 -0.12188398616E+03  0.72542596492E+02  0.18665621921E+03  0.00000000000E+00 0. -1.
         -1    1    6    6    0  502 -0.68038729071E+02 -0.40208880810E+02  0.96723151092E+02  0.12490552713E+03  0.00000000000E+00 0.  1.
<mgrwt>
<rscale>  0 0.50501641E+03</rscale>
<asrwt>0</asrwt>
<pdfrwt beam="1">  1        1 0.24204895E+00 0.50501641E+03</pdfrwt>
<pdfrwt beam="2">  1       -2 0.28326026E-01 0.50501641E+03</pdfrwt>
<totfact> 0.61587257E+01</totfact>
</mgrwt>
</event>
<event>
12    3  0.1182097E-007  0.6779385E+03  0.7818608E-02  0.9755722E-01
          1   -1    0    0  501    0  0.00000000000E+00  0.00000000000E+00  0.53587625114E+03  0.53587625114E+03  0.00000000000E+00 0. -1.
         -2   -1    0    0    0  501 -0.00000000000E+00 -0.00000000000E+00 -0.13107880758E+04  0.13107880758E+04  0.00000000000E+00 0.  1.
        -24    2    1    2    0    0 -0.18967732902E+03  0.60421296563E+03  0.58192445185E+02  0.64041619584E+03  0.75470167884E+02 0.  0.
    5000000    2    1    2    0    0  0.18967732902E+03 -0.60421296563E+03 -0.83310426983E+03  0.12062481311E+04  0.59993419004E+03 0.  0.
        -24    2    4    4    0    0  0.24596494183E+03 -0.24127455153E+03 -0.73809965787E+03  0.81853942710E+03  0.80644447658E+02 0.  0.
         24    2    4    4    0    0 -0.56287612815E+02 -0.36293841410E+03 -0.95004611955E+02  0.38770870399E+03  0.79997344171E+02 0.  0.
         11    1    3    3    0    0 -0.72355328110E+02  0.18170044536E+03 -0.13729111785E+02  0.19605824099E+03  0.00000000000E+00 0. -1.
        -12    1    3    3    0    0 -0.11732200091E+03  0.42251252027E+03  0.71921556970E+02  0.44435795485E+03  0.00000000000E+00 0.  1.
         15    1    5    5    0    0  0.20281141591E+03 -0.21520226555E+03 -0.68059096861E+03  0.74205910129E+03  0.17770000000E+01 0. -1.
        -16    1    5    5    0    0  0.43153525918E+02 -0.26072285975E+02 -0.57508689260E+02  0.76480325807E+02  0.00000000000E+00 0.  1.
          4    1    6    6  502    0 -0.50951426900E+02 -0.36599057719E+03 -0.91695397873E+02  0.38072719431E+03  0.00000000000E+00 0. -1.
         -3    1    6    6    0  502 -0.53361859153E+01  0.30521630900E+01 -0.33092140825E+01  0.69815096859E+01  0.00000000000E+00 0.  1.
<mgrwt>
<rscale>  0 0.67793853E+03</rscale>
<asrwt>0</asrwt>
<pdfrwt beam="1">  1        1 0.82442501E-01 0.67793853E+03</pdfrwt>
<pdfrwt beam="2">  1       -2 0.20165970E+00 0.67793853E+03</pdfrwt>
<totfact> 0.47309205E+00</totfact>
</mgrwt>
</event>
<event>
12    3  0.1182097E-007  0.9190021E+03  0.7818608E-02  0.9402135E-01
          1   -1    0    0  501    0  0.00000000000E+00  0.00000000000E+00  0.30167146848E+04  0.30167146848E+04  0.00000000000E+00 0. -1.
         -2   -1    0    0    0  501 -0.00000000000E+00 -0.00000000000E+00 -0.30899007826E+03  0.30899007826E+03  0.00000000000E+00 0.  1.
        -24    2    1    2    0    0  0.51312803954E+02 -0.86853518308E+03  0.12108571982E+04  0.14933376058E+04  0.83040246849E+02 0.  0.
    5000000    2    1    2    0    0 -0.51312803954E+02  0.86853518308E+03  0.14968674084E+04  0.18323671572E+04  0.59997582653E+03 0.  0.
        -24    2    4    4    0    0  0.12795541191E+03  0.91337830389E+02  0.62063931364E+03  0.64521182734E+03  0.79937211637E+02 0.  0.
         24    2    4    4    0    0 -0.17926821586E+03  0.77719735269E+03  0.87622809472E+03  0.11871553298E+04  0.73411749496E+02 0.  0.
         11    1    3    3    0    0  0.71591614109E+02 -0.71441119210E+03  0.10153368765E+04  0.12435504346E+04  0.00000000000E+00 0. -1.
        -12    1    3    3    0    0 -0.20278810155E+02 -0.15412399098E+03  0.19552032164E+03  0.24978717123E+03  0.00000000000E+00 0.  1.
         15    1    5    5    0    0  0.13112960221E+03  0.84374985260E+02  0.48707985558E+03  0.51143333305E+03  0.17770000000E+01 0. -1.
        -16    1    5    5    0    0 -0.31741903078E+01  0.69628451289E+01  0.13355945806E+03  0.13377849428E+03  0.00000000000E+00 0.  1.
          2    1    6    6  502    0 -0.33941855936E+02  0.30585962505E+03  0.33454356571E+03  0.45455644003E+03  0.00000000000E+00 0. -1.
         -1    1    6    6    0  502 -0.14532635992E+03  0.47133772765E+03  0.54168452901E+03  0.73259888981E+03  0.00000000000E+00 0.  1.
<mgrwt>
<rscale>  0 0.91900213E+03</rscale>
<asrwt>0</asrwt>
<pdfrwt beam="1">  1        1 0.46410993E+00 0.91900213E+03</pdfrwt>
<pdfrwt beam="2">  1       -2 0.47536937E-01 0.91900213E+03</pdfrwt>
<totfact> 0.22230372E+00</totfact>
</mgrwt>
</event>
<event>
12    3  0.1182097E-007  0.4217378E+03  0.7818608E-02  0.1036502E+00
          1   -1    0    0  501    0  0.00000000000E+00  0.00000000000E+00  0.16572921614E+04  0.16572921614E+04  0.00000000000E+00 0. -1.
         -2   -1    0    0    0  501 -0.00000000000E+00 -0.00000000000E+00 -0.12729209279E+03  0.12729209279E+03  0.00000000000E+00 0.  1.
        -24    2    1    2    0    0 -0.19828243158E+03  0.15307474643E+03  0.53124650424E+03  0.59291362080E+03  0.81092002077E+02 0.  0.
    5000000    2    1    2    0    0  0.19828243158E+03 -0.15307474643E+03  0.99875356438E+03  0.11916706334E+04  0.59985199464E+03 0.  0.
        -24    2    4    4    0    0 -0.35079565352E+02 -0.29866032574E+03  0.75082468168E+03  0.81295344130E+03  0.82018467516E+02 0.  0.
         24    2    4    4    0    0  0.23336199693E+03  0.14558557931E+03  0.24792888270E+03  0.37871719210E+03  0.79404018811E+02 0.  0.
         13    1    3    3    0    0 -0.17234410774E+03  0.11707245912E+03  0.35933154794E+03  0.41536443456E+03  0.00000000000E+00 0. -1.
        -14    1    3    3    0    0 -0.25938323846E+02  0.36002287309E+02  0.17191495630E+03  0.17754918624E+03  0.00000000000E+00 0.  1.
         15    1    5    5    0    0  0.11828735622E+02 -0.11512937735E+03  0.20817692754E+03  0.23819211449E+03  0.17770000000E+01 0. -1.
        -16    1    5    5    0    0 -0.46908300974E+02 -0.18353094839E+03  0.54264775415E+03  0.57476132681E+03  0.00000000000E+00 0.  1.
          2    1    6    6  502    0  0.73886029181E+02  0.68566309987E+01  0.53040465479E+02  0.91211017290E+02  0.00000000000E+00 0. -1.
         -1    1    6    6    0  502  0.15947596775E+03  0.13872894831E+03  0.19488841722E+03  0.28750617481E+03  0.00000000000E+00 0.  1.
<mgrwt>
<rscale>  0 0.42173783E+03</rscale>
<asrwt>0</asrwt>
<pdfrwt beam="1">  1        1 0.25496801E+00 0.42173783E+03</pdfrwt>
<pdfrwt beam="2">  1       -2 0.19583400E-01 0.42173783E+03</pdfrwt>
<totfact> 0.10557622E+02</totfact>
</mgrwt>
</event>
<event>
12    3  0.1182097E-007  0.3820854E+03  0.7818608E-02  0.1050166E+00
          1   -1    0    0  501    0  0.00000000000E+00  0.00000000000E+00  0.14499497870E+04  0.14499497870E+04  0.00000000000E+00 0. -1.
         -2   -1    0    0    0  501 -0.00000000000E+00 -0.00000000000E+00 -0.12768748185E+03  0.12768748185E+03  0.00000000000E+00 0.  1.
        -24    2    1    2    0    0 -0.12604951099E+03 -0.94838161862E+02  0.85670790829E+02  0.19418255603E+03  0.74058250715E+02 0.  0.
    5000000    2    1    2    0    0  0.12604951099E+03  0.94838161862E+02  0.12365915144E+04  0.13834547129E+04  0.59992133900E+03 0.  0.
        -24    2    4    4    0    0  0.23227921019E+03  0.28732347464E+03  0.86876238629E+03  0.94750557357E+03  0.80686538914E+02 0.  0.
         24    2    4    4    0    0 -0.10622969919E+03 -0.19248531278E+03  0.36782912807E+03  0.43594913929E+03  0.80112670438E+02 0.  0.
         13    1    3    3    0    0 -0.79020821357E+02 -0.88817067189E+02  0.33128818460E+02  0.12341102157E+03  0.00000000000E+00 0. -1.
        -14    1    3    3    0    0 -0.47028689636E+02 -0.60210946730E+01  0.52541972369E+02  0.70771534464E+02  0.00000000000E+00 0.  1.
         15    1    5    5    0    0  0.15576821205E+03  0.23656257834E+03  0.60013243842E+03  0.66361712661E+03  0.17770000000E+01 0. -1.
        -16    1    5    5    0    0  0.76510998137E+02  0.50760896302E+02  0.26862994786E+03  0.28388844696E+03  0.00000000000E+00 0.  1.
          4    1    6    6  502    0 -0.10003310746E+03 -0.15271026976E+03  0.34326811873E+03  0.38879306889E+03  0.00000000000E+00 0. -1.
         -3    1    6    6    0  502 -0.61965917343E+01 -0.39775043015E+02  0.24561009341E+02  0.47156070402E+02  0.00000000000E+00 0.  1.
<mgrwt>
<rscale>  0 0.38208538E+03</rscale>
<asrwt>0</asrwt>
<pdfrwt beam="1">  1        1 0.22306919E+00 0.38208538E+03</pdfrwt>
<pdfrwt beam="2">  1       -2 0.19644229E-01 0.38208538E+03</pdfrwt>
<totfact> 0.14542288E+02</totfact>
</mgrwt>
</event>
<event>
12    3  0.1182097E-007  0.1441700E+04  0.7818608E-02  0.8924175E-01
         -2   -1    0    0    0  501 -0.00000000000E+00  0.00000000000E+00  0.10391884853E+04  0.10391884853E+04  0.00000000000E+00 0.  1.
          1   -1    0    0  501    0  0.00000000000E+00 -0.00000000000E+00 -0.20128407118E+04  0.20128407118E+04  0.00000000000E+00 0. -1.
        -24    2    1    2    0    0  0.26615431534E+03  0.13571039947E+04 -0.47856790222E+03  0.14655307340E+04  0.78636651944E+02 0.  0.
    5000000    2    1    2    0    0 -0.26615431534E+03 -0.13571039947E+04 -0.49508432426E+03  0.15864984632E+04  0.59941597704E+03 0.  0.
        -24    2    4    4    0    0 -0.81951390042E+02 -0.12897223181E+04 -0.40830933189E+03  0.13576095878E+04  0.79294351645E+02 0.  0.
         24    2    4    4    0    0 -0.18420292530E+03 -0.67381676635E+02 -0.86774992374E+02  0.22888887542E+03  0.79932533783E+02 0.  0.
         11    1    3    3    0    0  0.18636382609E+01  0.12604332017E+03 -0.45974956731E+02  0.13417931417E+03  0.00000000000E+00 0. -1.
        -12    1    3    3    0    0  0.26429067708E+03  0.12310606746E+04 -0.43259294549E+03  0.13313514198E+04  0.00000000000E+00 0.  1.
         15    1    5    5    0    0 -0.47903665504E+02 -0.10898591388E+04 -0.32374103571E+03  0.11379363425E+04  0.17770000000E+01 0. -1.
        -16    1    5    5    0    0 -0.34047724537E+02 -0.19986317930E+03 -0.84568296180E+02  0.21967324531E+03  0.00000000000E+00 0.  1.
          4    1    6    6  502    0 -0.58663900291E+02  0.63179104323E+01 -0.53307575672E+02  0.79517713835E+02  0.00000000000E+00 0. -1.
         -3    1    6    6    0  502 -0.12553902501E+03 -0.73699587068E+02 -0.33467416702E+02  0.14937116159E+03  0.00000000000E+00 0.  1.
<mgrwt>
<rscale>  0 0.14417000E+04</rscale>
<asrwt>0</asrwt>
<pdfrwt beam="1">  1        1 0.30966780E+00 0.14417000E+04</pdfrwt>
<pdfrwt beam="2">  1       -2 0.15987515E+00 0.14417000E+04</pdfrwt>
<totfact> 0.61499988E-01</totfact>
</mgrwt>
</event>
<event>
12    3  0.1182097E-007  0.6630739E+03  0.7818608E-02  0.9782552E-01
         -2   -1    0    0    0  501 -0.00000000000E+00  0.00000000000E+00  0.36671087667E+03  0.36671087667E+03  0.00000000000E+00 0.  1.
          1   -1    0    0  501    0  0.00000000000E+00 -0.00000000000E+00 -0.13591187181E+04  0.13591187181E+04  0.00000000000E+00 0. -1.
        -24    2    1    2    0    0  0.46663434671E+03 -0.32803328477E+03 -0.31737798937E+03  0.65763599257E+03  0.80017880144E+02 0.  0.
    5000000    2    1    2    0    0 -0.46663434671E+03  0.32803328477E+03 -0.67502985202E+03  0.10681936022E+04  0.60001568405E+03 0.  0.
        -24    2    4    4    0    0 -0.55914337170E+03  0.23174167212E+03 -0.67854917558E+03  0.91313858302E+03  0.83949838603E+02 0.  0.
         24    2    4    4    0    0  0.92509024988E+02  0.96291612651E+02  0.35193235637E+01  0.15505501913E+03  0.78738040036E+02 0.  0.
         11    1    3    3    0    0  0.28977092503E+03 -0.19962703849E+03 -0.23934238811E+03  0.42556189002E+03  0.00000000000E+00 0. -1.
        -12    1    3    3    0    0  0.17686342168E+03 -0.12840624629E+03 -0.78035601260E+02  0.23207410256E+03  0.00000000000E+00 0.  1.
         15    1    5    5    0    0 -0.32924225752E+03  0.17656681653E+03 -0.44108569177E+03  0.57804502424E+03  0.17770000000E+01 0. -1.
        -16    1    5    5    0    0 -0.22990111418E+03  0.55174855592E+02 -0.23746348382E+03  0.33509355878E+03  0.00000000000E+00 0.  1.
          2    1    6    6  502    0  0.94703764552E+02  0.10222436118E+03 -0.10427893343E+02  0.13974034492E+03  0.00000000000E+00 0. -1.
         -1    1    6    6    0  502 -0.21947395635E+01 -0.59327485262E+01  0.13947216907E+02  0.15314674214E+02  0.00000000000E+00 0.  1.
<mgrwt>
<rscale>  0 0.66307393E+03</rscale>
<asrwt>0</asrwt>
<pdfrwt beam="1">  1        1 0.20909518E+00 0.66307393E+03</pdfrwt>
<pdfrwt beam="2">  1       -2 0.56417059E-01 0.66307393E+03</pdfrwt>
<totfact> 0.22070865E+01</totfact>
</mgrwt>
</event>
<event>
12    3  0.1182097E-007  0.1212490E+04  0.7818608E-02  0.9101994E-01
          1   -1    0    0  501    0  0.00000000000E+00  0.00000000000E+00  0.22856247536E+04  0.22856247536E+04  0.00000000000E+00 0. -1.
         -2   -1    0    0    0  501 -0.00000000000E+00 -0.00000000000E+00 -0.69937643234E+03  0.69937643234E+03  0.00000000000E+00 0.  1.
        -24    2    1    2    0    0  0.43316771285E+03  0.11017218804E+04  0.58580406102E+03  0.13231246145E+04  0.77890811317E+02 0.  0.
    5000000    2    1    2    0    0 -0.43316771285E+03 -0.11017218804E+04  0.10004442603E+04  0.16618765714E+04  0.59959957615E+03 0.  0.
        -24    2    4    4    0    0 -0.35697516578E+03 -0.11036282073E+04  0.73610283443E+03  0.13760054021E+04  0.78211219878E+02 0.  0.
         24    2    4    4    0    0 -0.76192547070E+02  0.19063269552E+01  0.26434142582E+03  0.28587116929E+03  0.77698119144E+02 0.  0.
         13    1    3    3    0    0  0.40532500175E+03  0.96708219922E+03  0.52733846817E+03  0.11737215160E+04  0.00000000000E+00 0. -1.
        -14    1    3    3    0    0  0.27842711105E+02  0.13463968114E+03  0.58465592855E+02  0.14940309852E+03  0.00000000000E+00 0.  1.
         15    1    5    5    0    0 -0.26472311773E+03 -0.91476681759E+03  0.60872964435E+03  0.11302351955E+04  0.17770000000E+01 0. -1.
        -16    1    5    5    0    0 -0.92252048052E+02 -0.18886138972E+03  0.12737319009E+03  0.24577020660E+03  0.00000000000E+00 0.  1.
          2    1    6    6  502    0 -0.31220581217E+02  0.34792816920E+01  0.22157650676E+03  0.22379226626E+03  0.00000000000E+00 0. -1.
         -1    1    6    6    0  502 -0.44971965853E+02 -0.15729547368E+01  0.42764919062E+02  0.62078903032E+02  0.00000000000E+00 0.  1.
<mgrwt>
<rscale>  0 0.12124900E+04</rscale>
<asrwt>0</asrwt>
<pdfrwt beam="1">  1        1 0.35163457E+00 0.12124900E+04</pdfrwt>
<pdfrwt beam="2">  1       -2 0.10759638E+00 0.12124900E+04</pdfrwt>
<totfact> 0.11374760E+00</totfact>
</mgrwt>
</event>
<event>
12    3  0.1182097E-007  0.2148305E+04  0.7818608E-02  0.8540258E-01
          1   -1    0    0  501    0  0.00000000000E+00  0.00000000000E+00  0.21549124516E+04  0.21549124516E+04  0.00000000000E+00 0. -1.
         -2   -1    0    0    0  501 -0.00000000000E+00 -0.00000000000E+00 -0.22254137477E+04  0.22254137477E+04  0.00000000000E+00 0.  1.
        -24    2    1    2    0    0  0.60479825367E+03 -0.20564398718E+04 -0.17339805518E+03  0.21520543151E+04  0.80901272544E+02 0.  0.
    5000000    2    1    2    0    0 -0.60479825367E+03  0.20564398718E+04  0.10289675909E+03  0.22282718842E+04  0.59990163623E+03 0.  0.
        -24    2    4    4    0    0 -0.53180395382E+03  0.18901686542E+04  0.25061903998E+03  0.19811038393E+04  0.80059556332E+02 0.  0.
         24    2    4    4    0    0 -0.72994299850E+02  0.16627121760E+03 -0.14772228089E+03  0.24716804488E+03  0.79346610058E+02 0.  0.
         13    1    3    3    0    0  0.44782862834E+02 -0.10649980084E+03 -0.22356619529E+02  0.11767553195E+03  0.00000000000E+00 0. -1.
        -14    1    3    3    0    0  0.56001539083E+03 -0.19499400709E+04 -0.15104143565E+03  0.20343787832E+04  0.00000000000E+00 0.  1.
         15    1    5    5    0    0 -0.38206410046E+03  0.13155046917E+04  0.13955266466E+03  0.13769544926E+04  0.17770000000E+01 0. -1.
        -16    1    5    5    0    0 -0.14973985335E+03  0.57466396242E+03  0.11106637532E+03  0.60414934669E+03  0.00000000000E+00 0.  1.
          4    1    6    6  502    0 -0.21387880422E+02  0.11075038057E+03 -0.49711458987E+02  0.12326523184E+03  0.00000000000E+00 0. -1.
         -3    1    6    6    0  502 -0.51606419428E+02  0.55520837029E+02 -0.98010821900E+02  0.12390281304E+03  0.00000000000E+00 0.  1.
<mgrwt>
<rscale>  0 0.21483054E+04</rscale>
<asrwt>0</asrwt>
<pdfrwt beam="1">  1        1 0.33152499E+00 0.21483054E+04</pdfrwt>
<pdfrwt beam="2">  1       -2 0.34237135E+00 0.21483054E+04</pdfrwt>
<totfact> 0.31162130E-02</totfact>
</mgrwt>
</event>
<event>
12    3  0.1182097E-007  0.1250465E+04  0.7818608E-02  0.9069796E-01
          1   -1    0    0  501    0  0.00000000000E+00  0.00000000000E+00  0.10420343706E+04  0.10420343706E+04  0.00000000000E+00 0. -1.
         -2   -1    0    0    0  501 -0.00000000000E+00 -0.00000000000E+00 -0.17451972857E+04  0.17451972857E+04  0.00000000000E+00 0.  1.
        -24    2    1    2    0    0 -0.11672113676E+04 -0.30190008726E+03 -0.78051736539E+03  0.14383941476E+04  0.79021053562E+02 0.  0.
    5000000    2    1    2    0    0  0.11672113676E+04  0.30190008726E+03  0.77354450220E+02  0.13488375087E+04  0.59987738313E+03 0.  0.
        -24    2    4    4    0    0  0.68618061941E+03  0.39956905359E+03  0.22429201884E+03  0.83011020543E+03  0.90976768511E+02 0.  0.
         24    2    4    4    0    0  0.48103074814E+03 -0.97668966333E+02 -0.14693756862E+03  0.51872730331E+03  0.80978753291E+02 0.  0.
         11    1    3    3    0    0 -0.11311871273E+04 -0.28365003605E+03 -0.73991526122E+03  0.13811286159E+04  0.00000000000E+00 0. -1.
        -12    1    3    3    0    0 -0.36024240270E+02 -0.18250051202E+02 -0.40602104164E+02  0.57265531678E+02  0.00000000000E+00 0.  1.
         15    1    5    5    0    0  0.14196064042E+03  0.43350819665E+02  0.51377511483E+02  0.15708253693E+03  0.17770000000E+01 0. -1.
        -16    1    5    5    0    0  0.54421997899E+03  0.35621823393E+03  0.17291450735E+03  0.67302766850E+03  0.00000000000E+00 0.  1.
          2    1    6    6  502    0  0.21740113762E+03 -0.99854958812E+01 -0.41427621872E+02  0.22153828703E+03  0.00000000000E+00 0. -1.
         -1    1    6    6    0  502  0.26362961052E+03 -0.87683470452E+02 -0.10550994674E+03  0.29718901628E+03  0.00000000000E+00 0.  1.
<mgrwt>
<rscale>  0 0.12504648E+04</rscale>
<asrwt>0</asrwt>
<pdfrwt beam="1">  1        1 0.16031298E+00 0.12504648E+04</pdfrwt>
<pdfrwt beam="2">  1       -2 0.26849189E+00 0.12504648E+04</pdfrwt>
<totfact> 0.59236171E-01</totfact>
</mgrwt>
</event>
<event>
12    3  0.1182097E-007  0.4956418E+03  0.7818608E-02  0.1014923E+00
          1   -1    0    0  501    0  0.00000000000E+00  0.00000000000E+00  0.11773551026E+04  0.11773551026E+04  0.00000000000E+00 0. -1.
         -2   -1    0    0    0  501 -0.00000000000E+00 -0.00000000000E+00 -0.39910095422E+03  0.39910095422E+03  0.00000000000E+00 0.  1.
        -24    2    1    2    0    0  0.29232473458E+03  0.30142871901E+03  0.72604103288E+03  0.84234141646E+03  0.78041382420E+02 0.  0.
    5000000    2    1    2    0    0 -0.29232473458E+03 -0.30142871901E+03  0.52213115496E+02  0.73411464035E+03  0.59990421956E+03 0.  0.
        -24    2    4    4    0    0 -0.35494560221E+03 -0.13622516681E+03 -0.18306056104E+03  0.42921528752E+03  0.78555187194E+02 0.  0.
         24    2    4    4    0    0  0.62620867626E+02 -0.16520355220E+03  0.23527367654E+03  0.30489935283E+03  0.79977032700E+02 0.  0.
         11    1    3    3    0    0  0.12092202394E+03  0.17304140443E+03  0.39935682500E+03  0.45172041928E+03  0.00000000000E+00 0. -1.
        -12    1    3    3    0    0  0.17140271065E+03  0.12838731458E+03  0.32668420788E+03  0.39062099718E+03  0.00000000000E+00 0.  1.
         15    1    5    5    0    0 -0.30996622757E+03 -0.10284341378E+03 -0.18049038040E+03  0.37314308937E+03  0.17770000000E+01 0. -1.
        -16    1    5    5    0    0 -0.44979374632E+02 -0.33381753023E+02 -0.25701806377E+01  0.56072198153E+02  0.00000000000E+00 0.  1.
          2    1    6    6  502    0  0.45458577691E+02 -0.52608712995E+02  0.14037364067E+03  0.15664902797E+03  0.00000000000E+00 0. -1.
         -1    1    6    6    0  502  0.17162289934E+02 -0.11259483921E+03  0.94900035863E+02  0.14825032485E+03  0.00000000000E+00 0.  1.
<mgrwt>
<rscale>  0 0.49564175E+03</rscale>
<asrwt>0</asrwt>
<pdfrwt beam="1">  1        1 0.18113155E+00 0.49564175E+03</pdfrwt>
<pdfrwt beam="2">  1       -2 0.61400147E-01 0.49564175E+03</pdfrwt>
<totfact> 0.25463797E+01</totfact>
</mgrwt>
</event>
<event>
12    3  0.1182097E-007  0.6392502E+03  0.7818608E-02  0.9827162E-01
         -2   -1    0    0    0  501 -0.00000000000E+00  0.00000000000E+00  0.10120914926E+04  0.10120914926E+04  0.00000000000E+00 0.  1.
          1   -1    0    0  501    0  0.00000000000E+00 -0.00000000000E+00 -0.46319804762E+03  0.46319804762E+03  0.00000000000E+00 0. -1.
        -24    2    1    2    0    0  0.48349757970E+03  0.23475216547E+03  0.97625806473E+02  0.55194591767E+03  0.78962074285E+02 0.  0.
    5000000    2    1    2    0    0 -0.48349757970E+03 -0.23475216547E+03  0.45126763853E+03  0.92334362257E+03  0.60003539478E+03 0.  0.
        -24    2    4    4    0    0 -0.52345004515E+03 -0.34007736032E+03  0.46999752326E+03  0.78428065281E+03  0.67423361985E+02 0.  0.
         24    2    4    4    0    0  0.39952465456E+02  0.10532519484E+03 -0.18729884724E+02  0.13906296976E+03  0.79360599868E+02 0.  0.
         11    1    3    3    0    0  0.25116217597E+03  0.13355701936E+03  0.12958793989E+02  0.28475927798E+03  0.00000000000E+00 0. -1.
        -12    1    3    3    0    0  0.23233540373E+03  0.10119514612E+03  0.84667012484E+02  0.26718663968E+03  0.00000000000E+00 0.  1.
         15    1    5    5    0    0 -0.31422279056E+03 -0.21298239850E+03  0.32522597247E+03  0.49987253883E+03  0.17770000000E+01 0. -1.
        -16    1    5    5    0    0 -0.20922725459E+03 -0.12709496182E+03  0.14477155079E+03  0.28440811398E+03  0.00000000000E+00 0.  1.
          2    1    6    6  502    0  0.97131767097E+01  0.65437784782E+02  0.26821049246E+02  0.71384999556E+02  0.00000000000E+00 0. -1.
         -3    1    6    6    0  502  0.30239288747E+02  0.39887410063E+02 -0.45550933969E+02  0.67677970204E+02  0.00000000000E+00 0.  1.
<mgrwt>
<rscale>  0 0.63925022E+03</rscale>
<asrwt>0</asrwt>
<pdfrwt beam="1">  1        1 0.71261238E-01 0.63925022E+03</pdfrwt>
<pdfrwt beam="2">  1       -2 0.15570638E+00 0.63925022E+03</pdfrwt>
<totfact> 0.12044923E+01</totfact>
</mgrwt>
</event>
<event>
12    3  0.1182097E-007  0.1506692E+04  0.7818608E-02  0.8880015E-01
         -2   -1    0    0    0  501 -0.00000000000E+00  0.00000000000E+00  0.16054127390E+04  0.16054127390E+04  0.00000000000E+00 0.  1.
          1   -1    0    0  501    0  0.00000000000E+00 -0.00000000000E+00 -0.14351002404E+04  0.14351002404E+04  0.00000000000E+00 0. -1.
        -24    2    1    2    0    0  0.12459595162E+04  0.74452981615E+03 -0.50412654427E+02  0.14545121300E+04  0.79525702570E+02 0.  0.
    5000000    2    1    2    0    0 -0.12459595162E+04 -0.74452981615E+03  0.22072515305E+03  0.15860008494E+04  0.59994944617E+03 0.  0.
        -24    2    4    4    0    0 -0.68699405579E+03 -0.72168350432E+03  0.73973074154E+02  0.10021531551E+04  0.77788286770E+02 0.  0.
         24    2    4    4    0    0 -0.55896546045E+03 -0.22846311832E+02  0.14675207890E+03  0.58384769429E+03  0.79859987049E+02 0.  0.
         11    1    3    3    0    0  0.96713129817E+03  0.60706599157E+03 -0.60530381843E+02  0.11434754012E+04  0.00000000000E+00 0. -1.
        -12    1    3    3    0    0  0.27882821807E+03  0.13746382458E+03  0.10117727416E+02  0.31103672881E+03  0.00000000000E+00 0.  1.
         15    1    5    5    0    0 -0.22343535240E+03 -0.23577307380E+03 -0.12348074544E+02  0.32506604206E+03  0.17770000000E+01 0. -1.
        -16    1    5    5    0    0 -0.46355870339E+03 -0.48591043052E+03  0.86321148698E+02  0.67708711307E+03  0.00000000000E+00 0.  1.
          2    1    6    6  502    0 -0.52724005369E+02  0.19552423129E+02  0.51495798914E+01  0.56468010107E+02  0.00000000000E+00 0. -1.
         -1    1    6    6    0  502 -0.50624145508E+03 -0.42398734960E+02  0.14160249901E+03  0.52737968419E+03  0.00000000000E+00 0.  1.
<mgrwt>
<rscale>  0 0.15066922E+04</rscale>
<asrwt>0</asrwt>
<pdfrwt beam="1">  1        1 0.22078465E+00 0.15066922E+04</pdfrwt>
<pdfrwt beam="2">  1       -2 0.24698657E+00 0.15066922E+04</pdfrwt>
<totfact> 0.40228850E-01</totfact>
</mgrwt>
</event>
<event>
12    3  0.1201449E-007  0.8950630E+03  0.7818608E-02  0.9431774E-01
          1   -1    0    0  501    0  0.00000000000E+00  0.00000000000E+00  0.13273336176E+04  0.13273336176E+04  0.00000000000E+00 0. -1.
         -2   -1    0    0    0  501 -0.00000000000E+00 -0.00000000000E+00 -0.63031625083E+03  0.63031625083E+03  0.00000000000E+00 0.  1.
        -24    2    1    2    0    0  0.67121959666E+03  0.43903411709E+03  0.16169072727E+03  0.82196017870E+03  0.78663467872E+02 0.  0.
    5000000    2    1    2    0    0 -0.67121959666E+03 -0.43903411709E+03  0.53532663945E+03  0.11356896897E+04  0.59994146168E+03 0.  0.
        -24    2    4    4    0    0 -0.21140308818E+03  0.12519747997E+03  0.21610098729E+03  0.33680397394E+03  0.79822336923E+02 0.  0.
         24    2    4    4    0    0 -0.45981650848E+03 -0.56423159706E+03  0.31922565215E+03  0.79888571574E+03  0.80776563590E+02 0.  0.
         11    1    3    3    0    0  0.40795623724E+03  0.25518941015E+03  0.13487136339E+03  0.49974014369E+03  0.00000000000E+00 0. -1.
        -12    1    3    3    0    0  0.26326335943E+03  0.18384470694E+03  0.26819363886E+02  0.32222003501E+03  0.00000000000E+00 0.  1.
         15    1    5    5    0    0 -0.11845809600E+03  0.29392640616E+02  0.78663621367E+02  0.14521491275E+03  0.17770000000E+01 0. -1.
        -16    1    5    5    0    0 -0.92944992182E+02  0.95804839357E+02  0.13743736593E+03  0.19158906119E+03  0.00000000000E+00 0.  1.
          2    1    6    6  502    0 -0.31548498347E+03 -0.32540858054E+03  0.20216465793E+03  0.49627821633E+03  0.00000000000E+00 0. -1.
         -1    1    6    6    0  502 -0.14433152501E+03 -0.23882301652E+03  0.11706099422E+03  0.30260749941E+03  0.00000000000E+00 0.  1.
<mgrwt>
<rscale>  0 0.89506299E+03</rscale>
<asrwt>0</asrwt>
<pdfrwt beam="1">  1        1 0.20420517E+00 0.89506299E+03</pdfrwt>
<pdfrwt beam="2">  1       -2 0.96971731E-01 0.89506299E+03</pdfrwt>
<totfact> 0.68136426E+00</totfact>
</mgrwt>
</event>
<event>
12    3  0.1182097E-007  0.1031844E+04  0.7818608E-02  0.9274292E-01
          1   -1    0    0  501    0  0.00000000000E+00  0.00000000000E+00  0.10537012095E+04  0.10537012095E+04  0.00000000000E+00 0. -1.
         -2   -1    0    0    0  501 -0.00000000000E+00 -0.00000000000E+00 -0.11709101828E+04  0.11709101828E+04  0.00000000000E+00 0.  1.
        -24    2    1    2    0    0 -0.38906787928E+03  0.94484284243E+03 -0.16727992296E+03  0.10386411344E+04  0.81798666072E+02 0.  0.
    5000000    2    1    2    0    0  0.38906787928E+03 -0.94484284243E+03  0.50070949675E+02  0.11859702580E+04  0.59993044697E+03 0.  0.
        -24    2    4    4    0    0  0.24396005752E+03 -0.74959767609E+03  0.28166582923E+03  0.84091817254E+03  0.79965917042E+02 0.  0.
         24    2    4    4    0    0  0.14510782177E+03 -0.19524516634E+03 -0.23159487956E+03  0.34505208543E+03  0.79043016785E+02 0.  0.
         11    1    3    3    0    0 -0.32140226937E+03  0.68748030578E+03 -0.12928259724E+03  0.76983282571E+03  0.00000000000E+00 0. -1.
        -12    1    3    3    0    0 -0.67665609914E+02  0.25736253665E+03 -0.37997325717E+02  0.26880830864E+03  0.00000000000E+00 0.  1.
         15    1    5    5    0    0  0.88449127629E+02 -0.19729321739E+03  0.10630106729E+03  0.24093761940E+03  0.17770000000E+01 0. -1.
        -16    1    5    5    0    0  0.15551092989E+03 -0.55230445870E+03  0.17536476194E+03  0.59998055313E+03  0.00000000000E+00 0.  1.
          2    1    6    6  502    0  0.12771479885E+03 -0.13442834918E+03 -0.20504343988E+03  0.27645047142E+03  0.00000000000E+00 0. -1.
         -1    1    6    6    0  502  0.17393022916E+02 -0.60816817159E+02 -0.26551439674E+02  0.68601614006E+02  0.00000000000E+00 0.  1.
<mgrwt>
<rscale>  0 0.10318440E+04</rscale>
<asrwt>0</asrwt>
<pdfrwt beam="1">  1        1 0.16210788E+00 0.10318440E+04</pdfrwt>
<pdfrwt beam="2">  1       -2 0.18014003E+00 0.10318440E+04</pdfrwt>
<totfact> 0.21645392E+00</totfact>
</mgrwt>
</event>
<event>
12    3  0.1182097E-007  0.7138845E+03  0.7818608E-02  0.9693778E-01
          1   -1    0    0  501    0  0.00000000000E+00  0.00000000000E+00  0.23405058380E+04  0.23405058380E+04  0.00000000000E+00 0. -1.
         -2   -1    0    0    0  501 -0.00000000000E+00 -0.00000000000E+00 -0.43259307628E+03  0.43259307628E+03  0.00000000000E+00 0.  1.
        -24    2    1    2    0    0  0.40059350473E+03  0.48191825899E+03 -0.48047889208E+02  0.63337341903E+03  0.78312986753E+02 0.  0.
    5000000    2    1    2    0    0 -0.40059350473E+03 -0.48191825899E+03  0.19559606509E+04  0.21397254952E+04  0.59993563208E+03 0.  0.
        -24    2    4    4    0    0  0.73048528736E+01 -0.36633758423E+03  0.13168881906E+04  0.13687557804E+04  0.71002066322E+02 0.  0.
         24    2    4    4    0    0 -0.40789835760E+03 -0.11558067476E+03  0.63907246027E+03  0.77096971477E+03  0.78998285375E+02 0.  0.
         11    1    3    3    0    0  0.22733236624E+03  0.22537985386E+03 -0.48727799678E+02  0.32380624102E+03  0.00000000000E+00 0. -1.
        -12    1    3    3    0    0  0.17326113849E+03  0.25653840513E+03  0.67991046983E+00  0.30956717801E+03  0.00000000000E+00 0.  1.
         15    1    5    5    0    0  0.92648246888E+01 -0.90644453873E+02  0.44802926988E+03  0.45720415395E+03  0.17770000000E+01 0. -1.
        -16    1    5    5    0    0 -0.19599718153E+01 -0.27569313036E+03  0.86885892074E+03  0.91155162650E+03  0.00000000000E+00 0.  1.
          4    1    6    6  502    0 -0.82588697229E+02  0.86187868718E+01  0.12454823765E+03  0.14969114836E+03  0.00000000000E+00 0. -1.
         -3    1    6    6    0  502 -0.32530966037E+03 -0.12419946163E+03  0.51452422263E+03  0.62127856640E+03  0.00000000000E+00 0.  1.
<mgrwt>
<rscale>  0 0.71388451E+03</rscale>
<asrwt>0</asrwt>
<pdfrwt beam="1">  1        1 0.36007781E+00 0.71388451E+03</pdfrwt>
<pdfrwt beam="2">  1       -2 0.66552782E-01 0.71388451E+03</pdfrwt>
<totfact> 0.33671367E+00</totfact>
</mgrwt>
</event>
<event>
12    3  0.1182097E-007  0.3004718E+03  0.7818608E-02  0.1085005E+00
          1   -1    0    0  501    0  0.00000000000E+00  0.00000000000E+00  0.10539755847E+04  0.10539755847E+04  0.00000000000E+00 0. -1.
         -2   -1    0    0    0  501 -0.00000000000E+00 -0.00000000000E+00 -0.18796731783E+03  0.18796731783E+03  0.00000000000E+00 0.  1.
        -24    2    1    2    0    0 -0.54051769033E+02 -0.56421704808E+02 -0.67119826610E+02  0.12982714164E+03  0.79025395115E+02 0.  0.
    5000000    2    1    2    0    0  0.54051769033E+02  0.56421704808E+02  0.93312809343E+03  0.11121157608E+04  0.59997368631E+03 0.  0.
        -24    2    4    4    0    0  0.61264666389E+02  0.28204183583E+03  0.75951215975E+03  0.81632898815E+03  0.78951501517E+02 0.  0.
         24    2    4    4    0    0 -0.72128973566E+01 -0.22562013102E+03  0.17361593369E+03  0.29578677269E+03  0.79942811174E+02 0.  0.
         11    1    3    3    0    0 -0.26720065394E+02 -0.19944956107E+02  0.14486661966E+02  0.36354181928E+02  0.00000000000E+00 0. -1.
        -12    1    3    3    0    0 -0.27331703639E+02 -0.36476748701E+02 -0.81606488575E+02  0.93472959711E+02  0.00000000000E+00 0.  1.
         15    1    5    5    0    0  0.80237576257E+01  0.72578313499E+02  0.11211163107E+03  0.13380645660E+03  0.17770000000E+01 0. -1.
        -16    1    5    5    0    0  0.53240908764E+02  0.20946352233E+03  0.64740052867E+03  0.68252253156E+03  0.00000000000E+00 0.  1.
          4    1    6    6  502    0 -0.26075191781E+02 -0.19607518871E+03  0.11884220607E+03  0.23075715633E+03  0.00000000000E+00 0. -1.
         -3    1    6    6    0  502  0.18862294424E+02 -0.29544942315E+02  0.54773727616E+02  0.65029616363E+02  0.00000000000E+00 0.  1.
<mgrwt>
<rscale>  0 0.30047184E+03</rscale>
<asrwt>0</asrwt>
<pdfrwt beam="1">  1        1 0.16215009E+00 0.30047184E+03</pdfrwt>
<pdfrwt beam="2">  1       -2 0.28918049E-01 0.30047184E+03</pdfrwt>
<totfact> 0.14082008E+02</totfact>
</mgrwt>
</event>
<event>
12    3  0.1182097E-007  0.1261942E+04  0.7818608E-02  0.9060302E-01
         -2   -1    0    0    0  501 -0.00000000000E+00  0.00000000000E+00  0.15784136933E+04  0.15784136933E+04  0.00000000000E+00 0.  1.
          1   -1    0    0  501    0  0.00000000000E+00 -0.00000000000E+00 -0.10679446307E+04  0.10679446307E+04  0.00000000000E+00 0. -1.
        -24    2    1    2    0    0  0.15905749289E+03 -0.12139358484E+04  0.14900718893E+03  0.12358050389E+04  0.77919328189E+02 0.  0.
    5000000    2    1    2    0    0 -0.15905749289E+03  0.12139358484E+04  0.36146187367E+03  0.14105532851E+04  0.60005529248E+03 0.  0.
        -24    2    4    4    0    0  0.52629439734E+02 -0.67881600390E+01 -0.40774203471E+02  0.10567309522E+03  0.81782212865E+02 0.  0.
         24    2    4    4    0    0 -0.21168693263E+03  0.12207240084E+04  0.40223607715E+03  0.13048801899E+04  0.77071305165E+02 0.  0.
         11    1    3    3    0    0  0.90476921574E+02 -0.40810998965E+03  0.46609322654E+02  0.42060939831E+03  0.00000000000E+00 0. -1.
        -12    1    3    3    0    0  0.68580571317E+02 -0.80582585875E+03  0.10239786628E+03  0.81519564057E+03  0.00000000000E+00 0.  1.
         15    1    5    5    0    0  0.21955512840E+02  0.65812488648E+01 -0.61947572924E+02  0.66075842037E+02  0.17770000000E+01 0. -1.
        -16    1    5    5    0    0  0.30673926894E+02 -0.13369408904E+02  0.21173369454E+02  0.39597253182E+02  0.00000000000E+00 0.  1.
          2    1    6    6  502    0 -0.67929592413E+02  0.23841901910E+03  0.97539087306E+02  0.26640557755E+03  0.00000000000E+00 0. -1.
         -1    1    6    6    0  502 -0.14375734021E+03  0.98230498933E+03  0.30469698984E+03  0.10384746124E+04  0.00000000000E+00 0.  1.
<mgrwt>
<rscale>  0 0.12619420E+04</rscale>
<asrwt>0</asrwt>
<pdfrwt beam="1">  1        1 0.16429917E+00 0.12619420E+04</pdfrwt>
<pdfrwt beam="2">  1       -2 0.24283288E+00 0.12619420E+04</pdfrwt>
<totfact> 0.81095884E-01</totfact>
</mgrwt>
</event>
<event>
12    3  0.1182097E-007  0.7062045E+03  0.7818608E-02  0.9706680E-01
         -2   -1    0    0    0  501 -0.00000000000E+00  0.00000000000E+00  0.53046746093E+03  0.53046746093E+03  0.00000000000E+00 0.  1.
          1   -1    0    0  501    0  0.00000000000E+00 -0.00000000000E+00 -0.12479292069E+04  0.12479292069E+04  0.00000000000E+00 0. -1.
        -24    2    1    2    0    0  0.18388967644E+03 -0.64403091595E+03 -0.87048652770E+02  0.68023526480E+03  0.80940186134E+02 0.  0.
    5000000    2    1    2    0    0 -0.18388967644E+03  0.64403091595E+03 -0.63041309319E+03  0.10981614030E+04  0.59995546936E+03 0.  0.
        -24    2    4    4    0    0  0.49726789533E+01  0.46289668186E+03 -0.67429702951E+03  0.82178211397E+03  0.79695001328E+02 0.  0.
         24    2    4    4    0    0 -0.18886235539E+03  0.18113423409E+03  0.43883936315E+02  0.27637928905E+03  0.77337646081E+02 0.  0.
         11    1    3    3    0    0  0.23790978531E+02 -0.50621325419E+02  0.13242275659E+02  0.57479449469E+02  0.00000000000E+00 0. -1.
        -12    1    3    3    0    0  0.16009869791E+03 -0.59340959053E+03 -0.10029092843E+03  0.62275581533E+03  0.00000000000E+00 0.  1.
         15    1    5    5    0    0 -0.21338769138E+02  0.40291119665E+03 -0.59547392476E+03  0.71929488268E+03  0.17770000000E+01 0. -1.
        -16    1    5    5    0    0  0.26311448092E+02  0.59985485201E+02 -0.78823104752E+02  0.10248723129E+03  0.00000000000E+00 0.  1.
          4    1    6    6  502    0 -0.11909078857E+03  0.60667059877E+02  0.22454525019E+02  0.13552606306E+03  0.00000000000E+00 0. -1.
         -3    1    6    6    0  502 -0.69771566827E+02  0.12046717422E+03  0.21429411297E+02  0.14085322598E+03  0.00000000000E+00 0.  1.
<mgrwt>
<rscale>  0 0.70620449E+03</rscale>
<asrwt>0</asrwt>
<pdfrwt beam="1">  1        1 0.19198911E+00 0.70620449E+03</pdfrwt>
<pdfrwt beam="2">  1       -2 0.81610380E-01 0.70620449E+03</pdfrwt>
<totfact> 0.11812800E+01</totfact>
</mgrwt>
</event>
<event>
12    3  0.1182097E-007  0.5616199E+03  0.7818608E-02  0.9988396E-01
          1   -1    0    0  501    0  0.00000000000E+00  0.00000000000E+00  0.11587244960E+04  0.11587244960E+04  0.00000000000E+00 0. -1.
         -2   -1    0    0    0  501 -0.00000000000E+00 -0.00000000000E+00 -0.43524732372E+03  0.43524732372E+03  0.00000000000E+00 0.  1.
        -24    2    1    2    0    0 -0.45826393796E+03 -0.58393258918E+02  0.69259996750E+03  0.83615188788E+03  0.77715217956E+02 0.  0.
    5000000    2    1    2    0    0  0.45826393796E+03  0.58393258918E+02  0.30877204755E+02  0.75781993182E+03  0.59993502796E+03 0.  0.
        -24    2    4    4    0    0  0.10165700271E+03 -0.19175357178E+03 -0.15423183635E+03  0.27786460484E+03  0.79483965611E+02 0.  0.
         24    2    4    4    0    0  0.35660693525E+03  0.25014683069E+03  0.18510904111E+03  0.47995532698E+03  0.79685730372E+02 0.  0.
         13    1    3    3    0    0 -0.18332277950E+03 -0.18563690638E+02  0.21066112363E+03  0.27987490260E+03  0.00000000000E+00 0. -1.
        -14    1    3    3    0    0 -0.27494115845E+03 -0.39829568280E+02  0.48193884388E+03  0.55627698529E+03  0.00000000000E+00 0.  1.
         15    1    5    5    0    0  0.17168401979E+02 -0.55206466855E+02 -0.85438193808E+02  0.10317630881E+03  0.17770000000E+01 0. -1.
        -16    1    5    5    0    0  0.84488600727E+02 -0.13654710492E+03 -0.68793642542E+02  0.17468829603E+03  0.00000000000E+00 0.  1.
          4    1    6    6  502    0  0.62416479806E+02  0.84761737402E+02  0.40442078545E+02  0.11276493602E+03  0.00000000000E+00 0. -1.
         -3    1    6    6    0  502  0.29419045545E+03  0.16538509329E+03  0.14466696256E+03  0.36719039096E+03  0.00000000000E+00 0.  1.
<mgrwt>
<rscale>  0 0.56161991E+03</rscale>
<asrwt>0</asrwt>
<pdfrwt beam="1">  1        1 0.17826531E+00 0.56161991E+03</pdfrwt>
<pdfrwt beam="2">  1       -2 0.66961127E-01 0.56161991E+03</pdfrwt>
<totfact> 0.21613111E+01</totfact>
</mgrwt>
</event>
<event>
12    3  0.1182097E-007  0.7121536E+03  0.7818608E-02  0.9696671E-01
          1   -1    0    0  501    0  0.00000000000E+00  0.00000000000E+00  0.70974092743E+03  0.70974092743E+03  0.00000000000E+00 0. -1.
         -2   -1    0    0    0  501 -0.00000000000E+00 -0.00000000000E+00 -0.84028305863E+03  0.84028305863E+03  0.00000000000E+00 0.  1.
        -24    2    1    2    0    0  0.41639753058E+03  0.43008029503E+03 -0.31700477503E+03  0.68214910468E+03  0.80494782291E+02 0.  0.
    5000000    2    1    2    0    0 -0.41639753058E+03 -0.43008029503E+03  0.18646264382E+03  0.86787488138E+03  0.60006876984E+03 0.  0.
        -24    2    4    4    0    0 -0.54969385307E+03 -0.28282383546E+03  0.19550254528E+03  0.65312211969E+03  0.78705806673E+02 0.  0.
         24    2    4    4    0    0  0.13329632249E+03 -0.14725645957E+03 -0.90399014593E+01  0.21475276169E+03  0.81145883211E+02 0.  0.
         11    1    3    3    0    0  0.25516993462E+03  0.30746828467E+03 -0.23560338193E+03  0.46385061732E+03  0.00000000000E+00 0. -1.
        -12    1    3    3    0    0  0.16122759597E+03  0.12261201036E+03 -0.81401393097E+02  0.21829848736E+03  0.00000000000E+00 0.  1.
         15    1    5    5    0    0 -0.12358455166E+03 -0.53985437511E+02  0.76381986847E+02  0.15499978876E+03  0.17770000000E+01 0. -1.
        -16    1    5    5    0    0 -0.42610930141E+03 -0.22883839795E+03  0.11912055843E+03  0.49812233093E+03  0.00000000000E+00 0.  1.
          2    1    6    6  502    0  0.10082284315E+03 -0.79082963570E+02  0.27201795200E+02  0.13099350552E+03  0.00000000000E+00 0. -1.
         -1    1    6    6    0  502  0.32473479343E+02 -0.68173495998E+02 -0.36241696659E+02  0.83759256169E+02  0.00000000000E+00 0.  1.
<mgrwt>
<rscale>  0 0.71215361E+03</rscale>
<asrwt>0</asrwt>
<pdfrwt beam="1">  1        1 0.10919091E+00 0.71215361E+03</pdfrwt>
<pdfrwt beam="2">  1       -2 0.12927432E+00 0.71215361E+03</pdfrwt>
<totfact> 0.10550778E+01</totfact>
</mgrwt>
</event>
<event>
12    3  0.1182097E-007  0.5695998E+03  0.7818608E-02  0.9970565E-01
          1   -1    0    0  501    0  0.00000000000E+00  0.00000000000E+00  0.13238283244E+04  0.13238283244E+04  0.00000000000E+00 0. -1.
         -2   -1    0    0    0  501 -0.00000000000E+00 -0.00000000000E+00 -0.28040973006E+03  0.28040973006E+03  0.00000000000E+00 0.  1.
        -24    2    1    2    0    0 -0.38157138496E+03 -0.24145578752E+03  0.49017240343E+03  0.67110264689E+03  0.78817247048E+02 0.  0.
    5000000    2    1    2    0    0  0.38157138496E+03  0.24145578752E+03  0.55324619088E+03  0.93313540754E+03  0.60063526531E+03 0.  0.
        -24    2    4    4    0    0  0.72141845263E+01  0.29502311270E+03  0.42937902420E+03  0.52709897608E+03  0.79851754419E+02 0.  0.
         24    2    4    4    0    0  0.37435720043E+03 -0.53567325179E+02  0.12386716668E+03  0.40603643145E+03  0.80682940219E+02 0.  0.
         11    1    3    3    0    0 -0.79388610834E+02 -0.88865705633E+02  0.11179718385E+03  0.16339606937E+03  0.00000000000E+00 0. -1.
        -12    1    3    3    0    0 -0.30218277412E+03 -0.15259008189E+03  0.37837521958E+03  0.50770657753E+03  0.00000000000E+00 0.  1.
         15    1    5    5    0    0 -0.28218699402E+02  0.16606531315E+03  0.27847202412E+03  0.32545938175E+03  0.17770000000E+01 0. -1.
        -16    1    5    5    0    0  0.35432883929E+02  0.12895779955E+03  0.15090700008E+03  0.20163959433E+03  0.00000000000E+00 0.  1.
          4    1    6    6  502    0  0.27342578441E+03 -0.25800937808E+02  0.53227788496E+02  0.27975086316E+03  0.00000000000E+00 0. -1.
         -3    1    6    6    0  502  0.10093141602E+03 -0.27766387372E+02  0.70639378184E+02  0.12628556829E+03  0.00000000000E+00 0.  1.
<mgrwt>
<rscale>  0 0.56959977E+03</rscale>
<asrwt>0</asrwt>
<pdfrwt beam="1">  1        1 0.20366589E+00 0.56959977E+03</pdfrwt>
<pdfrwt beam="2">  1       -2 0.43139959E-01 0.56959977E+03</pdfrwt>
<totfact> 0.40716153E+01</totfact>
</mgrwt>
</event>
<event>
12    3  0.1182097E-007  0.1961917E+04  0.7818608E-02  0.8624636E-01
         -2   -1    0    0    0  501 -0.00000000000E+00  0.00000000000E+00  0.16199530402E+04  0.16199530402E+04  0.00000000000E+00 0.  1.
          1   -1    0    0  501    0  0.00000000000E+00 -0.00000000000E+00 -0.25151947408E+04  0.25151947408E+04  0.00000000000E+00 0. -1.
        -24    2    1    2    0    0 -0.14129055440E+04  0.13543940226E+04 -0.69391459273E+03  0.20781337866E+04  0.80232961757E+02 0.  0.
    5000000    2    1    2    0    0  0.14129055440E+04 -0.13543940226E+04 -0.20132710784E+03  0.20570139944E+04  0.60007393185E+03 0.  0.
        -24    2    4    4    0    0  0.11785605168E+04 -0.11825036275E+04  0.38124417581E+02  0.16719503793E+04  0.81516127175E+02 0.  0.
         24    2    4    4    0    0  0.23434502727E+03 -0.17189039511E+03 -0.23945152542E+03  0.38506361501E+03  0.80455297132E+02 0.  0.
         13    1    3    3    0    0 -0.92891577084E+03  0.85524294348E+03 -0.47794206562E+03  0.13500939300E+04  0.00000000000E+00 0. -1.
        -14    1    3    3    0    0 -0.48398977321E+03  0.49915107915E+03 -0.21597252711E+03  0.72803985663E+03  0.00000000000E+00 0.  1.
         15    1    5    5    0    0  0.76286577616E+03 -0.74578894144E+03  0.60963779759E+02  0.10685902291E+04  0.17770000000E+01 0. -1.
        -16    1    5    5    0    0  0.41569474061E+03 -0.43671468608E+03 -0.22839362178E+02  0.60336015022E+03  0.00000000000E+00 0.  1.
          2    1    6    6  502    0  0.46936782866E+02 -0.89435429148E+01 -0.68706824223E+02  0.83687969508E+02  0.00000000000E+00 0. -1.
         -1    1    6    6    0  502  0.18740824441E+03 -0.16294685219E+03 -0.17074470120E+03  0.30137564550E+03  0.00000000000E+00 0.  1.
<mgrwt>
<rscale>  0 0.19619172E+04</rscale>
<asrwt>0</asrwt>
<pdfrwt beam="1">  1        1 0.38695304E+00 0.19619172E+04</pdfrwt>
<pdfrwt beam="2">  1       -2 0.24922354E+00 0.19619172E+04</pdfrwt>
<totfact> 0.67308533E-02</totfact>
</mgrwt>
</event>
<event>
12    3  0.1182097E-007  0.1349141E+04  0.7818608E-02  0.8991479E-01
         -2   -1    0    0    0  501 -0.00000000000E+00  0.00000000000E+00  0.54191970381E+03  0.54191970381E+03  0.00000000000E+00 0.  1.
          1   -1    0    0  501    0  0.00000000000E+00 -0.00000000000E+00 -0.37674156412E+04  0.37674156412E+04  0.00000000000E+00 0. -1.
        -24    2    1    2    0    0  0.57491668417E+03 -0.11583134542E+04 -0.88556428077E+03  0.15693354155E+04  0.79814154143E+02 0.  0.
    5000000    2    1    2    0    0 -0.57491668417E+03  0.11583134542E+04 -0.23399316566E+04  0.27399999294E+04  0.60008349745E+03 0.  0.
        -24    2    4    4    0    0 -0.68174318553E+03  0.10338991486E+04 -0.20877576585E+04  0.24288425680E+04  0.82601205471E+02 0.  0.
         24    2    4    4    0    0  0.10682650136E+03  0.12441430561E+03 -0.25217399807E+03  0.31115736140E+03  0.79601240056E+02 0.  0.
         13    1    3    3    0    0  0.51620162591E+03 -0.98430835107E+03 -0.77506283233E+03  0.13550090194E+04  0.00000000000E+00 0. -1.
        -14    1    3    3    0    0  0.58715058262E+02 -0.17400510313E+03 -0.11050144844E+03  0.21432639615E+03  0.00000000000E+00 0.  1.
         15    1    5    5    0    0 -0.59202254958E+03  0.90279760443E+03 -0.17626332540E+04  0.20669817028E+04  0.17770000000E+01 0. -1.
        -16    1    5    5    0    0 -0.89720635943E+02  0.13110154415E+03 -0.32512440448E+03  0.36186086522E+03  0.00000000000E+00 0.  1.
          4    1    6    6  502    0  0.88879381074E+02  0.11160685265E+03 -0.15153295899E+03  0.20812945875E+03  0.00000000000E+00 0. -1.
         -3    1    6    6    0  502  0.17947120285E+02  0.12807452959E+02 -0.10064103908E+03  0.10302790265E+03  0.00000000000E+00 0.  1.
<mgrwt>
<rscale>  0 0.13491410E+04</rscale>
<asrwt>0</asrwt>
<pdfrwt beam="1">  1        1 0.57960240E+00 0.13491410E+04</pdfrwt>
<pdfrwt beam="2">  1       -2 0.83372263E-01 0.13491410E+04</pdfrwt>
<totfact> 0.16551061E-01</totfact>
</mgrwt>
</event>
<event>
12    3  0.1182097E-007  0.4097552E+03  0.7818608E-02  0.1040453E+00
          1   -1    0    0  501    0  0.00000000000E+00  0.00000000000E+00  0.98186261026E+03  0.98186261026E+03  0.00000000000E+00 0. -1.
         -2   -1    0    0    0  501 -0.00000000000E+00 -0.00000000000E+00 -0.27612558768E+03  0.27612558768E+03  0.00000000000E+00 0.  1.
        -24    2    1    2    0    0  0.15005840512E+03  0.26588342302E+03  0.42325123075E+03  0.52787358636E+03  0.79356154574E+02 0.  0.
    5000000    2    1    2    0    0 -0.15005840512E+03 -0.26588342302E+03  0.28248579183E+03  0.73011461157E+03  0.60004800130E+03 0.  0.
        -24    2    4    4    0    0 -0.25934548172E+03 -0.68888250211E+02 -0.82627147299E+02  0.29361940324E+03  0.85903658734E+02 0.  0.
         24    2    4    4    0    0  0.10928707661E+03 -0.19699517280E+03  0.36511293912E+03  0.43649520833E+03  0.80435348925E+02 0.  0.
         11    1    3    3    0    0  0.53082126088E+02  0.10630730905E+03  0.10344683266E+03  0.15754428982E+03  0.00000000000E+00 0. -1.
        -12    1    3    3    0    0  0.96976279029E+02  0.15957611397E+03  0.31980439809E+03  0.37032929654E+03  0.00000000000E+00 0.  1.
         15    1    5    5    0    0 -0.10207311677E+03  0.54881753770E+01 -0.29741119341E+01  0.10227924671E+03  0.17770000000E+01 0. -1.
        -16    1    5    5    0    0 -0.15727236495E+03 -0.74376425588E+02 -0.79653035365E+02  0.19134015654E+03  0.00000000000E+00 0.  1.
          4    1    6    6  502    0  0.82086994128E+02 -0.70030055433E+02  0.18990124051E+03  0.21841466163E+03  0.00000000000E+00 0. -1.
         -3    1    6    6    0  502  0.27200082478E+02 -0.12696511737E+03  0.17521169862E+03  0.21808054670E+03  0.00000000000E+00 0.  1.
<mgrwt>
<rscale>  0 0.40975518E+03</rscale>
<asrwt>0</asrwt>
<pdfrwt beam="1">  1        1 0.15105578E+00 0.40975518E+03</pdfrwt>
<pdfrwt beam="2">  1       -2 0.42480860E-01 0.40975518E+03</pdfrwt>
<totfact> 0.76072874E+01</totfact>
</mgrwt>
</event>
<event>
12    3  0.1182097E-007  0.8426851E+03  0.7818608E-02  0.9500208E-01
          1   -1    0    0  501    0  0.00000000000E+00  0.00000000000E+00  0.67867648810E+03  0.67867648810E+03  0.00000000000E+00 0. -1.
         -2   -1    0    0    0  501 -0.00000000000E+00 -0.00000000000E+00 -0.13691078501E+04  0.13691078501E+04  0.00000000000E+00 0.  1.
        -24    2    1    2    0    0  0.67640024541E+03  0.31016114493E+03 -0.78806541274E+03  0.10868909074E+04  0.81040249546E+02 0.  0.
    5000000    2    1    2    0    0 -0.67640024541E+03 -0.31016114493E+03  0.97634050730E+02  0.96089343079E+03  0.60005545548E+03 0.  0.
        -24    2    4    4    0    0  0.90891909054E+02 -0.69868721458E+02 -0.29374736396E+02  0.14303021742E+03  0.80323038956E+02 0.  0.
         24    2    4    4    0    0 -0.76729215447E+03 -0.24029242347E+03  0.12700878713E+03  0.81786321337E+03  0.79317745112E+02 0.  0.
         13    1    3    3    0    0  0.33057973030E+03  0.19415091666E+03 -0.42124404773E+03  0.56958237708E+03  0.00000000000E+00 0. -1.
        -14    1    3    3    0    0  0.34582051511E+03  0.11601022827E+03 -0.36682136501E+03  0.51730853034E+03  0.00000000000E+00 0.  1.
         15    1    5    5    0    0  0.55929045384E+02 -0.76774986423E+02 -0.43761163084E+02  0.10459758019E+03  0.17770000000E+01 0. -1.
        -16    1    5    5    0    0  0.34962863669E+02  0.69062649644E+01  0.14386426688E+02  0.38432637231E+02  0.00000000000E+00 0.  1.
          4    1    6    6  502    0 -0.48304282485E+03 -0.11860807027E+03  0.55295289567E+02  0.50045560644E+03  0.00000000000E+00 0. -1.
         -3    1    6    6    0  502 -0.28424932962E+03 -0.12168435320E+03  0.71713497559E+02  0.31740760693E+03  0.00000000000E+00 0.  1.
<mgrwt>
<rscale>  0 0.84268514E+03</rscale>
<asrwt>0</asrwt>
<pdfrwt beam="1">  1        1 0.10441177E+00 0.84268514E+03</pdfrwt>
<pdfrwt beam="2">  1       -2 0.21063198E+00 0.84268514E+03</pdfrwt>
<totfact> 0.28835357E+00</totfact>
</mgrwt>
</event>
<event>
12    3  0.1182097E-007  0.1763500E+04  0.7818608E-02  0.8725954E-01
         -4   -1    0    0    0  501 -0.00000000000E+00  0.00000000000E+00  0.16516048305E+04  0.16516048305E+04  0.00000000000E+00 0.  1.
          1   -1    0    0  501    0  0.00000000000E+00 -0.00000000000E+00 -0.21184542836E+04  0.21184542836E+04  0.00000000000E+00 0. -1.
        -24    2    1    2    0    0 -0.13769519074E+04 -0.10342004825E+04  0.37053322032E+03  0.17633621826E+04  0.81142631674E+02 0.  0.
    5000000    2    1    2    0    0  0.13769519074E+04  0.10342004825E+04 -0.83738267342E+03  0.20066969314E+04  0.60004636454E+03 0.  0.
        -24    2    4    4    0    0  0.10371277794E+04  0.10206954517E+04 -0.55770152124E+03  0.15594536689E+04  0.58408239861E+02 0.  0.
         24    2    4    4    0    0  0.33982412791E+03  0.13505030784E+02 -0.27968115218E+03  0.44724326255E+03  0.78371967184E+02 0.  0.
         13    1    3    3    0    0 -0.46051991817E+03 -0.30218351381E+03  0.10359738517E+03  0.56046934730E+03  0.00000000000E+00 0. -1.
        -14    1    3    3    0    0 -0.91643198918E+03 -0.73201696869E+03  0.26693583515E+03  0.12028928353E+04  0.00000000000E+00 0.  1.
         15    1    5    5    0    0  0.61430761765E+03  0.56769490263E+03 -0.30760789563E+03  0.89122226563E+03  0.17770000000E+01 0. -1.
        -16    1    5    5    0    0  0.42282016179E+03  0.45300054908E+03 -0.25009362561E+03  0.66823140322E+03  0.00000000000E+00 0.  1.
          4    1    6    6  502    0  0.97793608881E+02  0.35737421268E+02 -0.63444946871E+02  0.12192626666E+03  0.00000000000E+00 0. -1.
         -3    1    6    6    0  502  0.24203051903E+03 -0.22232390485E+02 -0.21623620531E+03  0.32531699589E+03  0.00000000000E+00 0.  1.
<mgrwt>
<rscale>  0 0.17635004E+04</rscale>
<asrwt>0</asrwt>
<pdfrwt beam="1">  1        1 0.32591604E+00 0.17635004E+04</pdfrwt>
<pdfrwt beam="2">  1       -4 0.25409305E+00 0.17635004E+04</pdfrwt>
<totfact> 0.64395640E-02</totfact>
</mgrwt>
</event>
<event>
12    3  0.1182097E-007  0.1029104E+04  0.7818608E-02  0.9277188E-01
         -2   -1    0    0    0  501 -0.00000000000E+00  0.00000000000E+00  0.90695424872E+03  0.90695424872E+03  0.00000000000E+00 0.  1.
          1   -1    0    0  501    0  0.00000000000E+00 -0.00000000000E+00 -0.11951780562E+04  0.11951780562E+04  0.00000000000E+00 0. -1.
        -24    2    1    2    0    0  0.93157857428E+03  0.16699854540E+03 -0.20102359731E+02  0.94997160079E+03  0.79465610224E+02 0.  0.
    5000000    2    1    2    0    0 -0.93157857428E+03 -0.16699854540E+03 -0.26812144780E+03  0.11521607042E+04  0.59988167438E+03 0.  0.
        -24    2    4    4    0    0 -0.77236204027E+03  0.11372400056E+03 -0.16307510232E+03  0.80217123269E+03  0.86075130034E+02 0.  0.
         24    2    4    4    0    0 -0.15921653402E+03 -0.28072254596E+03 -0.10504634548E+03  0.34998947149E+03  0.85456672895E+02 0.  0.
         11    1    3    3    0    0  0.85832734760E+02  0.32688839597E+00  0.15511888121E+02  0.87223757575E+02  0.00000000000E+00 0. -1.
        -12    1    3    3    0    0  0.84574583952E+03  0.16667165701E+03 -0.35614247851E+02  0.86274784321E+03  0.00000000000E+00 0.  1.
         15    1    5    5    0    0 -0.15614620614E+03  0.57822768081E+02 -0.28061813390E+02  0.16886602174E+03  0.17770000000E+01 0. -1.
        -16    1    5    5    0    0 -0.61621583413E+03  0.55901232475E+02 -0.13501328893E+03  0.63330521094E+03  0.00000000000E+00 0.  1.
          2    1    6    6  502    0 -0.26004877018E+02 -0.21869441840E+02 -0.38522594293E+02  0.51366490888E+02  0.00000000000E+00 0. -1.
         -1    1    6    6    0  502 -0.13321165700E+03 -0.25885310412E+03 -0.66523751189E+02  0.29862298060E+03  0.00000000000E+00 0.  1.
<mgrwt>
<rscale>  0 0.10291037E+04</rscale>
<asrwt>0</asrwt>
<pdfrwt beam="1">  1        1 0.18387355E+00 0.10291037E+04</pdfrwt>
<pdfrwt beam="2">  1       -2 0.13953142E+00 0.10291037E+04</pdfrwt>
<totfact> 0.34008958E+00</totfact>
</mgrwt>
</event>
<event>
12    3  0.1182097E-007  0.8185369E+03  0.7818608E-02  0.9533567E-01
          1   -1    0    0  501    0  0.00000000000E+00  0.00000000000E+00  0.53966884732E+03  0.53966884732E+03  0.00000000000E+00 0. -1.
         -2   -1    0    0    0  501 -0.00000000000E+00 -0.00000000000E+00 -0.15243663042E+04  0.15243663042E+04  0.00000000000E+00 0.  1.
        -24    2    1    2    0    0  0.12459928599E+03  0.70134226131E+03 -0.86720039087E+03  0.11251028422E+04  0.80087065702E+02 0.  0.
    5000000    2    1    2    0    0 -0.12459928599E+03 -0.70134226131E+03 -0.11749706598E+03  0.93893230926E+03  0.60031855817E+03 0.  0.
        -24    2    4    4    0    0 -0.34860085105E+03 -0.31418538906E+03 -0.86621857702E+02  0.48380819904E+03  0.79573960384E+02 0.  0.
         24    2    4    4    0    0  0.22400156506E+03 -0.38715687224E+03 -0.30875208276E+02  0.45512411022E+03  0.78214655532E+02 0.  0.
         13    1    3    3    0    0  0.11955455630E+03  0.48088997484E+03 -0.62391222025E+03  0.79675273355E+03  0.00000000000E+00 0. -1.
        -14    1    3    3    0    0  0.50447296861E+01  0.22045228647E+03 -0.24328817061E+03  0.32835010867E+03  0.00000000000E+00 0.  1.
         15    1    5    5    0    0 -0.34533118952E+03 -0.29792060451E+03 -0.72077357932E+02  0.46174518980E+03  0.17770000000E+01 0. -1.
        -16    1    5    5    0    0 -0.32696615285E+01 -0.16264784557E+02 -0.14544499770E+02  0.22063009241E+02  0.00000000000E+00 0.  1.
          2    1    6    6  502    0  0.17272401292E+03 -0.27065232498E+03  0.10606661533E+02  0.32124564888E+03  0.00000000000E+00 0. -1.
         -1    1    6    6    0  502  0.51277552137E+02 -0.11650454727E+03 -0.41481869810E+02  0.13387846134E+03  0.00000000000E+00 0.  1.
<mgrwt>
<rscale>  0 0.81853695E+03</rscale>
<asrwt>0</asrwt>
<pdfrwt beam="1">  1        1 0.83025977E-01 0.81853695E+03</pdfrwt>
<pdfrwt beam="2">  1       -2 0.23451789E+00 0.81853695E+03</pdfrwt>
<totfact> 0.28572975E+00</totfact>
</mgrwt>
</event>
<event>
12    3  0.1182097E-007  0.1770009E+04  0.7818608E-02  0.8722413E-01
         -2   -1    0    0    0  501 -0.00000000000E+00  0.00000000000E+00  0.17897534097E+04  0.17897534097E+04  0.00000000000E+00 0.  1.
          1   -1    0    0  501    0  0.00000000000E+00 -0.00000000000E+00 -0.19697073343E+04  0.19697073343E+04  0.00000000000E+00 0. -1.
        -24    2    1    2    0    0  0.12049412570E+04  0.12454852387E+04  0.49709739837E+03  0.18045700733E+04  0.79059557729E+02 0.  0.
    5000000    2    1    2    0    0 -0.12049412570E+04 -0.12454852387E+04 -0.67705132297E+03  0.19548906706E+04  0.60006843583E+03 0.  0.
        -24    2    4    4    0    0 -0.94128825752E+03 -0.62334111068E+03 -0.56671615294E+03  0.12655715171E+04  0.76982743796E+02 0.  0.
         24    2    4    4    0    0 -0.26365299947E+03 -0.62214412797E+03 -0.11033517003E+03  0.68931915355E+03  0.80067631402E+02 0.  0.
         11    1    3    3    0    0  0.51438792829E+03  0.52977155465E+03  0.17124358632E+03  0.75800871152E+03  0.00000000000E+00 0. -1.
        -12    1    3    3    0    0  0.69055332870E+03  0.71571368400E+03  0.32585381204E+03  0.10465613618E+04  0.00000000000E+00 0.  1.
         15    1    5    5    0    0 -0.54390591144E+03 -0.39772939866E+03 -0.31400341604E+03  0.74338658723E+03  0.17770000000E+01 0. -1.
        -16    1    5    5    0    0 -0.39738234608E+03 -0.22561171202E+03 -0.25271273690E+03  0.52218492986E+03  0.00000000000E+00 0.  1.
          4    1    6    6  502    0 -0.13750220062E+03 -0.28846698421E+03 -0.90086423871E+02  0.33201749942E+03  0.00000000000E+00 0. -1.
         -3    1    6    6    0  502 -0.12615079885E+03 -0.33367714376E+03 -0.20248746159E+02  0.35730165412E+03  0.00000000000E+00 0.  1.
<mgrwt>
<rscale>  0 0.17700087E+04</rscale>
<asrwt>0</asrwt>
<pdfrwt beam="1">  1        1 0.30303190E+00 0.17700087E+04</pdfrwt>
<pdfrwt beam="2">  1       -2 0.27534668E+00 0.17700087E+04</pdfrwt>
<totfact> 0.11240595E-01</totfact>
</mgrwt>
</event>
<event>
12    3  0.1182097E-007  0.8003177E+03  0.7818608E-02  0.9559557E-01
          1   -1    0    0  501    0  0.00000000000E+00  0.00000000000E+00  0.11201531122E+04  0.11201531122E+04  0.00000000000E+00 0. -1.
         -2   -1    0    0    0  501 -0.00000000000E+00 -0.00000000000E+00 -0.11939235495E+04  0.11939235495E+04  0.00000000000E+00 0.  1.
        -24    2    1    2    0    0  0.30312306655E+03 -0.63497108136E+03 -0.85035615010E+03  0.11065799019E+04  0.79634349944E+02 0.  0.
    5000000    2    1    2    0    0 -0.30312306655E+03  0.63497108136E+03  0.77658571280E+03  0.12074967598E+04  0.59990931644E+03 0.  0.
        -24    2    4    4    0    0  0.75797261904E+02  0.46314222822E+03  0.27293622046E+03  0.54880348740E+03  0.80281622203E+02 0.  0.
         24    2    4    4    0    0 -0.37892032845E+03  0.17182885314E+03  0.50364949234E+03  0.65869327240E+03  0.84310413855E+02 0.  0.
         11    1    3    3    0    0  0.53666978027E+02 -0.12194491180E+03 -0.11576370983E+03  0.17649912906E+03  0.00000000000E+00 0. -1.
        -12    1    3    3    0    0  0.24945608852E+03 -0.51302616956E+03 -0.73459244027E+03  0.93008077287E+03  0.00000000000E+00 0.  1.
         15    1    5    5    0    0 -0.10173694907E+02  0.12048446560E+03  0.48669848540E+02  0.13035306826E+03  0.17770000000E+01 0. -1.
        -16    1    5    5    0    0  0.85970956811E+02  0.34265776262E+03  0.22426637192E+03  0.41845041914E+03  0.00000000000E+00 0.  1.
          4    1    6    6  502    0 -0.32562674070E+03  0.17439088100E+03  0.41841363082E+03  0.55813521667E+03  0.00000000000E+00 0. -1.
         -3    1    6    6    0  502 -0.53293587750E+02 -0.25620278603E+01  0.85235861528E+02  0.10055805573E+03  0.00000000000E+00 0.  1.
<mgrwt>
<rscale>  0 0.80031770E+03</rscale>
<asrwt>0</asrwt>
<pdfrwt beam="1">  1        1 0.17233125E+00 0.80031770E+03</pdfrwt>
<pdfrwt beam="2">  1       -2 0.18368055E+00 0.80031770E+03</pdfrwt>
<totfact> 0.18795547E+00</totfact>
</mgrwt>
</event>
<event>
12    3  0.1182097E-007  0.8226024E+03  0.7818608E-02  0.9527865E-01
         -2   -1    0    0    0  501 -0.00000000000E+00  0.00000000000E+00  0.92481519519E+03  0.92481519519E+03  0.00000000000E+00 0.  1.
          1   -1    0    0  501    0  0.00000000000E+00 -0.00000000000E+00 -0.10165350336E+04  0.10165350336E+04  0.00000000000E+00 0. -1.
        -24    2    1    2    0    0 -0.31306509198E+03 -0.74563626457E+03  0.29221053749E+03  0.86364695710E+03  0.80720985061E+02 0.  0.
    5000000    2    1    2    0    0  0.31306509198E+03  0.74563626457E+03 -0.38393037594E+03  0.10777032717E+04  0.60004884591E+03 0.  0.
        -24    2    4    4    0    0  0.30025155391E+03  0.63400176475E+03 -0.52522186812E+03  0.88049992208E+03  0.85515312672E+02 0.  0.
         24    2    4    4    0    0  0.12813538077E+02  0.11163449982E+03  0.14129149217E+03  0.19720334965E+03  0.79368929981E+02 0.  0.
         13    1    3    3    0    0 -0.27077344381E+03 -0.55656644602E+03  0.22574163183E+03  0.65881996861E+03  0.00000000000E+00 0. -1.
        -14    1    3    3    0    0 -0.42291648176E+02 -0.18906981855E+03  0.66468905665E+02  0.20482698849E+03  0.00000000000E+00 0.  1.
         15    1    5    5    0    0  0.32671620457E+02  0.60894260078E+02 -0.86557990781E+02  0.11077449702E+03  0.17770000000E+01 0. -1.
        -16    1    5    5    0    0  0.26757993345E+03  0.57310750467E+03 -0.43866387734E+03  0.76972542506E+03  0.00000000000E+00 0.  1.
          4    1    6    6  502    0  0.39871426787E+02  0.52992565324E+02  0.10182251555E+03  0.12151447373E+03  0.00000000000E+00 0. -1.
         -3    1    6    6    0  502 -0.27057888710E+02  0.58641934493E+02  0.39468976627E+02  0.75688875923E+02  0.00000000000E+00 0.  1.
<mgrwt>
<rscale>  0 0.82260237E+03</rscale>
<asrwt>0</asrwt>
<pdfrwt beam="1">  1        1 0.15639000E+00 0.82260237E+03</pdfrwt>
<pdfrwt beam="2">  1       -2 0.14227926E+00 0.82260237E+03</pdfrwt>
<totfact> 0.45058795E+00</totfact>
</mgrwt>
</event>
<event>
12    3  0.1182097E-007  0.6195646E+03  0.7818608E-02  0.9865627E-01
         -2   -1    0    0    0  501 -0.00000000000E+00  0.00000000000E+00  0.11462809877E+04  0.11462809877E+04  0.00000000000E+00 0.  1.
          1   -1    0    0  501    0  0.00000000000E+00 -0.00000000000E+00 -0.48680834515E+03  0.48680834515E+03  0.00000000000E+00 0. -1.
        -24    2    1    2    0    0 -0.21765043208E+03 -0.42712179595E+03 -0.15831227165E+03  0.51122885728E+03  0.80544583965E+02 0.  0.
    5000000    2    1    2    0    0  0.21765043208E+03  0.42712179595E+03  0.81778491417E+03  0.11218604755E+04  0.59999501793E+03 0.  0.
        -24    2    4    4    0    0  0.20016405674E+03 -0.96920159337E+02  0.22292258071E+03  0.32492846740E+03  0.80155255865E+02 0.  0.
         24    2    4    4    0    0  0.17486375343E+02  0.52404195528E+03  0.59486233346E+03  0.79693200812E+03  0.79458703593E+02 0.  0.
         13    1    3    3    0    0 -0.91049268566E+02 -0.26606303266E+03 -0.94285721923E+02  0.29659619690E+03  0.00000000000E+00 0. -1.
        -14    1    3    3    0    0 -0.12660116352E+03 -0.16105876329E+03 -0.64026549730E+02  0.21463266039E+03  0.00000000000E+00 0.  1.
         15    1    5    5    0    0  0.13290389783E+03 -0.90161131293E+02  0.11482513951E+03  0.19743466273E+03  0.17770000000E+01 0. -1.
        -16    1    5    5    0    0  0.67260158914E+02 -0.67590280438E+01  0.10809744120E+03  0.12749380468E+03  0.00000000000E+00 0.  1.
          4    1    6    6  502    0 -0.56498960067E+01  0.13650761004E+03  0.10752090968E+03  0.17385912384E+03  0.00000000000E+00 0. -1.
         -3    1    6    6    0  502  0.23136271350E+02  0.38753434525E+03  0.48734142378E+03  0.62307288428E+03  0.00000000000E+00 0.  1.
<mgrwt>
<rscale>  0 0.61956456E+03</rscale>
<asrwt>0</asrwt>
<pdfrwt beam="1">  1        1 0.74893592E-01 0.61956456E+03</pdfrwt>
<pdfrwt beam="2">  1       -2 0.17635092E+00 0.61956456E+03</pdfrwt>
<totfact> 0.80275993E+00</totfact>
</mgrwt>
</event>
<event>
12    3  0.1182097E-007  0.6932289E+03  0.7818608E-02  0.9728882E-01
         -2   -1    0    0    0  501 -0.00000000000E+00  0.00000000000E+00  0.23708207880E+03  0.23708207880E+03  0.00000000000E+00 0.  1.
          1   -1    0    0  501    0  0.00000000000E+00 -0.00000000000E+00 -0.26032080283E+04  0.26032080283E+04  0.00000000000E+00 0. -1.
        -24    2    1    2    0    0  0.54747707247E+03  0.36701290493E+03 -0.81403946276E+03  0.10504241203E+04  0.79378639243E+02 0.  0.
    5000000    2    1    2    0    0 -0.54747707247E+03 -0.36701290493E+03 -0.15520864868E+04  0.17898659868E+04  0.60018178166E+03 0.  0.
        -24    2    4    4    0    0 -0.49852469510E+03 -0.21075686027E+03 -0.56499532414E+03  0.78643492347E+03  0.79466010210E+02 0.  0.
         24    2    4    4    0    0 -0.48952377366E+02 -0.15625604467E+03 -0.98709116262E+03  0.10034310633E+04  0.75582066470E+02 0.  0.
         13    1    3    3    0    0  0.42858070359E+03  0.24583697353E+03 -0.60157997872E+03  0.77847010722E+03  0.00000000000E+00 0. -1.
        -14    1    3    3    0    0  0.11889636888E+03  0.12117593141E+03 -0.21245948404E+03  0.27195401310E+03  0.00000000000E+00 0.  1.
         15    1    5    5    0    0 -0.44410920663E+03 -0.20771607032E+03 -0.48503429250E+03  0.68966685864E+03  0.17770000000E+01 0. -1.
        -16    1    5    5    0    0 -0.54415488472E+02 -0.30407899438E+01 -0.79961031639E+02  0.96768064825E+02  0.00000000000E+00 0.  1.
          2    1    6    6  502    0 -0.17736087099E+02 -0.14268718070E+03 -0.72331319379E+03  0.73746605117E+03  0.00000000000E+00 0. -1.
         -1    1    6    6    0  502 -0.31216290267E+02 -0.13568863968E+02 -0.26377796883E+03  0.26596501215E+03  0.00000000000E+00 0.  1.
<mgrwt>
<rscale>  0 0.69322892E+03</rscale>
<asrwt>0</asrwt>
<pdfrwt beam="1">  1        1 0.40049354E+00 0.69322892E+03</pdfrwt>
<pdfrwt beam="2">  1       -2 0.36474166E-01 0.69322892E+03</pdfrwt>
<totfact> 0.75941319E+00</totfact>
</mgrwt>
</event>
<event>
12    3  0.1182097E-007  0.6113979E+03  0.7818608E-02  0.9882037E-01
          1   -1    0    0  501    0  0.00000000000E+00  0.00000000000E+00  0.76906007244E+03  0.76906007244E+03  0.00000000000E+00 0. -1.
         -2   -1    0    0    0  501 -0.00000000000E+00 -0.00000000000E+00 -0.62117894352E+03  0.62117894352E+03  0.00000000000E+00 0.  1.
        -24    2    1    2    0    0 -0.30496202459E+03 -0.34924096577E+03 -0.25131564186E+03  0.53335443620E+03  0.79600968290E+02 0.  0.
    5000000    2    1    2    0    0  0.30496202459E+03  0.34924096577E+03  0.39919677077E+03  0.85688457976E+03  0.59993502367E+03 0.  0.
        -24    2    4    4    0    0 -0.96709238924E+02 -0.91002550694E+02  0.53599070109E+02  0.16306713957E+03  0.77999298482E+02 0.  0.
         24    2    4    4    0    0  0.40167126351E+03  0.44024351647E+03  0.34559770066E+03  0.69381744020E+03  0.82405775833E+02 0.  0.
         11    1    3    3    0    0 -0.26097366028E+02 -0.74599686299E+02 -0.42671592799E+02  0.89816760916E+02  0.00000000000E+00 0. -1.
        -12    1    3    3    0    0 -0.27886465856E+03 -0.27464127948E+03 -0.20864404906E+03  0.44353767528E+03  0.00000000000E+00 0.  1.
         15    1    5    5    0    0 -0.58309906482E+02 -0.47682147202E+01  0.29965874485E+02  0.65756310938E+02  0.17770000000E+01 0. -1.
        -16    1    5    5    0    0 -0.38399332442E+02 -0.86234335974E+02  0.23633195623E+02  0.97310828628E+02  0.00000000000E+00 0.  1.
          2    1    6    6  502    0  0.34287878110E+03  0.40593043412E+03  0.28654409922E+03  0.60369934294E+03  0.00000000000E+00 0. -1.
         -1    1    6    6    0  502  0.58792482413E+02  0.34313082348E+02  0.59053601448E+02  0.90118097253E+02  0.00000000000E+00 0.  1.
<mgrwt>
<rscale>  0 0.61139791E+03</rscale>
<asrwt>0</asrwt>
<pdfrwt beam="1">  1        1 0.11831693E+00 0.61139791E+03</pdfrwt>
<pdfrwt beam="2">  1       -2 0.95565992E-01 0.61139791E+03</pdfrwt>
<totfact> 0.19642489E+01</totfact>
</mgrwt>
</event>
<event>
12    3  0.1182097E-007  0.1228136E+04  0.7818608E-02  0.9088580E-01
         -2   -1    0    0    0  501 -0.00000000000E+00  0.00000000000E+00  0.17245109292E+04  0.17245109292E+04  0.00000000000E+00 0.  1.
          1   -1    0    0  501    0  0.00000000000E+00 -0.00000000000E+00 -0.11132210256E+04  0.11132210256E+04  0.00000000000E+00 0. -1.
        -24    2    1    2    0    0 -0.10115079635E+04  0.59492533733E+03 -0.32426251597E+03  0.12214141163E+04  0.98090503720E+02 0.  0.
    5000000    2    1    2    0    0  0.10115079635E+04 -0.59492533733E+03  0.93555241962E+03  0.16163178385E+04  0.60011707862E+03 0.  0.
        -24    2    4    4    0    0  0.10471000017E+04 -0.56190346037E+03  0.94696543192E+03  0.15216058793E+04  0.79918774406E+02 0.  0.
         24    2    4    4    0    0 -0.35592038184E+02 -0.33021876960E+02 -0.11413012295E+02  0.94711959183E+02  0.80516214657E+02 0.  0.
         11    1    3    3    0    0 -0.15704920632E+03  0.66430575052E+02 -0.74856156240E+02  0.18622813599E+03  0.00000000000E+00 0. -1.
        -12    1    3    3    0    0 -0.85445875717E+03  0.52849476228E+03 -0.24940635973E+03  0.10351859803E+04  0.00000000000E+00 0.  1.
         15    1    5    5    0    0  0.39586809045E+03 -0.20280743635E+03  0.30674073321E+03  0.54031050000E+03  0.17770000000E+01 0. -1.
        -16    1    5    5    0    0  0.65123191123E+03 -0.35909602402E+03  0.64022469871E+03  0.98129537934E+03  0.00000000000E+00 0.  1.
          4    1    6    6  502    0  0.21057896297E+02 -0.28935961425E+02 -0.12491438064E+02  0.37904628806E+02  0.00000000000E+00 0. -1.
         -3    1    6    6    0  502 -0.56649934481E+02 -0.40859155353E+01  0.10784257689E+01  0.56807330377E+02  0.00000000000E+00 0.  1.
<mgrwt>
<rscale>  0 0.12281357E+04</rscale>
<asrwt>0</asrwt>
<pdfrwt beam="1">  1        1 0.17126477E+00 0.12281357E+04</pdfrwt>
<pdfrwt beam="2">  1       -2 0.26530937E+00 0.12281357E+04</pdfrwt>
<totfact> 0.54798726E-01</totfact>
</mgrwt>
</event>
<event>
12    3  0.1182097E-007  0.1366837E+04  0.7818608E-02  0.8978180E-01
         -2   -1    0    0    0  501 -0.00000000000E+00  0.00000000000E+00  0.18045161938E+04  0.18045161938E+04  0.00000000000E+00 0.  1.
          1   -1    0    0  501    0  0.00000000000E+00 -0.00000000000E+00 -0.10699741976E+04  0.10699741976E+04  0.00000000000E+00 0. -1.
        -24    2    1    2    0    0 -0.63066801632E+03 -0.11451576868E+04  0.56367925458E+03  0.14259448741E+04  0.80350527853E+02 0.  0.
    5000000    2    1    2    0    0  0.63066801632E+03  0.11451576868E+04  0.17086274165E+03  0.14485455173E+04  0.59996813642E+03 0.  0.
        -24    2    4    4    0    0  0.13795922896E+03  0.82117053904E+03  0.16944394616E+03  0.85348656892E+03  0.79839021786E+02 0.  0.
         24    2    4    4    0    0  0.49270878736E+03  0.32398714779E+03  0.14187954917E+01  0.59505894839E+03  0.79771661650E+02 0.  0.
         11    1    3    3    0    0 -0.17249952202E+03 -0.33392855063E+03  0.12436748594E+03  0.39589346241E+03  0.00000000000E+00 0. -1.
        -12    1    3    3    0    0 -0.45816849430E+03 -0.81122913620E+03  0.43931176864E+03  0.10300514117E+04  0.00000000000E+00 0.  1.
         15    1    5    5    0    0  0.58927805465E+01  0.24519726442E+03  0.39272888478E+02  0.24839875370E+03  0.17770000000E+01 0. -1.
        -16    1    5    5    0    0  0.13206644841E+03  0.57597327462E+03  0.13017105768E+03  0.60508781522E+03  0.00000000000E+00 0.  1.
          2    1    6    6  502    0  0.91430459905E+02  0.51954768150E+02 -0.29676199295E+02  0.10926803621E+03  0.00000000000E+00 0. -1.
         -1    1    6    6    0  502  0.40127832746E+03  0.27203237964E+03  0.31094994787E+02  0.48579091218E+03  0.00000000000E+00 0.  1.
<mgrwt>
<rscale>  0 0.13668365E+04</rscale>
<asrwt>0</asrwt>
<pdfrwt beam="1">  1        1 0.16461142E+00 0.13668365E+04</pdfrwt>
<pdfrwt beam="2">  1       -2 0.27761788E+00 0.13668365E+04</pdfrwt>
<totfact> 0.48981806E-01</totfact>
</mgrwt>
</event>
<event>
12    3  0.1182097E-007  0.3954260E+03  0.7818608E-02  0.1045375E+00
          1   -1    0    0  501    0  0.00000000000E+00  0.00000000000E+00  0.60449963382E+03  0.60449963382E+03  0.00000000000E+00 0. -1.
         -2   -1    0    0    0  501 -0.00000000000E+00 -0.00000000000E+00 -0.33809816287E+03  0.33809816287E+03  0.00000000000E+00 0.  1.
        -24    2    1    2    0    0 -0.12026635877E+03  0.14105445252E+03  0.24110574049E+03  0.31409134768E+03  0.78492298723E+02 0.  0.
    5000000    2    1    2    0    0  0.12026635877E+03 -0.14105445252E+03  0.25295730464E+02  0.62850644902E+03  0.60001677214E+03 0.  0.
        -24    2    4    4    0    0 -0.22996066521E+03 -0.67842782206E+02 -0.45554789993E+02  0.25617386426E+03  0.77879773981E+02 0.  0.
         24    2    4    4    0    0  0.35022702398E+03 -0.73211670316E+02  0.70850520457E+02  0.37233258476E+03  0.74785295509E+02 0.  0.
         13    1    3    3    0    0 -0.36398502189E+02  0.36465153707E+02  0.13046251640E+03  0.14026769615E+03  0.00000000000E+00 0. -1.
        -14    1    3    3    0    0 -0.83867856578E+02  0.10458929881E+03  0.11064322409E+03  0.17382365153E+03  0.00000000000E+00 0.  1.
         15    1    5    5    0    0 -0.83734096488E+02 -0.27231910764E+02  0.20877107607E+02  0.90509597445E+02  0.17770000000E+01 0. -1.
        -16    1    5    5    0    0 -0.14622656873E+03 -0.40610871442E+02 -0.66431897600E+02  0.16566426682E+03  0.00000000000E+00 0.  1.
          2    1    6    6  502    0  0.15021385016E+03  0.59416021771E+01  0.33266339356E+02  0.15396802509E+03  0.00000000000E+00 0. -1.
         -1    1    6    6    0  502  0.20001317382E+03 -0.79153272493E+02  0.37584181101E+02  0.21836455967E+03  0.00000000000E+00 0.  1.
<mgrwt>
<rscale>  0 0.39542603E+03</rscale>
<asrwt>0</asrwt>
<pdfrwt beam="1">  1        1 0.92999943E-01 0.39542603E+03</pdfrwt>
<pdfrwt beam="2">  1       -2 0.52015102E-01 0.39542603E+03</pdfrwt>
<totfact> 0.10808300E+02</totfact>
</mgrwt>
</event>
<event>
12    3  0.1182097E-007  0.6389942E+03  0.7818608E-02  0.9827653E-01
          1   -1    0    0  501    0  0.00000000000E+00  0.00000000000E+00  0.26944883144E+04  0.26944883144E+04  0.00000000000E+00 0. -1.
         -2   -1    0    0    0  501 -0.00000000000E+00 -0.00000000000E+00 -0.21014446119E+03  0.21014446119E+03  0.00000000000E+00 0.  1.
        -24    2    1    2    0    0 -0.49831689596E+03  0.19699741874E+03  0.16861868843E+04  0.17710609424E+04  0.79391063257E+02 0.  0.
    5000000    2    1    2    0    0  0.49831689596E+03 -0.19699741874E+03  0.79815696890E+03  0.11335718332E+04  0.60066866267E+03 0.  0.
        -24    2    4    4    0    0  0.19316087705E+03  0.16295186531E+03  0.90663249766E+02  0.27963497675E+03  0.78175830868E+02 0.  0.
         24    2    4    4    0    0  0.30515601891E+03 -0.35994928406E+03  0.70749371913E+03  0.85393685649E+03  0.77311766836E+02 0.  0.
         13    1    3    3    0    0 -0.23163357422E+03  0.12897656517E+03  0.88988359825E+03  0.92853749817E+03  0.00000000000E+00 0. -1.
        -14    1    3    3    0    0 -0.26668332174E+03  0.68020853572E+02  0.79630328610E+03  0.84252344422E+03  0.00000000000E+00 0.  1.
         15    1    5    5    0    0  0.63888215335E+02  0.96142074936E+02  0.17517260712E+02  0.11676906604E+03  0.17770000000E+01 0. -1.
        -16    1    5    5    0    0  0.12927266171E+03  0.66809790376E+02  0.73145989054E+02  0.16286591071E+03  0.00000000000E+00 0.  1.
          4    1    6    6  502    0  0.89261327460E+02 -0.15575468623E+03  0.29977299115E+03  0.34941515864E+03  0.00000000000E+00 0. -1.
         -3    1    6    6    0  502  0.21589469145E+03 -0.20419459782E+03  0.40772072798E+03  0.50452169786E+03  0.00000000000E+00 0.  1.
<mgrwt>
<rscale>  0 0.63899421E+03</rscale>
<asrwt>0</asrwt>
<pdfrwt beam="1">  1        1 0.41453664E+00 0.63899421E+03</pdfrwt>
<pdfrwt beam="2">  1       -2 0.32329919E-01 0.63899421E+03</pdfrwt>
<totfact> 0.83410064E+00</totfact>
</mgrwt>
</event>
<event>
12    3  0.1182097E-007  0.1789714E+04  0.7818608E-02  0.8711789E-01
          1   -1    0    0  501    0  0.00000000000E+00  0.00000000000E+00  0.18818078107E+04  0.18818078107E+04  0.00000000000E+00 0. -1.
         -2   -1    0    0    0  501 -0.00000000000E+00 -0.00000000000E+00 -0.21515992445E+04  0.21515992445E+04  0.00000000000E+00 0.  1.
        -24    2    1    2    0    0 -0.58039788452E+03  0.16518906084E+04 -0.10295837183E+04  0.20326426000E+04  0.77388755872E+02 0.  0.
    5000000    2    1    2    0    0  0.58039788452E+03 -0.16518906084E+04  0.75979228450E+03  0.20007644552E+04  0.60014148586E+03 0.  0.
        -24    2    4    4    0    0  0.74377406975E+02 -0.98782821465E+03  0.55103100409E+03  0.11363781362E+04  0.79896937829E+02 0.  0.
         24    2    4    4    0    0  0.50602047755E+03 -0.66406239378E+03  0.20876128041E+03  0.86438631899E+03  0.80912605501E+02 0.  0.
         11    1    3    3    0    0 -0.17888227735E+03  0.53224756084E+03 -0.28956998152E+03  0.63177298879E+03  0.00000000000E+00 0. -1.
        -12    1    3    3    0    0 -0.40151560717E+03  0.11196430476E+04 -0.74001373681E+03  0.14008696112E+04  0.00000000000E+00 0.  1.
         15    1    5    5    0    0  0.76306224035E+02 -0.70017848544E+03  0.42234170831E+03  0.82124796963E+03  0.17770000000E+01 0. -1.
        -16    1    5    5    0    0 -0.19288170597E+01 -0.28764972921E+03  0.12868929578E+03  0.31513016659E+03  0.00000000000E+00 0.  1.
          4    1    6    6  502    0  0.27591954589E+03 -0.31949904069E+03  0.13744631876E+03  0.44396252471E+03  0.00000000000E+00 0. -1.
         -3    1    6    6    0  502  0.23010093166E+03 -0.34456335308E+03  0.71314961649E+02  0.42042379427E+03  0.00000000000E+00 0.  1.
<mgrwt>
<rscale>  0 0.17897141E+04</rscale>
<asrwt>0</asrwt>
<pdfrwt beam="1">  1        1 0.28950889E+00 0.17897141E+04</pdfrwt>
<pdfrwt beam="2">  1       -2 0.33101527E+00 0.17897141E+04</pdfrwt>
<totfact> 0.58519939E-02</totfact>
</mgrwt>
</event>
<event>
12    3  0.1182097E-007  0.1445095E+04  0.7818608E-02  0.8921808E-01
          1   -1    0    0  501    0  0.00000000000E+00  0.00000000000E+00  0.13880176035E+04  0.13880176035E+04  0.00000000000E+00 0. -1.
         -2   -1    0    0    0  501 -0.00000000000E+00 -0.00000000000E+00 -0.16508084460E+04  0.16508084460E+04  0.00000000000E+00 0.  1.
        -24    2    1    2    0    0  0.25219500728E+03  0.13744102952E+04  0.27387757231E+03  0.14261657111E+04  0.79584733048E+02 0.  0.
    5000000    2    1    2    0    0 -0.25219500728E+03 -0.13744102952E+04 -0.53666841473E+03  0.16126603384E+04  0.60004533017E+03 0.  0.
        -24    2    4    4    0    0  0.11672737480E+03 -0.74181746064E+02 -0.20529451996E+02  0.16365140220E+03  0.85041822456E+02 0.  0.
         24    2    4    4    0    0 -0.36892238208E+03 -0.13002285492E+04 -0.51613896273E+03  0.14490089362E+04  0.80805099964E+02 0.  0.
         13    1    3    3    0    0  0.15947329173E+03  0.82070034087E+03  0.20251708698E+03  0.86022901067E+03  0.00000000000E+00 0. -1.
        -14    1    3    3    0    0  0.92721715550E+02  0.55370995435E+03  0.71360485332E+02  0.56593670048E+03  0.00000000000E+00 0.  1.
         15    1    5    5    0    0  0.10799010288E+03 -0.59743083326E+02  0.14982643868E+02  0.12433316401E+03  0.17770000000E+01 0. -1.
        -16    1    5    5    0    0  0.87372719222E+01 -0.14438662738E+02 -0.35512095864E+02  0.39318238198E+02  0.00000000000E+00 0.  1.
          4    1    6    6  502    0 -0.31529907278E+03 -0.10410672834E+04 -0.38725397422E+03  0.11546429034E+04  0.00000000000E+00 0. -1.
         -3    1    6    6    0  502 -0.53623309304E+02 -0.25916126573E+03 -0.12888498852E+03  0.29436603272E+03  0.00000000000E+00 0.  1.
<mgrwt>
<rscale>  0 0.14450953E+04</rscale>
<asrwt>0</asrwt>
<pdfrwt beam="1">  1        1 0.21354117E+00 0.14450953E+04</pdfrwt>
<pdfrwt beam="2">  1       -2 0.25397053E+00 0.14450953E+04</pdfrwt>
<totfact> 0.39586372E-01</totfact>
</mgrwt>
</event>
<event>
12    3  0.1182097E-007  0.3372983E+03  0.7818608E-02  0.1067952E+00
          1   -1    0    0  501    0  0.00000000000E+00  0.00000000000E+00  0.13310592960E+03  0.13310592960E+03  0.00000000000E+00 0. -1.
         -2   -1    0    0    0  501 -0.00000000000E+00 -0.00000000000E+00 -0.12535569375E+04  0.12535569375E+04  0.00000000000E+00 0.  1.
        -24    2    1    2    0    0 -0.10228492948E+03 -0.23994984444E+02 -0.50030158156E+03  0.51752563559E+03  0.80580052802E+02 0.  0.
    5000000    2    1    2    0    0  0.10228492948E+03  0.23994984444E+02 -0.62014942634E+03  0.86913723150E+03  0.59981351278E+03 0.  0.
        -24    2    4    4    0    0  0.16584036715E+03  0.26075239096E+03 -0.20424371929E+03  0.37911336333E+03  0.80725514037E+02 0.  0.
         24    2    4    4    0    0 -0.63555437670E+02 -0.23675740652E+03 -0.41590570705E+03  0.49002386818E+03  0.83978991581E+02 0.  0.
         11    1    3    3    0    0 -0.10405349594E+03 -0.19127510040E+02 -0.31773929669E+03  0.33488991075E+03  0.00000000000E+00 0. -1.
        -12    1    3    3    0    0  0.17685664643E+01 -0.48674744042E+01 -0.18256228487E+03  0.18263572485E+03  0.00000000000E+00 0.  1.
         15    1    5    5    0    0  0.75235518798E+02  0.18655385416E+03 -0.11359120293E+03  0.23101697535E+03  0.17770000000E+01 0. -1.
        -16    1    5    5    0    0  0.90604848347E+02  0.74198536804E+02 -0.90652516367E+02  0.14809638798E+03  0.00000000000E+00 0.  1.
          2    1    6    6  502    0 -0.42223495173E+02 -0.13800207929E+03 -0.16312828940E+03  0.21780320529E+03  0.00000000000E+00 0. -1.
         -1    1    6    6    0  502 -0.21331942497E+02 -0.98755327223E+02 -0.25277741765E+03  0.27222066288E+03  0.00000000000E+00 0.  1.
<mgrwt>
<rscale>  0 0.33729835E+03</rscale>
<asrwt>0</asrwt>
<pdfrwt beam="1">  1        1 0.20477835E-01 0.33729835E+03</pdfrwt>
<pdfrwt beam="2">  1       -2 0.19285492E+00 0.33729835E+03</pdfrwt>
<totfact> 0.34680412E+01</totfact>
</mgrwt>
</event>
<event>
12    3  0.1182097E-007  0.9393455E+03  0.7818608E-02  0.9377691E-01
         -2   -1    0    0    0  501 -0.00000000000E+00  0.00000000000E+00  0.69176943378E+03  0.69176943378E+03  0.00000000000E+00 0.  1.
          1   -1    0    0  501    0  0.00000000000E+00 -0.00000000000E+00 -0.17250563568E+04  0.17250563568E+04  0.00000000000E+00 0. -1.
        -24    2    1    2    0    0  0.57023671453E+03  0.73636739988E+03 -0.50777741498E+02  0.93599051975E+03  0.78057772387E+02 0.  0.
    5000000    2    1    2    0    0 -0.57023671453E+03 -0.73636739988E+03 -0.98250918151E+03  0.14808352708E+04  0.60011827944E+03 0.  0.
        -24    2    4    4    0    0 -0.32040191795E+03 -0.49864931112E+03 -0.21375139157E+03  0.63450923198E+03  0.74858423484E+02 0.  0.
         24    2    4    4    0    0 -0.24983479658E+03 -0.23771808876E+03 -0.76875778993E+03  0.84632603882E+03  0.79698865118E+02 0.  0.
         13    1    3    3    0    0  0.22341733806E+03  0.35118289267E+03 -0.16920748206E+02  0.41657057358E+03  0.00000000000E+00 0. -1.
        -14    1    3    3    0    0  0.34681937648E+03  0.38518450721E+03 -0.33856993292E+02  0.51941994618E+03  0.00000000000E+00 0.  1.
         15    1    5    5    0    0 -0.20306003965E+02 -0.75042815649E+01 -0.53340029935E+01  0.22366433684E+02  0.17770000000E+01 0. -1.
        -16    1    5    5    0    0 -0.30009591398E+03 -0.49114502956E+03 -0.20841738858E+03  0.61214279830E+03  0.00000000000E+00 0.  1.
          4    1    6    6  502    0 -0.11021934904E+02 -0.18035559415E+01 -0.72660600849E+02  0.73513935949E+02  0.00000000000E+00 0. -1.
         -3    1    6    6    0  502 -0.23881286168E+03 -0.23591453282E+03 -0.69609718908E+03  0.77281210287E+03  0.00000000000E+00 0.  1.
<mgrwt>
<rscale>  0 0.93934554E+03</rscale>
<asrwt>0</asrwt>
<pdfrwt beam="1">  1        1 0.26539328E+00 0.93934554E+03</pdfrwt>
<pdfrwt beam="2">  1       -2 0.10642607E+00 0.93934554E+03</pdfrwt>
<totfact> 0.28900086E+00</totfact>
</mgrwt>
</event>
<event>
12    3  0.1182097E-007  0.1081403E+04  0.7818608E-02  0.9223509E-01
         -4   -1    0    0    0  501 -0.00000000000E+00  0.00000000000E+00  0.26286920905E+04  0.26286920905E+04  0.00000000000E+00 0.  1.
          1   -1    0    0  501    0  0.00000000000E+00 -0.00000000000E+00 -0.46775094892E+03  0.46775094892E+03  0.00000000000E+00 0. -1.
        -24    2    1    2    0    0 -0.41833821344E+03 -0.93643957094E+03  0.96397772377E+03  0.14097550036E+04  0.78931536685E+02 0.  0.
    5000000    2    1    2    0    0  0.41833821344E+03  0.93643957094E+03  0.11969634178E+04  0.16866880358E+04  0.60022427113E+03 0.  0.
        -24    2    4    4    0    0  0.51458846660E+03  0.74386474920E+03  0.72546654751E+03  0.11621502723E+04  0.78456923287E+02 0.  0.
         24    2    4    4    0    0 -0.96250253160E+02  0.19257482174E+03  0.47149687031E+03  0.52453776349E+03  0.80507101634E+02 0.  0.
         11    1    3    3    0    0 -0.33807086871E+03 -0.69628879581E+03  0.75777807795E+03  0.10832070969E+04  0.00000000000E+00 0. -1.
        -12    1    3    3    0    0 -0.80267344725E+02 -0.24015077513E+03  0.20619964582E+03  0.32654790668E+03  0.00000000000E+00 0.  1.
         15    1    5    5    0    0  0.32586593361E+03  0.53352080411E+03  0.49014298219E+03  0.79440314440E+03  0.17770000000E+01 0. -1.
        -16    1    5    5    0    0  0.18872253299E+03  0.21034394509E+03  0.23532356531E+03  0.36774712791E+03  0.00000000000E+00 0.  1.
          4    1    6    6  502    0 -0.40545960490E+02  0.17635090383E+02  0.12178116343E+03  0.12955934197E+03  0.00000000000E+00 0. -1.
         -3    1    6    6    0  502 -0.55704292670E+02  0.17493973136E+03  0.34971570688E+03  0.39497842152E+03  0.00000000000E+00 0.  1.
<mgrwt>
<rscale>  0 0.10814033E+04</rscale>
<asrwt>0</asrwt>
<pdfrwt beam="1">  1        1 0.71961686E-01 0.10814033E+04</pdfrwt>
<pdfrwt beam="2">  1       -4 0.40441416E+00 0.10814033E+04</pdfrwt>
<totfact> 0.14764213E-01</totfact>
</mgrwt>
</event>
<event>
12    3  0.1182097E-007  0.6409610E+03  0.7818608E-02  0.9823890E-01
          1   -1    0    0  501    0  0.00000000000E+00  0.00000000000E+00  0.20588367496E+04  0.20588367496E+04  0.00000000000E+00 0. -1.
         -2   -1    0    0    0  501 -0.00000000000E+00 -0.00000000000E+00 -0.23328634079E+03  0.23328634079E+03  0.00000000000E+00 0.  1.
        -24    2    1    2    0    0 -0.47439523264E+03 -0.23795955139E+03  0.45029425465E+03  0.70059827123E+03  0.79983979794E+02 0.  0.
    5000000    2    1    2    0    0  0.47439523264E+03  0.23795955139E+03  0.13752561541E+04  0.15915248191E+04  0.59995514467E+03 0.  0.
        -24    2    4    4    0    0  0.96817824165E+02  0.34501457234E+03  0.88962024410E+03  0.96232395636E+03  0.78958673235E+02 0.  0.
         24    2    4    4    0    0  0.37757740847E+03 -0.10705502095E+03  0.48563591003E+03  0.62920086277E+03  0.77627390147E+02 0.  0.
         13    1    3    3    0    0 -0.30060173744E+03 -0.14231205579E+03  0.23127585734E+03  0.40509585034E+03  0.00000000000E+00 0. -1.
        -14    1    3    3    0    0 -0.17379349520E+03 -0.95647495604E+02  0.21901839731E+03  0.29550242089E+03  0.00000000000E+00 0.  1.
         15    1    5    5    0    0  0.11810042872E+02  0.33240674434E+02  0.16765494987E+03  0.17133522549E+03  0.17770000000E+01 0. -1.
        -16    1    5    5    0    0  0.85007781293E+02  0.31177389791E+03  0.72196529423E+03  0.79098873087E+03  0.00000000000E+00 0.  1.
          2    1    6    6  502    0  0.29593641079E+03 -0.85717100329E+02  0.42656142687E+03  0.52619429055E+03  0.00000000000E+00 0. -1.
         -1    1    6    6    0  502  0.81640997681E+02 -0.21337920623E+02  0.59074483163E+02  0.10300657222E+03  0.00000000000E+00 0.  1.
<mgrwt>
<rscale>  0 0.64096096E+03</rscale>
<asrwt>0</asrwt>
<pdfrwt beam="1">  1        1 0.31674410E+00 0.64096096E+03</pdfrwt>
<pdfrwt beam="2">  1       -2 0.35890208E-01 0.64096096E+03</pdfrwt>
<totfact> 0.18404458E+01</totfact>
</mgrwt>
</event>
<event>
12    3  0.1182097E-007  0.9399776E+03  0.7818608E-02  0.9376943E-01
          1   -1    0    0  501    0  0.00000000000E+00  0.00000000000E+00  0.15340958025E+04  0.15340958025E+04  0.00000000000E+00 0. -1.
         -2   -1    0    0    0  501 -0.00000000000E+00 -0.00000000000E+00 -0.66109881412E+03  0.66109881412E+03  0.00000000000E+00 0.  1.
        -24    2    1    2    0    0  0.78607068904E+03 -0.40897426012E+03  0.65026713394E+03  0.11021408241E+04  0.81853387408E+02 0.  0.
    5000000    2    1    2    0    0 -0.78607068904E+03  0.40897426012E+03  0.22272985447E+03  0.10930537926E+04  0.59999244309E+03 0.  0.
        -24    2    4    4    0    0 -0.81079505190E+03  0.31095614928E+03  0.32800310968E+03  0.93173200885E+03  0.80350192281E+02 0.  0.
         24    2    4    4    0    0  0.24724362860E+02  0.98018110847E+02 -0.10527325521E+03  0.16132178372E+03  0.68727108682E+02 0.  0.
         13    1    3    3    0    0  0.50458453731E+03 -0.22206585899E+03  0.38195673925E+03  0.67067857553E+03  0.00000000000E+00 0. -1.
        -14    1    3    3    0    0  0.28148615173E+03 -0.18690840113E+03  0.26831039470E+03  0.43146224856E+03  0.00000000000E+00 0.  1.
         15    1    5    5    0    0 -0.70166272420E+03  0.26027155662E+03  0.25322771220E+03  0.79006284159E+03  0.17770000000E+01 0. -1.
        -16    1    5    5    0    0 -0.10913232770E+03  0.50684592659E+02  0.74775397483E+02  0.14166916726E+03  0.00000000000E+00 0.  1.
          2    1    6    6  502    0 -0.23400532135E+02  0.22133210342E+02 -0.31602778853E+02  0.45124267699E+02  0.00000000000E+00 0. -1.
         -1    1    6    6    0  502  0.48124894995E+02  0.75884900505E+02 -0.73670476353E+02  0.11619751602E+03  0.00000000000E+00 0.  1.
<mgrwt>
<rscale>  0 0.93997757E+03</rscale>
<asrwt>0</asrwt>
<pdfrwt beam="1">  1        1 0.23601474E+00 0.93997757E+03</pdfrwt>
<pdfrwt beam="2">  1       -2 0.10170751E+00 0.93997757E+03</pdfrwt>
<totfact> 0.43469520E+00</totfact>
</mgrwt>
</event>
<event>
12    3  0.1182097E-007  0.5189817E+03  0.7818608E-02  0.1008940E+00
          1   -1    0    0  501    0  0.00000000000E+00  0.00000000000E+00  0.19387133515E+04  0.19387133515E+04  0.00000000000E+00 0. -1.
         -2   -1    0    0    0  501 -0.00000000000E+00 -0.00000000000E+00 -0.15666996012E+03  0.15666996012E+03  0.00000000000E+00 0.  1.
        -24    2    1    2    0    0 -0.29607980730E+03  0.24115218556E+03  0.59835547135E+03  0.71448161408E+03  0.81468262977E+02 0.  0.
    5000000    2    1    2    0    0  0.29607980730E+03 -0.24115218556E+03  0.11836879200E+04  0.13809016975E+04  0.59996231327E+03 0.  0.
        -24    2    4    4    0    0  0.43266156265E+03 -0.24304585088E+03  0.63397883444E+03  0.80909990084E+03  0.80288066353E+02 0.  0.
         24    2    4    4    0    0 -0.13658175534E+03  0.18936653248E+01  0.54970908555E+03  0.57180179666E+03  0.78224382838E+02 0.  0.
         11    1    3    3    0    0 -0.14045461642E+03  0.74756674360E+02  0.19992284818E+03  0.25550969621E+03  0.00000000000E+00 0. -1.
        -12    1    3    3    0    0 -0.15562519089E+03  0.16639551119E+03  0.39843262317E+03  0.45897191787E+03  0.00000000000E+00 0.  1.
         15    1    5    5    0    0  0.33382147962E+03 -0.21936954377E+03  0.53029531925E+03  0.66390967784E+03  0.17770000000E+01 0. -1.
        -16    1    5    5    0    0  0.98840083022E+02 -0.23676307108E+02  0.10368351520E+03  0.14519022300E+03  0.00000000000E+00 0.  1.
          4    1    6    6  502    0 -0.73877083831E+02 -0.29815766839E+02  0.37738905388E+03  0.38570623725E+03  0.00000000000E+00 0. -1.
         -3    1    6    6    0  502 -0.62704671510E+02  0.31709432164E+02  0.17232003167E+03  0.18609555941E+03  0.00000000000E+00 0.  1.
<mgrwt>
<rscale>  0 0.51898166E+03</rscale>
<asrwt>0</asrwt>
<pdfrwt beam="1">  1        1 0.29826358E+00 0.51898166E+03</pdfrwt>
<pdfrwt beam="2">  1       -2 0.24103072E-01 0.51898166E+03</pdfrwt>
<totfact> 0.46996215E+01</totfact>
</mgrwt>
</event>
<event>
12    3  0.1182097E-007  0.7092914E+03  0.7818608E-02  0.9701473E-01
          1   -1    0    0  501    0  0.00000000000E+00  0.00000000000E+00  0.19770785984E+04  0.19770785984E+04  0.00000000000E+00 0. -1.
         -2   -1    0    0    0  501 -0.00000000000E+00 -0.00000000000E+00 -0.40390893277E+03  0.40390893277E+03  0.00000000000E+00 0.  1.
        -24    2    1    2    0    0 -0.68379937539E+01  0.65934893021E+03  0.11832546965E+03  0.67471617046E+03  0.80331961134E+02 0.  0.
    5000000    2    1    2    0    0  0.68379937539E+01 -0.65934893021E+03  0.14548441960E+04  0.17062713607E+04  0.60000212654E+03 0.  0.
        -24    2    4    4    0    0  0.17967757848E+03 -0.40827333967E+03  0.12474421457E+04  0.13288680039E+04  0.10395726417E+03 0.  0.
         24    2    4    4    0    0 -0.17283958472E+03 -0.25107559054E+03  0.20740205028E+03  0.37740335683E+03  0.80654876288E+02 0.  0.
         11    1    3    3    0    0 -0.75037440918E+01  0.33243591158E+03  0.19070231707E+02  0.33306698309E+03  0.00000000000E+00 0. -1.
        -12    1    3    3    0    0  0.66575033795E+00  0.32691301863E+03  0.99255237938E+02  0.34164918737E+03  0.00000000000E+00 0.  1.
         15    1    5    5    0    0  0.85652289500E+02 -0.27376435300E+03  0.90014511115E+03  0.94474738133E+03  0.17770000000E+01 0. -1.
        -16    1    5    5    0    0  0.94025288978E+02 -0.13450898667E+03  0.34729703456E+03  0.38412062256E+03  0.00000000000E+00 0.  1.
          2    1    6    6  502    0 -0.10793456007E+03 -0.11677665858E+03  0.14674546403E+03  0.21638134961E+03  0.00000000000E+00 0. -1.
         -3    1    6    6    0  502 -0.64905024657E+02 -0.13429893196E+03  0.60656586249E+02  0.16102200721E+03  0.00000000000E+00 0.  1.
<mgrwt>
<rscale>  0 0.70929136E+03</rscale>
<asrwt>0</asrwt>
<pdfrwt beam="1">  1        1 0.30416593E+00 0.70929136E+03</pdfrwt>
<pdfrwt beam="2">  1       -2 0.62139837E-01 0.70929136E+03</pdfrwt>
<totfact> 0.68384741E+00</totfact>
</mgrwt>
</event>
<event>
12    3  0.1182097E-007  0.7181519E+03  0.7818608E-02  0.9686684E-01
         -2   -1    0    0    0  501 -0.00000000000E+00  0.00000000000E+00  0.49471914763E+03  0.49471914763E+03  0.00000000000E+00 0.  1.
          1   -1    0    0  501    0  0.00000000000E+00 -0.00000000000E+00 -0.12547405948E+04  0.12547405948E+04  0.00000000000E+00 0. -1.
        -24    2    1    2    0    0  0.63594360319E+03  0.87357257629E+01 -0.88316357928E+02  0.64697567847E+03  0.79228594068E+02 0.  0.
    5000000    2    1    2    0    0 -0.63594360319E+03 -0.87357257629E+01 -0.67170508928E+03  0.11024840640E+04  0.59981897690E+03 0.  0.
        -24    2    4    4    0    0 -0.51795493512E+03 -0.20551439866E+03 -0.64775105373E+03  0.85855055199E+03  0.83750461751E+02 0.  0.
         24    2    4    4    0    0 -0.11798866806E+03  0.19677867290E+03 -0.23954035552E+02  0.24393351200E+03  0.79288022789E+02 0.  0.
         11    1    3    3    0    0  0.18911183959E+03  0.35827846107E+02 -0.41340330203E+02  0.19686529743E+03  0.00000000000E+00 0. -1.
        -12    1    3    3    0    0  0.44683176359E+03 -0.27092120344E+02 -0.46976027725E+02  0.45011038104E+03  0.00000000000E+00 0.  1.
         15    1    5    5    0    0 -0.38036855381E+03 -0.12204737185E+03 -0.50095450738E+03  0.64072956378E+03  0.17770000000E+01 0. -1.
        -16    1    5    5    0    0 -0.13758638131E+03 -0.83467026812E+02 -0.14679654635E+03  0.21782098822E+03  0.00000000000E+00 0.  1.
          2    1    6    6  502    0 -0.55258588726E+02  0.44047829547E+02  0.19292409111E+02  0.73252439995E+02  0.00000000000E+00 0. -1.
         -1    1    6    6    0  502 -0.62730079336E+02  0.15273084335E+03 -0.43246444663E+02  0.17068107200E+03  0.00000000000E+00 0.  1.
<mgrwt>
<rscale>  0 0.71815191E+03</rscale>
<asrwt>0</asrwt>
<pdfrwt beam="1">  1        1 0.19303702E+00 0.71815191E+03</pdfrwt>
<pdfrwt beam="2">  1       -2 0.76110638E-01 0.71815191E+03</pdfrwt>
<totfact> 0.13635581E+01</totfact>
</mgrwt>
</event>
<event>
12    3  0.1182097E-007  0.3513678E+03  0.7818608E-02  0.1062055E+00
         -2   -1    0    0    0  501 -0.00000000000E+00  0.00000000000E+00  0.47671157520E+03  0.47671157520E+03  0.00000000000E+00 0.  1.
          1   -1    0    0  501    0  0.00000000000E+00 -0.00000000000E+00 -0.50268223015E+03  0.50268223015E+03  0.00000000000E+00 0. -1.
        -24    2    1    2    0    0 -0.27084816151E+03 -0.12520722068E+03 -0.21462597179E+02  0.30959678234E+03  0.79711666984E+02 0.  0.
    5000000    2    1    2    0    0  0.27084816151E+03  0.12520722068E+03 -0.45080577751E+01  0.66979702301E+03  0.59964335629E+03 0.  0.
        -24    2    4    4    0    0  0.53900326720E+02  0.14392015143E+03  0.26364634080E+03  0.31464403503E+03  0.76636939886E+02 0.  0.
         24    2    4    4    0    0  0.21694783479E+03 -0.18712930747E+02 -0.26815439858E+03  0.35515298797E+03  0.82524702912E+02 0.  0.
         11    1    3    3    0    0 -0.35546261815E+02 -0.44963570382E+02  0.12543326205E+02  0.58673626297E+02  0.00000000000E+00 0. -1.
        -12    1    3    3    0    0 -0.23530189969E+03 -0.80243650302E+02 -0.34005923385E+02  0.25092315604E+03  0.00000000000E+00 0.  1.
         15    1    5    5    0    0 -0.48174416378E+01  0.88770654116E+02  0.16354479924E+03  0.18615449461E+03  0.17770000000E+01 0. -1.
        -16    1    5    5    0    0  0.58717768358E+02  0.55149497316E+02  0.10010154156E+03  0.12848954042E+03  0.00000000000E+00 0.  1.
          2    1    6    6  502    0  0.65368262295E+02 -0.36246536558E+02 -0.12658149115E+03  0.14700236403E+03  0.00000000000E+00 0. -1.
         -1    1    6    6    0  502  0.15157957249E+03  0.17533605812E+02 -0.14157290743E+03  0.20815062394E+03  0.00000000000E+00 0.  1.
<mgrwt>
<rscale>  0 0.35136778E+03</rscale>
<asrwt>0</asrwt>
<pdfrwt beam="1">  1        1 0.77335728E-01 0.35136778E+03</pdfrwt>
<pdfrwt beam="2">  1       -2 0.73340242E-01 0.35136778E+03</pdfrwt>
<totfact> 0.67998335E+01</totfact>
</mgrwt>
</event>
<event>
12    3  0.1182097E-007  0.9982811E+03  0.7818608E-02  0.9310432E-01
         -2   -1    0    0    0  501 -0.00000000000E+00  0.00000000000E+00  0.18976643628E+04  0.18976643628E+04  0.00000000000E+00 0.  1.
          1   -1    0    0  501    0  0.00000000000E+00 -0.00000000000E+00 -0.61838184941E+03  0.61838184941E+03  0.00000000000E+00 0. -1.
        -24    2    1    2    0    0 -0.19639221277E+03  0.90565949392E+03  0.10231032337E+04  0.13826786698E+04  0.79190005466E+02 0.  0.
    5000000    2    1    2    0    0  0.19639221277E+03 -0.90565949392E+03  0.25617927967E+03  0.11333675424E+04  0.60008761245E+03 0.  0.
        -24    2    4    4    0    0 -0.13822021688E+03 -0.56659699906E+03  0.38065395679E+01  0.58862002569E+03  0.79511365291E+02 0.  0.
         24    2    4    4    0    0  0.33461242965E+03 -0.33906249487E+03  0.25237274010E+03  0.54474751668E+03  0.78287952374E+02 0.  0.
         11    1    3    3    0    0 -0.13662456299E+03  0.46485316593E+03  0.50596972075E+03  0.70054271491E+03  0.00000000000E+00 0. -1.
        -12    1    3    3    0    0 -0.59767649779E+02  0.44080632799E+03  0.51713351294E+03  0.68213595490E+03  0.00000000000E+00 0.  1.
         15    1    5    5    0    0 -0.58144089749E+02 -0.15160630192E+03  0.30131070450E+02  0.16515521515E+03  0.17770000000E+01 0. -1.
        -16    1    5    5    0    0 -0.80076127130E+02 -0.41499069713E+03 -0.26324530882E+02  0.42346481054E+03  0.00000000000E+00 0.  1.
          4    1    6    6  502    0  0.16043009875E+02  0.11670144411E+01  0.38606778876E+01  0.16542216366E+02  0.00000000000E+00 0. -1.
         -3    1    6    6    0  502  0.31856941978E+03 -0.34022950931E+03  0.24851206221E+03  0.52820530032E+03  0.00000000000E+00 0.  1.
<mgrwt>
<rscale>  0 0.99828108E+03</rscale>
<asrwt>0</asrwt>
<pdfrwt beam="1">  1        1 0.95135670E-01 0.99828108E+03</pdfrwt>
<pdfrwt beam="2">  1       -2 0.29194836E+00 0.99828108E+03</pdfrwt>
<totfact> 0.10307018E+00</totfact>
</mgrwt>
</event>
<event>
12    3  0.1182097E-007  0.1504390E+04  0.7818608E-02  0.8881539E-01
         -2   -1    0    0    0  501 -0.00000000000E+00  0.00000000000E+00  0.21127468387E+04  0.21127468387E+04  0.00000000000E+00 0.  1.
          1   -1    0    0  501    0  0.00000000000E+00 -0.00000000000E+00 -0.34274773172E+04  0.34274773172E+04  0.00000000000E+00 0. -1.
        -24    2    1    2    0    0  0.10075645200E+04 -0.11155281211E+04  0.16060979994E+04  0.22010197006E+04  0.73127887222E+02 0.  0.
    5000000    2    1    2    0    0 -0.10075645200E+04  0.11155281211E+04 -0.29208284780E+04  0.33392044553E+04  0.59954828420E+03 0.  0.
        -24    2    4    4    0    0 -0.33927734690E+03  0.35345785346E+03 -0.15810453820E+04  0.16571396124E+04  0.79784852609E+02 0.  0.
         24    2    4    4    0    0 -0.66828717314E+03  0.76207026762E+03 -0.13397830960E+04  0.16820648429E+04  0.83453895543E+02 0.  0.
         13    1    3    3    0    0  0.75362747601E+03 -0.86807499239E+03  0.12581638483E+04  0.17042549206E+04  0.00000000000E+00 0. -1.
        -14    1    3    3    0    0  0.25393704404E+03 -0.24745312869E+03  0.34793415108E+03  0.49676478007E+03  0.00000000000E+00 0.  1.
         15    1    5    5    0    0 -0.10934342520E+02  0.49468170013E+01 -0.97144015722E+02  0.97898663752E+02  0.17770000000E+01 0. -1.
        -16    1    5    5    0    0 -0.32834300438E+03  0.34851103645E+03 -0.14839013663E+04  0.15592409486E+04  0.00000000000E+00 0.  1.
          4    1    6    6  502    0 -0.15915929561E+03  0.17214822416E+03 -0.25484327310E+03  0.34628281261E+03  0.00000000000E+00 0. -1.
         -3    1    6    6    0  502 -0.50912787753E+03  0.58992204345E+03 -0.10849398229E+04  0.13357820302E+04  0.00000000000E+00 0.  1.
<mgrwt>
<rscale>  0 0.15043900E+04</rscale>
<asrwt>0</asrwt>
<pdfrwt beam="1">  1        1 0.52730420E+00 0.15043900E+04</pdfrwt>
<pdfrwt beam="2">  1       -2 0.32503798E+00 0.15043900E+04</pdfrwt>
<totfact> 0.52648143E-03</totfact>
</mgrwt>
</event>
<event>
12    3  0.1182097E-007  0.3546819E+03  0.7818608E-02  0.1060710E+00
         -2   -1    0    0    0  501 -0.00000000000E+00  0.00000000000E+00  0.23358373415E+03  0.23358373415E+03  0.00000000000E+00 0.  1.
          1   -1    0    0  501    0  0.00000000000E+00 -0.00000000000E+00 -0.11145863294E+04  0.11145863294E+04  0.00000000000E+00 0. -1.
        -24    2    1    2    0    0 -0.26561546764E+02 -0.32161451195E+03 -0.36388722595E+03  0.49279534105E+03  0.79321654545E+02 0.  0.
    5000000    2    1    2    0    0  0.26561546764E+02  0.32161451195E+03 -0.51711536925E+03  0.85537472247E+03  0.60009682607E+03 0.  0.
        -24    2    4    4    0    0 -0.24779980997E+02  0.26904697948E+03 -0.63422843623E+03  0.69556392544E+03  0.92537238005E+02 0.  0.
         24    2    4    4    0    0  0.51341527761E+02  0.52567532469E+02  0.11711306698E+03  0.15981079704E+03  0.80154366377E+02 0.  0.
         13    1    3    3    0    0  0.21992427839E+02 -0.88512888321E+02 -0.72581279275E+02  0.11656002909E+03  0.00000000000E+00 0. -1.
        -14    1    3    3    0    0 -0.48553974603E+02 -0.23310162363E+03 -0.29130594668E+03  0.37623531195E+03  0.00000000000E+00 0.  1.
         15    1    5    5    0    0 -0.26021575070E+02  0.26907000347E+03 -0.63729256324E+03  0.69225772515E+03  0.17770000000E+01 0. -1.
        -16    1    5    5    0    0  0.12415940725E+01 -0.23023994014E-01  0.30641270140E+01  0.33062002817E+01  0.00000000000E+00 0.  1.
          4    1    6    6  502    0 -0.18797436479E+02  0.28865286837E+02  0.32179985990E+02  0.47139154645E+02  0.00000000000E+00 0. -1.
         -3    1    6    6    0  502  0.70138964240E+02  0.23702245632E+02  0.84933080988E+02  0.11267164239E+03  0.00000000000E+00 0.  1.
<mgrwt>
<rscale>  0 0.35468189E+03</rscale>
<asrwt>0</asrwt>
<pdfrwt beam="1">  1        1 0.17147482E+00 0.35468189E+03</pdfrwt>
<pdfrwt beam="2">  1       -2 0.35935960E-01 0.35468189E+03</pdfrwt>
<totfact> 0.84262790E+01</totfact>
</mgrwt>
</event>
<event>
12    3  0.1182097E-007  0.7190818E+03  0.7818608E-02  0.9685145E-01
         -2   -1    0    0    0  501 -0.00000000000E+00  0.00000000000E+00  0.12639044519E+04  0.12639044519E+04  0.00000000000E+00 0.  1.
          1   -1    0    0  501    0  0.00000000000E+00 -0.00000000000E+00 -0.54059645782E+03  0.54059645782E+03  0.00000000000E+00 0. -1.
        -24    2    1    2    0    0  0.39391853142E+03 -0.57652269541E+03  0.14584032338E+03  0.71778256486E+03  0.79951127396E+02 0.  0.
    5000000    2    1    2    0    0 -0.39391853142E+03  0.57652269541E+03  0.57746767067E+03  0.10867183448E+04  0.59994801659E+03 0.  0.
        -24    2    4    4    0    0 -0.18283382244E+03  0.11614687822E+03  0.52263702474E+03  0.57113527509E+03  0.78279875267E+02 0.  0.
         24    2    4    4    0    0 -0.21108470898E+03  0.46037581719E+03  0.54830645926E+02  0.51558306974E+03  0.79478642725E+02 0.  0.
         11    1    3    3    0    0  0.24857330379E+03 -0.41847907663E+03  0.80537521894E+02  0.49335556891E+03  0.00000000000E+00 0. -1.
        -12    1    3    3    0    0  0.14534522762E+03 -0.15804361878E+03  0.65302801491E+02  0.22442699595E+03  0.00000000000E+00 0.  1.
         15    1    5    5    0    0 -0.89211567433E+02  0.10169660955E+03  0.32147746931E+03  0.34878621699E+03  0.17770000000E+01 0. -1.
        -16    1    5    5    0    0 -0.93622255004E+02  0.14450268670E+02  0.20115955543E+03  0.22234905810E+03  0.00000000000E+00 0.  1.
          4    1    6    6  502    0 -0.12204205652E+03  0.24811206963E+03  0.68939180732E+02  0.28496749515E+03  0.00000000000E+00 0. -1.
         -3    1    6    6    0  502 -0.89042652463E+02  0.21226374756E+03 -0.14108534806E+02  0.23061557459E+03  0.00000000000E+00 0.  1.
<mgrwt>
<rscale>  0 0.71908178E+03</rscale>
<asrwt>0</asrwt>
<pdfrwt beam="1">  1        1 0.83168686E-01 0.71908178E+03</pdfrwt>
<pdfrwt beam="2">  1       -2 0.19444684E+00 0.71908178E+03</pdfrwt>
<totfact> 0.51799449E+00</totfact>
</mgrwt>
</event>
<event>
12    3  0.1182097E-007  0.8055063E+03  0.7818608E-02  0.9552081E-01
          1   -1    0    0  501    0  0.00000000000E+00  0.00000000000E+00  0.79558957072E+03  0.79558957072E+03  0.00000000000E+00 0. -1.
         -2   -1    0    0    0  501 -0.00000000000E+00 -0.00000000000E+00 -0.96057411717E+03  0.96057411717E+03  0.00000000000E+00 0.  1.
        -24    2    1    2    0    0 -0.64558632539E+03 -0.33895570679E+03  0.17155768375E+03  0.75359805988E+03  0.82494377441E+02 0.  0.
    5000000    2    1    2    0    0  0.64558632539E+03  0.33895570679E+03 -0.33654223020E+03  0.10025656280E+04  0.60017038503E+03 0.  0.
        -24    2    4    4    0    0  0.19825408145E+02  0.24328983441E+03  0.39520636877E+02  0.26191878842E+03  0.86351494772E+02 0.  0.
         24    2    4    4    0    0  0.62576091724E+03  0.95665872371E+02 -0.37606286708E+03  0.74064683959E+03  0.80036093820E+02 0.  0.
         13    1    3    3    0    0 -0.45118232353E+03 -0.22267540311E+03  0.15497194013E+03  0.52646569351E+03  0.00000000000E+00 0. -1.
        -14    1    3    3    0    0 -0.19440400186E+03 -0.11628030367E+03  0.16585743626E+02  0.22713236637E+03  0.00000000000E+00 0.  1.
         15    1    5    5    0    0 -0.13369659639E+02  0.90305150439E+02  0.51653338037E+02  0.10490468557E+03  0.17770000000E+01 0. -1.
        -16    1    5    5    0    0  0.33195067784E+02  0.15298468398E+03 -0.12132701160E+02  0.15701410285E+03  0.00000000000E+00 0.  1.
          2    1    6    6  502    0  0.52751128854E+03  0.89522912664E+02 -0.28348996711E+03  0.60551554305E+03  0.00000000000E+00 0. -1.
         -1    1    6    6    0  502  0.98249628700E+02  0.61429597070E+01 -0.92572899975E+02  0.13513129654E+03  0.00000000000E+00 0.  1.
<mgrwt>
<rscale>  0 0.80550630E+03</rscale>
<asrwt>0</asrwt>
<pdfrwt beam="1">  1        1 0.12239840E+00 0.80550630E+03</pdfrwt>
<pdfrwt beam="2">  1       -2 0.14778063E+00 0.80550630E+03</pdfrwt>
<totfact> 0.61907054E+00</totfact>
</mgrwt>
</event>
<event>
12    3  0.1182097E-007  0.4873564E+03  0.7818608E-02  0.1017133E+00
         -2   -1    0    0    0  501 -0.00000000000E+00  0.00000000000E+00  0.26779081368E+03  0.26779081368E+03  0.00000000000E+00 0.  1.
          1   -1    0    0  501    0  0.00000000000E+00 -0.00000000000E+00 -0.14657339236E+04  0.14657339236E+04  0.00000000000E+00 0. -1.
        -24    2    1    2    0    0 -0.47122696767E+03 -0.83950937340E+02 -0.48190011843E+03  0.68389943560E+03  0.79925583679E+02 0.  0.
    5000000    2    1    2    0    0  0.47122696767E+03  0.83950937340E+02 -0.71604299152E+03  0.10496253017E+04  0.59991090453E+03 0.  0.
        -24    2    4    4    0    0  0.17291979866E+03  0.51953498848E+01  0.68756953471E+02  0.20271925101E+03  0.80245421374E+02 0.  0.
         24    2    4    4    0    0  0.29830716901E+03  0.78755587456E+02 -0.78479994499E+03  0.84690605071E+03  0.78417443424E+02 0.  0.
         13    1    3    3    0    0 -0.15146609856E+03  0.45250467033E+01 -0.18035767968E+03  0.23556601554E+03  0.00000000000E+00 0. -1.
        -14    1    3    3    0    0 -0.31976086912E+03 -0.88475984044E+02 -0.30154243875E+03  0.44833342006E+03  0.00000000000E+00 0.  1.
         15    1    5    5    0    0  0.80777935568E+02 -0.18483313408E+02  0.68588060315E+02  0.10758339786E+03  0.17770000000E+01 0. -1.
        -16    1    5    5    0    0  0.92141863093E+02  0.23678663293E+02  0.16889315595E+00  0.95135853150E+02  0.00000000000E+00 0.  1.
          4    1    6    6  502    0  0.26174945717E+03  0.87145407580E+02 -0.73097616102E+03  0.78130227721E+03  0.00000000000E+00 0. -1.
         -1    1    6    6    0  502  0.36557711840E+02 -0.83898201245E+01 -0.53823783970E+02  0.65603773501E+02  0.00000000000E+00 0.  1.
<mgrwt>
<rscale>  0 0.48735640E+03</rscale>
<asrwt>0</asrwt>
<pdfrwt beam="1">  1        1 0.22549752E+00 0.48735640E+03</pdfrwt>
<pdfrwt beam="2">  1       -2 0.41198587E-01 0.48735640E+03</pdfrwt>
<totfact> 0.36031916E+01</totfact>
</mgrwt>
</event>
<event>
12    3  0.1182097E-007  0.1062346E+04  0.7818608E-02  0.9242690E-01
         -2   -1    0    0    0  501 -0.00000000000E+00  0.00000000000E+00  0.13391716184E+04  0.13391716184E+04  0.00000000000E+00 0.  1.
          1   -1    0    0  501    0  0.00000000000E+00 -0.00000000000E+00 -0.12017067095E+04  0.12017067095E+04  0.00000000000E+00 0. -1.
        -24    2    1    2    0    0  0.58356454510E+03  0.80183905654E+03 -0.60472256907E+03  0.11644776676E+04  0.82615989974E+02 0.  0.
    5000000    2    1    2    0    0 -0.58356454510E+03 -0.80183905654E+03  0.74218747798E+03  0.13764006604E+04  0.60011921690E+03 0.  0.
        -24    2    4    4    0    0 -0.68678243615E+03 -0.64481378441E+03  0.67163361596E+03  0.11597657946E+04  0.80684900284E+02 0.  0.
         24    2    4    4    0    0  0.10321789105E+03 -0.15702527213E+03  0.70553862017E+02  0.21663486573E+03  0.81498150193E+02 0.  0.
         11    1    3    3    0    0  0.37316861889E+03  0.47166118616E+03 -0.40384012557E+03  0.72443491058E+03  0.00000000000E+00 0. -1.
        -12    1    3    3    0    0  0.21039592621E+03  0.33017787039E+03 -0.20088244350E+03  0.44004275697E+03  0.00000000000E+00 0.  1.
         15    1    5    5    0    0 -0.63254977026E+03 -0.57614557716E+03  0.63195356066E+03  0.10636876414E+04  0.17770000000E+01 0. -1.
        -16    1    5    5    0    0 -0.54232665889E+02 -0.68668207248E+02  0.39680055297E+02  0.96078153211E+02  0.00000000000E+00 0.  1.
          2    1    6    6  502    0  0.19958522088E+02 -0.43418095925E+02 -0.17081974814E+02  0.50747093722E+02  0.00000000000E+00 0. -1.
         -1    1    6    6    0  502  0.83259368965E+02 -0.11360717621E+03  0.87635836831E+02  0.16588777201E+03  0.00000000000E+00 0.  1.
<mgrwt>
<rscale>  0 0.10623457E+04</rscale>
<asrwt>0</asrwt>
<pdfrwt beam="1">  1        1 0.18487795E+00 0.10623457E+04</pdfrwt>
<pdfrwt beam="2">  1       -2 0.20602640E+00 0.10623457E+04</pdfrwt>
<totfact> 0.11235804E+00</totfact>
</mgrwt>
</event>
<event>
12    3  0.1182097E-007  0.6071304E+03  0.7818608E-02  0.9890722E-01
         -2   -1    0    0    0  501 -0.00000000000E+00  0.00000000000E+00  0.54627002783E+03  0.54627002783E+03  0.00000000000E+00 0.  1.
          1   -1    0    0  501    0  0.00000000000E+00 -0.00000000000E+00 -0.11283034421E+04  0.11283034421E+04  0.00000000000E+00 0. -1.
        -24    2    1    2    0    0 -0.24246336053E+03  0.45796038268E+03  0.19982187460E+03  0.56110481439E+03  0.79960226761E+02 0.  0.
    5000000    2    1    2    0    0  0.24246336053E+03 -0.45796038268E+03 -0.78185528891E+03  0.11134686556E+04  0.59999880075E+03 0.  0.
        -24    2    4    4    0    0  0.36882659745E+03 -0.32685892865E+03 -0.76290717647E+03  0.91217958745E+03  0.84701957651E+02 0.  0.
         24    2    4    4    0    0 -0.12636323692E+03 -0.13110145403E+03 -0.18948112435E+02  0.20128906814E+03  0.83683923743E+02 0.  0.
         11    1    3    3    0    0 -0.17507754909E+03  0.36388382391E+03  0.12270510328E+03  0.42204280336E+03  0.00000000000E+00 0. -1.
        -12    1    3    3    0    0 -0.67385811441E+02  0.94076558766E+02  0.77116771317E+02  0.13906201103E+03  0.00000000000E+00 0.  1.
         15    1    5    5    0    0  0.28291627976E+03 -0.22122145251E+03 -0.49386433477E+03  0.61064366965E+03  0.17770000000E+01 0. -1.
        -16    1    5    5    0    0  0.85910317691E+02 -0.10563747613E+03 -0.26904284171E+03  0.30153591780E+03  0.00000000000E+00 0.  1.
          4    1    6    6  502    0 -0.11439774972E+02  0.11538685236E+02 -0.70939197697E+01  0.17729450248E+02  0.00000000000E+00 0. -1.
         -3    1    6    6    0  502 -0.11492346195E+03 -0.14264013927E+03 -0.11854192665E+02  0.18355961789E+03  0.00000000000E+00 0.  1.
<mgrwt>
<rscale>  0 0.60713044E+03</rscale>
<asrwt>0</asrwt>
<pdfrwt beam="1">  1        1 0.17358514E+00 0.60713044E+03</pdfrwt>
<pdfrwt beam="2">  1       -2 0.84041543E-01 0.60713044E+03</pdfrwt>
<totfact> 0.13679918E+01</totfact>
</mgrwt>
</event>
<event>
12    3  0.1182097E-007  0.7553857E+03  0.7818608E-02  0.9626939E-01
         -2   -1    0    0    0  501 -0.00000000000E+00  0.00000000000E+00  0.94598349120E+03  0.94598349120E+03  0.00000000000E+00 0.  1.
          1   -1    0    0  501    0  0.00000000000E+00 -0.00000000000E+00 -0.67566921011E+03  0.67566921011E+03  0.00000000000E+00 0. -1.
        -24    2    1    2    0    0  0.60337277499E+03  0.32119144623E+03  0.14920091087E+03  0.70398797183E+03  0.78201674867E+02 0.  0.
    5000000    2    1    2    0    0 -0.60337277499E+03 -0.32119144623E+03  0.12111337023E+03  0.91766472948E+03  0.60018118643E+03 0.  0.
        -24    2    4    4    0    0 -0.66129903429E+03 -0.35912032632E+03 -0.16011793500E+01  0.75678083672E+03  0.80192577706E+02 0.  0.
         24    2    4    4    0    0  0.57926259300E+02  0.37928880086E+02  0.12271454958E+03  0.16088389276E+03  0.77657677086E+02 0.  0.
         13    1    3    3    0    0  0.49232156908E+03  0.27348495927E+03  0.15112985390E+03  0.58310786572E+03  0.00000000000E+00 0. -1.
        -14    1    3    3    0    0  0.11105120591E+03  0.47706486958E+02 -0.19289430306E+01  0.12088010611E+03  0.00000000000E+00 0.  1.
         15    1    5    5    0    0 -0.47947103339E+02 -0.23606786189E+02  0.20609752246E+02  0.57307283040E+02  0.17770000000E+01 0. -1.
        -16    1    5    5    0    0 -0.61335193095E+03 -0.33551354013E+03 -0.22210931596E+02  0.69947355368E+03  0.00000000000E+00 0.  1.
          2    1    6    6  502    0  0.79984629178E+01  0.19210196693E+02  0.10131286413E+03  0.10342776950E+03  0.00000000000E+00 0. -1.
         -1    1    6    6    0  502  0.49927796382E+02  0.18718683393E+02  0.21401685446E+02  0.57456123255E+02  0.00000000000E+00 0.  1.
<mgrwt>
<rscale>  0 0.75538566E+03</rscale>
<asrwt>0</asrwt>
<pdfrwt beam="1">  1        1 0.10394911E+00 0.75538566E+03</pdfrwt>
<pdfrwt beam="2">  1       -2 0.14553592E+00 0.75538566E+03</pdfrwt>
<totfact> 0.83377151E+00</totfact>
</mgrwt>
</event>
<event>
12    3  0.1182097E-007  0.7320692E+03  0.7818608E-02  0.9663909E-01
         -2   -1    0    0    0  501 -0.00000000000E+00  0.00000000000E+00  0.82330212940E+03  0.82330212940E+03  0.00000000000E+00 0.  1.
          1   -1    0    0  501    0  0.00000000000E+00 -0.00000000000E+00 -0.65897068778E+03  0.65897068778E+03  0.00000000000E+00 0. -1.
        -24    2    1    2    0    0  0.57485396147E+03 -0.20541824218E+03  0.34865637027E+02  0.61652911661E+03  0.78986123724E+02 0.  0.
    5000000    2    1    2    0    0 -0.57485396147E+03  0.20541824218E+03  0.12946580460E+03  0.86574370057E+03  0.60008085228E+03 0.  0.
        -24    2    4    4    0    0 -0.42430663852E+03  0.40620356281E+03  0.10333247935E+03  0.60170949353E+03  0.79619441015E+02 0.  0.
         24    2    4    4    0    0 -0.15054732296E+03 -0.20078532063E+03  0.26133325247E+02  0.26403420704E+03  0.77793768188E+02 0.  0.
         13    1    3    3    0    0  0.40262245282E+03 -0.18153538440E+03  0.23686536109E+02  0.44229061407E+03  0.00000000000E+00 0. -1.
        -14    1    3    3    0    0  0.17223150866E+03 -0.23882857776E+02  0.11179100917E+02  0.17423850254E+03  0.00000000000E+00 0.  1.
         15    1    5    5    0    0 -0.16465166013E+03  0.15621455746E+03  0.80509160655E+00  0.22697348534E+03  0.17770000000E+01 0. -1.
        -16    1    5    5    0    0 -0.25965497839E+03  0.24998900535E+03  0.10252738775E+03  0.37473600819E+03  0.00000000000E+00 0.  1.
          4    1    6    6  502    0 -0.10281286036E+03 -0.76781984157E+02 -0.14490565904E+01  0.12832792803E+03  0.00000000000E+00 0. -1.
         -3    1    6    6    0  502 -0.47734462595E+02 -0.12400333647E+03  0.27582381837E+02  0.13570627901E+03  0.00000000000E+00 0.  1.
<mgrwt>
<rscale>  0 0.73206919E+03</rscale>
<asrwt>0</asrwt>
<pdfrwt beam="1">  1        1 0.10138011E+00 0.73206919E+03</pdfrwt>
<pdfrwt beam="2">  1       -2 0.12666187E+00 0.73206919E+03</pdfrwt>
<totfact> 0.12387305E+01</totfact>
</mgrwt>
</event>
<event>
12    3  0.1182097E-007  0.7462372E+03  0.7818608E-02  0.9641272E-01
          3   -1    0    0  501    0  0.00000000000E+00  0.00000000000E+00  0.20432248016E+04  0.20432248016E+04  0.00000000000E+00 0. -1.
         -4   -1    0    0    0  501 -0.00000000000E+00 -0.00000000000E+00 -0.32068664986E+03  0.32068664986E+03  0.00000000000E+00 0.  1.
        -24    2    1    2    0    0  0.58649617783E+03  0.35941037189E+03  0.59266555315E+03  0.91147841830E+03  0.79917877276E+02 0.  0.
    5000000    2    1    2    0    0 -0.58649617783E+03 -0.35941037189E+03  0.11298725986E+04  0.14524330332E+04  0.59983001321E+03 0.  0.
        -24    2    4    4    0    0 -0.55928822952E+03 -0.43710773072E+03  0.11386330927E+04  0.13438002643E+04  0.73806087778E+02 0.  0.
         24    2    4    4    0    0 -0.27207948315E+02  0.77697358829E+02 -0.87604940324E+01  0.10863276894E+03  0.70336194170E+02 0.  0.
         13    1    3    3    0    0  0.97761552986E+02  0.90831647740E+02  0.92486095284E+02  0.16236190223E+03  0.00000000000E+00 0. -1.
        -14    1    3    3    0    0  0.48873462485E+03  0.26857872415E+03  0.50017945787E+03  0.74911651608E+03  0.00000000000E+00 0.  1.
         15    1    5    5    0    0 -0.76719177953E+02 -0.56822337970E+02  0.20491632978E+03  0.22607182553E+03  0.17770000000E+01 0. -1.
        -16    1    5    5    0    0 -0.48256905156E+03 -0.38028539275E+03  0.93371676288E+03  0.11177284387E+04  0.00000000000E+00 0.  1.
          2    1    6    6  502    0  0.10511664229E+02  0.15493433586E+02  0.22656815213E+02  0.29391713880E+02  0.00000000000E+00 0. -1.
         -1    1    6    6    0  502 -0.37719612545E+02  0.62203925243E+02 -0.31417309246E+02  0.79241055056E+02  0.00000000000E+00 0.  1.
<mgrwt>
<rscale>  0 0.74623717E+03</rscale>
<asrwt>0</asrwt>
<pdfrwt beam="1">  1        3 0.31434227E+00 0.74623717E+03</pdfrwt>
<pdfrwt beam="2">  1       -4 0.49336409E-01 0.74623717E+03</pdfrwt>
<totfact> 0.29611682E-01</totfact>
</mgrwt>
</event>
<event>
12    3  0.1182097E-007  0.5249190E+03  0.7818608E-02  0.1007472E+00
          1   -1    0    0  501    0  0.00000000000E+00  0.00000000000E+00  0.16697965408E+04  0.16697965408E+04  0.00000000000E+00 0. -1.
         -2   -1    0    0    0  501 -0.00000000000E+00 -0.00000000000E+00 -0.26709216697E+03  0.26709216697E+03  0.00000000000E+00 0.  1.
        -24    2    1    2    0    0 -0.23345297599E+03  0.28058565111E+03  0.11186946461E+04  0.11794259487E+04  0.79619456582E+02 0.  0.
    5000000    2    1    2    0    0  0.23345297599E+03 -0.28058565111E+03  0.28400972777E+03  0.75746275902E+03  0.59988307713E+03 0.  0.
        -24    2    4    4    0    0  0.40918899737E+03 -0.29099318058E+03  0.21797878096E+03  0.55318342145E+03  0.79902954287E+02 0.  0.
         24    2    4    4    0    0 -0.17573602138E+03  0.10407529471E+02  0.66030946810E+02  0.20427933757E+03  0.79865486554E+02 0.  0.
         11    1    3    3    0    0 -0.15955853154E+03  0.18213936969E+03  0.61608820032E+03  0.66196551689E+03  0.00000000000E+00 0. -1.
        -12    1    3    3    0    0 -0.73894444449E+02  0.98446281415E+02  0.50260644574E+03  0.51746043186E+03  0.00000000000E+00 0.  1.
         15    1    5    5    0    0  0.36272977114E+03 -0.22831314616E+03  0.16703792933E+03  0.46000500773E+03  0.17770000000E+01 0. -1.
        -16    1    5    5    0    0  0.46459226234E+02 -0.62680034419E+02  0.50940851636E+02  0.93178413715E+02  0.00000000000E+00 0.  1.
          4    1    6    6  502    0 -0.44179190303E+02  0.14071171148E+02 -0.16175861866E+02  0.49106590397E+02  0.00000000000E+00 0. -1.
         -3    1    6    6    0  502 -0.13155683108E+03 -0.36636416764E+01  0.82206808677E+02  0.15517274718E+03  0.00000000000E+00 0.  1.
<mgrwt>
<rscale>  0 0.52491899E+03</rscale>
<asrwt>0</asrwt>
<pdfrwt beam="1">  1        1 0.25689177E+00 0.52491899E+03</pdfrwt>
<pdfrwt beam="2">  1       -2 0.41091103E-01 0.52491899E+03</pdfrwt>
<totfact> 0.26232486E+01</totfact>
</mgrwt>
</event>
<event>
12    3  0.1182097E-007  0.4768496E+03  0.7818608E-02  0.1020005E+00
          1   -1    0    0  501    0  0.00000000000E+00  0.00000000000E+00  0.48758703267E+03  0.48758703267E+03  0.00000000000E+00 0. -1.
         -2   -1    0    0    0  501 -0.00000000000E+00 -0.00000000000E+00 -0.98299777725E+03  0.98299777725E+03  0.00000000000E+00 0.  1.
        -24    2    1    2    0    0  0.35347099692E+03 -0.83905606414E+02  0.24933647744E+03  0.44751805959E+03  0.78242176751E+02 0.  0.
    5000000    2    1    2    0    0 -0.35347099692E+03  0.83905606414E+02 -0.74474722203E+03  0.10230667503E+04  0.60002937800E+03 0.  0.
        -24    2    4    4    0    0 -0.13892214325E+03 -0.18550863396E+03 -0.58666320954E+03  0.63582558712E+03  0.79922716788E+02 0.  0.
         24    2    4    4    0    0 -0.21454885368E+03  0.26941424037E+03 -0.15808401249E+03  0.38724116321E+03  0.79686384954E+02 0.  0.
         11    1    3    3    0    0  0.84267127173E+02 -0.40287211232E+02  0.99018042513E+02  0.13611972985E+03  0.00000000000E+00 0. -1.
        -12    1    3    3    0    0  0.26920386975E+03 -0.43618395182E+02  0.15031843493E+03  0.31139832974E+03  0.00000000000E+00 0.  1.
         15    1    5    5    0    0 -0.12685033690E+03 -0.13205532534E+03 -0.37701487025E+03  0.41913361478E+03  0.17770000000E+01 0. -1.
        -16    1    5    5    0    0 -0.12071806344E+02 -0.53453308621E+02 -0.20964833929E+03  0.21669197234E+03  0.00000000000E+00 0.  1.
          4    1    6    6  502    0 -0.77472019000E+02  0.54375247626E+02 -0.18207717109E+02  0.96385176478E+02  0.00000000000E+00 0. -1.
         -3    1    6    6    0  502 -0.13707683468E+03  0.21503899275E+03 -0.13987629538E+03  0.29085598673E+03  0.00000000000E+00 0.  1.
<mgrwt>
<rscale>  0 0.47684965E+03</rscale>
<asrwt>0</asrwt>
<pdfrwt beam="1">  1        1 0.75013391E-01 0.47684965E+03</pdfrwt>
<pdfrwt beam="2">  1       -2 0.15123042E+00 0.47684965E+03</pdfrwt>
<totfact> 0.12403341E+01</totfact>
</mgrwt>
</event>
<event>
12    3  0.1182097E-007  0.8671074E+03  0.7818608E-02  0.9467659E-01
         -2   -1    0    0    0  501 -0.00000000000E+00  0.00000000000E+00  0.14281887787E+04  0.14281887787E+04  0.00000000000E+00 0.  1.
          1   -1    0    0  501    0  0.00000000000E+00 -0.00000000000E+00 -0.11843321230E+04  0.11843321230E+04  0.00000000000E+00 0. -1.
        -24    2    1    2    0    0 -0.71131647058E+03 -0.48360896804E+03  0.99866798133E+03  0.13204676958E+04  0.80302200281E+02 0.  0.
    5000000    2    1    2    0    0  0.71131647058E+03  0.48360896804E+03 -0.75481132567E+03  0.12920532059E+04  0.59984380822E+03 0.  0.
        -24    2    4    4    0    0  0.49663929701E+03  0.26917183159E+03 -0.11774876649E+03  0.58196632469E+03  0.75603999914E+02 0.  0.
         24    2    4    4    0    0  0.21467717357E+03  0.21443713645E+03 -0.63706255918E+03  0.71008688123E+03  0.79404661303E+02 0.  0.
         11    1    3    3    0    0 -0.14548839214E+03 -0.82120220286E+02  0.15220199731E+03  0.22600011242E+03  0.00000000000E+00 0. -1.
        -12    1    3    3    0    0 -0.56582807844E+03 -0.40148874775E+03  0.84646598402E+03  0.10944675834E+04  0.00000000000E+00 0.  1.
         15    1    5    5    0    0  0.18246276567E+03  0.13307230094E+03 -0.24884457778E+02  0.22720759693E+03  0.17770000000E+01 0. -1.
        -16    1    5    5    0    0  0.31417653135E+03  0.13609953064E+03 -0.92864308712E+02  0.35475872776E+03  0.00000000000E+00 0.  1.
          2    1    6    6  502    0  0.36934299316E+02  0.55604452249E+02 -0.21779040040E+03  0.22779081651E+03  0.00000000000E+00 0. -1.
         -1    1    6    6    0  502  0.17774287425E+03  0.15883268421E+03 -0.41927215878E+03  0.48229606472E+03  0.00000000000E+00 0.  1.
<mgrwt>
<rscale>  0 0.86710739E+03</rscale>
<asrwt>0</asrwt>
<pdfrwt beam="1">  1        1 0.18220494E+00 0.86710739E+03</pdfrwt>
<pdfrwt beam="2">  1       -2 0.21972135E+00 0.86710739E+03</pdfrwt>
<totfact> 0.97214702E-01</totfact>
</mgrwt>
</event>
<event>
12    3  0.1182097E-007  0.7518282E+03  0.7818608E-02  0.9632486E-01
          1   -1    0    0  501    0  0.00000000000E+00  0.00000000000E+00  0.15284402112E+04  0.15284402112E+04  0.00000000000E+00 0. -1.
         -2   -1    0    0    0  501 -0.00000000000E+00 -0.00000000000E+00 -0.47169421223E+03  0.47169421223E+03  0.00000000000E+00 0.  1.
        -24    2    1    2    0    0  0.59018328557E+03 -0.22495613052E+03  0.79439470099E+01  0.63670162952E+03  0.80026792487E+02 0.  0.
    5000000    2    1    2    0    0 -0.59018328557E+03  0.22495613052E+03  0.10488020520E+04  0.13634327939E+04  0.60003472241E+03 0.  0.
        -24    2    4    4    0    0 -0.51095674267E+03  0.40671594265E+03  0.79521328565E+03  0.10320161630E+04  0.78730807719E+02 0.  0.
         24    2    4    4    0    0 -0.79226542901E+02 -0.18175981213E+03  0.25358876631E+03  0.33141663094E+03  0.78843176357E+02 0.  0.
         13    1    3    3    0    0  0.31307675317E+03 -0.15219803501E+03  0.29711784098E+02  0.34937670980E+03  0.00000000000E+00 0. -1.
        -14    1    3    3    0    0  0.27710653239E+03 -0.72758095505E+02 -0.21767837088E+02  0.28732491971E+03  0.00000000000E+00 0.  1.
         15    1    5    5    0    0 -0.46051392647E+03  0.33658510954E+03  0.67048841307E+03  0.88029567886E+03  0.17770000000E+01 0. -1.
        -16    1    5    5    0    0 -0.50442816198E+02  0.70130833109E+02  0.12472487258E+03  0.15172048411E+03  0.00000000000E+00 0.  1.
          2    1    6    6  502    0 -0.18741701704E+02 -0.13367075312E+03  0.14453149936E+03  0.19775863048E+03  0.00000000000E+00 0. -1.
         -1    1    6    6    0  502 -0.60484841197E+02 -0.48089059006E+02  0.10905726696E+03  0.13365800046E+03  0.00000000000E+00 0.  1.
<mgrwt>
<rscale>  0 0.75182825E+03</rscale>
<asrwt>0</asrwt>
<pdfrwt beam="1">  1        1 0.23514465E+00 0.75182825E+03</pdfrwt>
<pdfrwt beam="2">  1       -2 0.72568341E-01 0.75182825E+03</pdfrwt>
<totfact> 0.97289766E+00</totfact>
</mgrwt>
</event>
<event>
12    3  0.1182097E-007  0.3277665E+03  0.7818608E-02  0.1072129E+00
          1   -1    0    0  501    0  0.00000000000E+00  0.00000000000E+00  0.12230507829E+04  0.12230507829E+04  0.00000000000E+00 0. -1.
         -2   -1    0    0    0  501 -0.00000000000E+00 -0.00000000000E+00 -0.14241682291E+03  0.14241682291E+03  0.00000000000E+00 0.  1.
        -24    2    1    2    0    0 -0.13244897314E+03  0.13354365014E+03  0.23435751968E+03  0.31084161459E+03  0.79513680282E+02 0.  0.
    5000000    2    1    2    0    0  0.13244897314E+03 -0.13354365014E+03  0.84627644033E+03  0.10546259912E+04  0.60056267864E+03 0.  0.
        -24    2    4    4    0    0 -0.17496111156E+02 -0.25106952708E+03  0.10383528439E+03  0.28174011480E+03  0.72482443875E+02 0.  0.
         24    2    4    4    0    0  0.14994508430E+03  0.11752587694E+03  0.74244115594E+03  0.77288587644E+03  0.99185925967E+02 0.  0.
         13    1    3    3    0    0 -0.74961933829E+02  0.46289363548E+02  0.15980598166E+03  0.18248273473E+03  0.00000000000E+00 0. -1.
        -14    1    3    3    0    0 -0.57487039311E+02  0.87254286590E+02  0.74551538019E+02  0.12835887986E+03  0.00000000000E+00 0.  1.
         15    1    5    5    0    0  0.17345018136E+01 -0.15818537340E+03  0.99281506946E+02  0.18677686207E+03  0.17770000000E+01 0. -1.
        -16    1    5    5    0    0 -0.19230612970E+02 -0.92884153680E+02  0.45537774399E+01  0.94963252730E+02  0.00000000000E+00 0.  1.
          2    1    6    6  502    0  0.93256166900E+02  0.12137379118E+03  0.60717212251E+03  0.62616794568E+03  0.00000000000E+00 0. -1.
         -1    1    6    6    0  502  0.56688917396E+02 -0.38479142404E+01  0.13526903343E+03  0.14671793076E+03  0.00000000000E+00 0.  1.
<mgrwt>
<rscale>  0 0.32776654E+03</rscale>
<asrwt>0</asrwt>
<pdfrwt beam="1">  1        1 0.18816165E+00 0.32776654E+03</pdfrwt>
<pdfrwt beam="2">  1       -2 0.21910281E-01 0.32776654E+03</pdfrwt>
<totfact> 0.17371348E+02</totfact>
</mgrwt>
</event>
<event>
12    3  0.1182097E-007  0.1186256E+04  0.7818608E-02  0.9124972E-01
          1   -1    0    0  501    0  0.00000000000E+00  0.00000000000E+00  0.15476321649E+04  0.15476321649E+04  0.00000000000E+00 0. -1.
         -2   -1    0    0    0  501 -0.00000000000E+00 -0.00000000000E+00 -0.11500933070E+04  0.11500933070E+04  0.00000000000E+00 0.  1.
        -24    2    1    2    0    0  0.10752609844E+04  0.30447008437E+03 -0.41102703130E+03  0.11933570894E+04  0.79181471826E+02 0.  0.
    5000000    2    1    2    0    0 -0.10752609844E+04 -0.30447008437E+03  0.80856588929E+03  0.15043683825E+04  0.60038089268E+03 0.  0.
        -24    2    4    4    0    0 -0.10764795401E+04 -0.39547928587E+03  0.78662725129E+03  0.13927845287E+04  0.76513038168E+02 0.  0.
         24    2    4    4    0    0  0.12185557389E+01  0.91009201501E+02  0.21938637995E+02  0.11158385387E+03  0.60708261151E+02 0.  0.
         11    1    3    3    0    0  0.92100132027E+03  0.28911278296E+03 -0.35322250869E+03  0.10279084462E+04  0.00000000000E+00 0. -1.
        -12    1    3    3    0    0  0.15425966411E+03  0.15357301404E+02 -0.57804522618E+02  0.16544864313E+03  0.00000000000E+00 0.  1.
         15    1    5    5    0    0 -0.52477959248E+03 -0.22780482431E+03  0.36808283535E+03  0.68027699510E+03  0.17770000000E+01 0. -1.
        -16    1    5    5    0    0 -0.55169994764E+03 -0.16767446156E+03  0.41854441594E+03  0.71250753357E+03  0.00000000000E+00 0.  1.
          4    1    6    6  502    0 -0.23801173264E+02  0.50943594265E+02 -0.62508696043E+01  0.56575781180E+02  0.00000000000E+00 0. -1.
         -3    1    6    6    0  502  0.25019729003E+02  0.40065607236E+02  0.28189507599E+02  0.55008072692E+02  0.00000000000E+00 0.  1.
<mgrwt>
<rscale>  0 0.11862562E+04</rscale>
<asrwt>0</asrwt>
<pdfrwt beam="1">  1        1 0.23809726E+00 0.11862562E+04</pdfrwt>
<pdfrwt beam="2">  1       -2 0.17693743E+00 0.11862562E+04</pdfrwt>
<totfact> 0.98834781E-01</totfact>
</mgrwt>
</event>
<event>
12    3  0.1182097E-007  0.4445417E+03  0.7818608E-02  0.1029362E+00
         -2   -1    0    0    0  501 -0.00000000000E+00  0.00000000000E+00  0.29359289850E+03  0.29359289850E+03  0.00000000000E+00 0.  1.
          1   -1    0    0  501    0  0.00000000000E+00 -0.00000000000E+00 -0.10654344078E+04  0.10654344078E+04  0.00000000000E+00 0. -1.
        -24    2    1    2    0    0 -0.26871585055E+03  0.11806274010E+02  0.73664372259E+02  0.28791831259E+03  0.71574566314E+02 0.  0.
    5000000    2    1    2    0    0  0.26871585055E+03 -0.11806274010E+02 -0.84550588151E+03  0.10711089937E+04  0.60003890223E+03 0.  0.
        -24    2    4    4    0    0  0.34908786057E+03  0.19255985759E+03 -0.41716162136E+03  0.58279938910E+03  0.81790442325E+02 0.  0.
         24    2    4    4    0    0 -0.80372010020E+02 -0.20436613160E+03 -0.42834426015E+03  0.48830960456E+03  0.82111442295E+02 0.  0.
         13    1    3    3    0    0 -0.77789225075E+02 -0.10722804533E+02  0.52605617111E+02  0.94517157313E+02  0.00000000000E+00 0. -1.
        -14    1    3    3    0    0 -0.19092662547E+03  0.22529078543E+02  0.21058755148E+02  0.19340115528E+03  0.00000000000E+00 0.  1.
         15    1    5    5    0    0  0.18252884553E+03  0.10290058515E+03 -0.16041944187E+03  0.26389934622E+03  0.17770000000E+01 0. -1.
        -16    1    5    5    0    0  0.16655901503E+03  0.89659272441E+02 -0.25674217949E+03  0.31890004289E+03  0.00000000000E+00 0.  1.
          2    1    6    6  502    0 -0.40403138706E+02 -0.10098988437E+03 -0.29790409303E+03  0.31714069276E+03  0.00000000000E+00 0. -1.
         -1    1    6    6    0  502 -0.39968871314E+02 -0.10337624723E+03 -0.13044016712E+03  0.17116891179E+03  0.00000000000E+00 0.  1.
<mgrwt>
<rscale>  0 0.44454168E+03</rscale>
<asrwt>0</asrwt>
<pdfrwt beam="1">  1        1 0.16391299E+00 0.44454168E+03</pdfrwt>
<pdfrwt beam="2">  1       -2 0.45168137E-01 0.44454168E+03</pdfrwt>
<totfact> 0.58019863E+01</totfact>
</mgrwt>
</event>
<event>
12    3  0.1182097E-007  0.1137254E+04  0.7818608E-02  0.9169624E-01
          1   -1    0    0  501    0  0.00000000000E+00  0.00000000000E+00  0.18529164250E+04  0.18529164250E+04  0.00000000000E+00 0. -1.
         -2   -1    0    0    0  501 -0.00000000000E+00 -0.00000000000E+00 -0.79229844796E+03  0.79229844796E+03  0.00000000000E+00 0.  1.
        -24    2    1    2    0    0 -0.10244507421E+04 -0.42347538136E+03  0.22789705955E+03  0.11344997846E+04  0.79510816460E+02 0.  0.
    5000000    2    1    2    0    0  0.10244507421E+04  0.42347538136E+03  0.83272091748E+03  0.15107150883E+04  0.60000435839E+03 0.  0.
        -24    2    4    4    0    0  0.30625129352E+03  0.29413042956E+03  0.45699503034E+02  0.43442121142E+03  0.79566198688E+02 0.  0.
         24    2    4    4    0    0  0.71819944858E+03  0.12934495179E+03  0.78702141444E+03  0.10762938769E+04  0.80406704856E+02 0.  0.
         13    1    3    3    0    0 -0.58679895855E+03 -0.25624027456E+03  0.93559630214E+02  0.64710547862E+03  0.00000000000E+00 0. -1.
        -14    1    3    3    0    0 -0.43765178355E+03 -0.16723510680E+03  0.13433742933E+03  0.48739430599E+03  0.00000000000E+00 0.  1.
         15    1    5    5    0    0  0.83539124376E+02  0.13302292640E+03  0.19683478328E+02  0.15831765946E+03  0.17770000000E+01 0. -1.
        -16    1    5    5    0    0  0.22271216915E+03  0.16110750316E+03  0.26016024706E+02  0.27610355196E+03  0.00000000000E+00 0.  1.
          4    1    6    6  502    0  0.12805981011E+03  0.53274180586E+02  0.16381014775E+03  0.21464206901E+03  0.00000000000E+00 0. -1.
         -3    1    6    6    0  502  0.59013963847E+03  0.76070771205E+02  0.62321126669E+03  0.86165180790E+03  0.00000000000E+00 0.  1.
<mgrwt>
<rscale>  0 0.11372538E+04</rscale>
<asrwt>0</asrwt>
<pdfrwt beam="1">  1        1 0.28506406E+00 0.11372538E+04</pdfrwt>
<pdfrwt beam="2">  1       -2 0.12189207E+00 0.11372538E+04</pdfrwt>
<totfact> 0.16571765E+00</totfact>
</mgrwt>
</event>
<event>
12    3  0.1182097E-007  0.7736507E+03  0.7818608E-02  0.9598960E-01
          1   -1    0    0  501    0  0.00000000000E+00  0.00000000000E+00  0.17888125479E+04  0.17888125479E+04  0.00000000000E+00 0. -1.
         -2   -1    0    0    0  501 -0.00000000000E+00 -0.00000000000E+00 -0.41797378803E+03  0.41797378803E+03  0.00000000000E+00 0.  1.
        -24    2    1    2    0    0 -0.58127000040E+03  0.31265906023E+03  0.10807094609E+04  0.12687758638E+04  0.78922445107E+02 0.  0.
    5000000    2    1    2    0    0  0.58127000040E+03 -0.31265906023E+03  0.29012929901E+03  0.93801047219E+03  0.60004844345E+03 0.  0.
        -24    2    4    4    0    0  0.77638127155E+02 -0.36667041999E+03  0.10430501604E+03  0.39244390550E+03  0.51553922375E+02 0.  0.
         24    2    4    4    0    0  0.50363187324E+03  0.54011359759E+02  0.18582428296E+03  0.54556656669E+03  0.80931599630E+02 0.  0.
         11    1    3    3    0    0 -0.39162511937E+03  0.22838618059E+03  0.67573622644E+03  0.81372595469E+03  0.00000000000E+00 0. -1.
        -12    1    3    3    0    0 -0.18964488102E+03  0.84272879637E+02  0.40497323446E+03  0.45504990910E+03  0.00000000000E+00 0.  1.
         15    1    5    5    0    0  0.41981522726E+02 -0.98611894420E+02  0.18792039119E+02  0.10882578938E+03  0.17770000000E+01 0. -1.
        -16    1    5    5    0    0  0.35656604429E+02 -0.26805852557E+03  0.85512976925E+02  0.28361811612E+03  0.00000000000E+00 0.  1.
          2    1    6    6  502    0  0.45328790254E+03  0.33752913901E+02  0.14321623036E+03  0.47657115987E+03  0.00000000000E+00 0. -1.
         -1    1    6    6    0  502  0.50343970705E+02  0.20258445858E+02  0.42608052601E+02  0.68995406814E+02  0.00000000000E+00 0.  1.
<mgrwt>
<rscale>  0 0.77365070E+03</rscale>
<asrwt>0</asrwt>
<pdfrwt beam="1">  1        1 0.27520193E+00 0.77365070E+03</pdfrwt>
<pdfrwt beam="2">  1       -2 0.64303661E-01 0.77365070E+03</pdfrwt>
<totfact> 0.84119686E+00</totfact>
</mgrwt>
</event>
<event>
12    3  0.1182097E-007  0.1455268E+04  0.7818608E-02  0.8914756E-01
         -2   -1    0    0    0  501 -0.00000000000E+00  0.00000000000E+00  0.90208567809E+03  0.90208567809E+03  0.00000000000E+00 0.  1.
          1   -1    0    0  501    0  0.00000000000E+00 -0.00000000000E+00 -0.26510608359E+04  0.26510608359E+04  0.00000000000E+00 0. -1.
        -24    2    1    2    0    0  0.13044486879E+04  0.56334928395E+03 -0.33792340085E+03  0.14627640760E+04  0.80856181388E+02 0.  0.
    5000000    2    1    2    0    0 -0.13044486879E+04 -0.56334928395E+03 -0.14110517569E+04  0.20903824379E+04  0.59973567587E+03 0.  0.
        -24    2    4    4    0    0 -0.12816283620E+04 -0.62071955173E+03 -0.13994711353E+04  0.19981426998E+04  0.78681446018E+02 0.  0.
         24    2    4    4    0    0 -0.22820325979E+02  0.57370267776E+02 -0.11580621628E+02  0.92239738188E+02  0.67542161656E+02 0.  0.
         13    1    3    3    0    0  0.92072922806E+03  0.40420519334E+03 -0.20161306035E+03  0.10255593478E+04  0.00000000000E+00 0. -1.
        -14    1    3    3    0    0  0.38371945987E+03  0.15914409061E+03 -0.13631034050E+03  0.43720472823E+03  0.00000000000E+00 0.  1.
         15    1    5    5    0    0 -0.10594709668E+04 -0.47962196080E+03 -0.11349097525E+04  0.16249736179E+04  0.17770000000E+01 0. -1.
        -16    1    5    5    0    0 -0.22215739514E+03 -0.14109759093E+03 -0.26456138276E+03  0.37316908182E+03  0.00000000000E+00 0.  1.
          4    1    6    6  502    0  0.29732818827E-01 -0.86386248902E+00  0.21471020263E+02  0.21488412076E+02  0.00000000000E+00 0. -1.
         -3    1    6    6    0  502 -0.22850058798E+02  0.58234130265E+02 -0.33051641891E+02  0.70751326112E+02  0.00000000000E+00 0.  1.
<mgrwt>
<rscale>  0 0.14552681E+04</rscale>
<asrwt>0</asrwt>
<pdfrwt beam="1">  1        1 0.40785551E+00 0.14552681E+04</pdfrwt>
<pdfrwt beam="2">  1       -2 0.13878241E+00 0.14552681E+04</pdfrwt>
<totfact> 0.32653872E-01</totfact>
</mgrwt>
</event>
<event>
12    3  0.1182097E-007  0.1052020E+04  0.7818608E-02  0.9253261E-01
         -2   -1    0    0    0  501 -0.00000000000E+00  0.00000000000E+00  0.95097701710E+03  0.95097701710E+03  0.00000000000E+00 0.  1.
          1   -1    0    0  501    0  0.00000000000E+00 -0.00000000000E+00 -0.12049791086E+04  0.12049791086E+04  0.00000000000E+00 0. -1.
        -24    2    1    2    0    0  0.90960678228E+03 -0.35609615425E+03  0.35660430621E+01  0.98097375620E+03  0.90043457557E+02 0.  0.
    5000000    2    1    2    0    0 -0.90960678228E+03  0.35609615425E+03 -0.25756813458E+03  0.11749823695E+04  0.60004437777E+03 0.  0.
        -24    2    4    4    0    0 -0.28546079077E+03 -0.13802245969E+03  0.21905328293E+02  0.32757681959E+03  0.79301115247E+02 0.  0.
         24    2    4    4    0    0 -0.62414599150E+03  0.49411861394E+03 -0.27947346288E+03  0.84740554993E+03  0.79242199936E+02 0.  0.
         11    1    3    3    0    0  0.34628734946E+03 -0.89109332770E+02 -0.10377048870E+01  0.35757024263E+03  0.00000000000E+00 0. -1.
        -12    1    3    3    0    0  0.56331943282E+03 -0.26698682148E+03  0.46037479490E+01  0.62340351357E+03  0.00000000000E+00 0.  1.
         15    1    5    5    0    0 -0.12096956609E+03 -0.97911296535E+02 -0.70931244302E+01  0.15580028258E+03  0.17770000000E+01 0. -1.
        -16    1    5    5    0    0 -0.16449122468E+03 -0.40111163152E+02  0.28998452723E+02  0.17177653701E+03  0.00000000000E+00 0.  1.
          2    1    6    6  502    0 -0.10701535116E+03  0.11378056042E+03 -0.78028405324E+02  0.17460450552E+03  0.00000000000E+00 0. -1.
         -1    1    6    6    0  502 -0.51713064035E+03  0.38033805352E+03 -0.20144505755E+03  0.67280104441E+03  0.00000000000E+00 0.  1.
<mgrwt>
<rscale>  0 0.10520201E+04</rscale>
<asrwt>0</asrwt>
<pdfrwt beam="1">  1        1 0.18538140E+00 0.10520201E+04</pdfrwt>
<pdfrwt beam="2">  1       -2 0.14630416E+00 0.10520201E+04</pdfrwt>
<totfact> 0.29470088E+00</totfact>
</mgrwt>
</event>
<event>
12    3  0.1182097E-007  0.6681318E+03  0.7818608E-02  0.9773339E-01
          1   -1    0    0  501    0  0.00000000000E+00  0.00000000000E+00  0.13199410338E+04  0.13199410338E+04  0.00000000000E+00 0. -1.
         -2   -1    0    0    0  501 -0.00000000000E+00 -0.00000000000E+00 -0.84616761376E+03  0.84616761376E+03  0.00000000000E+00 0.  1.
        -24    2    1    2    0    0 -0.47599582303E+03  0.40107647502E+03  0.98021957928E+03  0.11639752359E+04  0.81077517942E+02 0.  0.
    5000000    2    1    2    0    0  0.47599582303E+03 -0.40107647502E+03 -0.50644615919E+03  0.10021334117E+04  0.60029101300E+03 0.  0.
        -24    2    4    4    0    0 -0.26585591951E+02 -0.92971844492E+02 -0.37028985394E+03  0.39165488224E+03  0.83237090808E+02 0.  0.
         24    2    4    4    0    0  0.50258141498E+03 -0.30810463053E+03 -0.13615630525E+03  0.61047852944E+03  0.81418384931E+02 0.  0.
         13    1    3    3    0    0 -0.24798888339E+03  0.26137388919E+03  0.56281068736E+03  0.66825943020E+03  0.00000000000E+00 0. -1.
        -14    1    3    3    0    0 -0.22800693964E+03  0.13970258583E+03  0.41740889191E+03  0.49571580574E+03  0.00000000000E+00 0.  1.
         15    1    5    5    0    0 -0.47441580226E+02 -0.70722762501E+02 -0.18243412457E+03  0.20133996178E+03  0.17770000000E+01 0. -1.
        -16    1    5    5    0    0  0.20855988275E+02 -0.22249081991E+02 -0.18785572937E+03  0.19031492047E+03  0.00000000000E+00 0.  1.
          2    1    6    6  502    0  0.39281356682E+03 -0.20876675993E+03 -0.12470274640E+03  0.46199224375E+03  0.00000000000E+00 0. -1.
         -1    1    6    6    0  502  0.10976784816E+03 -0.99337870599E+02 -0.11453558849E+02  0.14848628568E+03  0.00000000000E+00 0.  1.
<mgrwt>
<rscale>  0 0.66813183E+03</rscale>
<asrwt>0</asrwt>
<pdfrwt beam="1">  1        1 0.20306785E+00 0.66813183E+03</pdfrwt>
<pdfrwt beam="2">  1       -2 0.13017963E+00 0.66813183E+03</pdfrwt>
<totfact> 0.34697181E+00</totfact>
</mgrwt>
</event>
<event>
12    3  0.1182097E-007  0.4006990E+03  0.7818608E-02  0.1043538E+00
          1   -1    0    0  501    0  0.00000000000E+00  0.00000000000E+00  0.71355132595E+03  0.71355132595E+03  0.00000000000E+00 0. -1.
         -2   -1    0    0    0  501 -0.00000000000E+00 -0.00000000000E+00 -0.27356541810E+03  0.27356541810E+03  0.00000000000E+00 0.  1.
        -24    2    1    2    0    0  0.14816033476E+02 -0.22027343265E+03  0.59585280038E+02  0.24312228223E+03  0.82572020308E+02 0.  0.
    5000000    2    1    2    0    0 -0.14816033476E+02  0.22027343265E+03  0.38040062781E+03  0.74399446183E+03  0.60006934734E+03 0.  0.
        -24    2    4    4    0    0  0.24053432266E+03  0.27543105853E+02  0.31918053046E+03  0.40885956102E+03  0.81697898086E+02 0.  0.
         24    2    4    4    0    0 -0.25535035614E+03  0.19273032680E+03  0.61220097343E+02  0.33513490081E+03  0.78858849671E+02 0.  0.
         13    1    3    3    0    0 -0.29740925057E+02 -0.84867382927E+02  0.42785383530E+02  0.99587069200E+02  0.00000000000E+00 0. -1.
        -14    1    3    3    0    0  0.44556958533E+02 -0.13540604973E+03  0.16799896507E+02  0.14353521303E+03  0.00000000000E+00 0.  1.
         15    1    5    5    0    0  0.11787495059E+03  0.40239833320E+02  0.20995594082E+03  0.24412784146E+03  0.17770000000E+01 0. -1.
        -16    1    5    5    0    0  0.12265937208E+03 -0.12696727468E+02  0.10922458965E+03  0.16473171956E+03  0.00000000000E+00 0.  1.
          2    1    6    6  502    0 -0.13577577991E+03  0.85694420325E+02 -0.71015303974E+01  0.16071411830E+03  0.00000000000E+00 0. -1.
         -1    1    6    6    0  502 -0.11957457623E+03  0.10703590647E+03  0.68321627741E+02  0.17442078251E+03  0.00000000000E+00 0.  1.
<mgrwt>
<rscale>  0 0.40069903E+03</rscale>
<asrwt>0</asrwt>
<pdfrwt beam="1">  1        1 0.10977713E+00 0.40069903E+03</pdfrwt>
<pdfrwt beam="2">  1       -2 0.42086987E-01 0.40069903E+03</pdfrwt>
<totfact> 0.12938575E+02</totfact>
</mgrwt>
</event>
<event>
12    3  0.1182097E-007  0.3193617E+03  0.7818608E-02  0.1075943E+00
          1   -1    0    0  501    0  0.00000000000E+00  0.00000000000E+00  0.14181959271E+03  0.14181959271E+03  0.00000000000E+00 0. -1.
         -2   -1    0    0    0  501 -0.00000000000E+00 -0.00000000000E+00 -0.94109202722E+03  0.94109202722E+03  0.00000000000E+00 0.  1.
        -24    2    1    2    0    0 -0.62689571584E+02 -0.68003531664E+02 -0.13727699345E+03  0.18477079996E+03  0.82102453591E+02 0.  0.
    5000000    2    1    2    0    0  0.62689571584E+02  0.68003531664E+02 -0.66199544106E+03  0.89814081997E+03  0.59988707754E+03 0.  0.
        -24    2    4    4    0    0 -0.80223640515E+02 -0.20246067010E+03 -0.48300498198E+03  0.53532873823E+03  0.76530320275E+02 0.  0.
         24    2    4    4    0    0  0.14291321210E+03  0.27046420177E+03 -0.17899045908E+03  0.36281208174E+03  0.77588346962E+02 0.  0.
         13    1    3    3    0    0 -0.19233323147E+02 -0.12358700786E+02 -0.10442599106E+03  0.10689923205E+03  0.00000000000E+00 0. -1.
        -14    1    3    3    0    0 -0.43456248437E+02 -0.55644830878E+02 -0.32851002390E+02  0.77871567916E+02  0.00000000000E+00 0.  1.
         15    1    5    5    0    0 -0.91362899963E+02 -0.14210954623E+03 -0.36949439821E+03  0.40629000807E+03  0.17770000000E+01 0. -1.
        -16    1    5    5    0    0  0.11139259447E+02 -0.60351123870E+02 -0.11351058377E+03  0.12903873016E+03  0.00000000000E+00 0.  1.
          4    1    6    6  502    0  0.65475746774E+01  0.82257749293E+02 -0.57336495880E+02  0.10048224626E+03  0.00000000000E+00 0. -1.
         -3    1    6    6    0  502  0.13636563742E+03  0.18820645247E+03 -0.12165396320E+03  0.26232983548E+03  0.00000000000E+00 0.  1.
<mgrwt>
<rscale>  0 0.31936169E+03</rscale>
<asrwt>0</asrwt>
<pdfrwt beam="1">  1        1 0.21818398E-01 0.31936169E+03</pdfrwt>
<pdfrwt beam="2">  1       -2 0.14478339E+00 0.31936169E+03</pdfrwt>
<totfact> 0.69669037E+01</totfact>
</mgrwt>
</event>
<event>
12    3  0.1182097E-007  0.1033527E+04  0.7818608E-02  0.9272518E-01
         -2   -1    0    0    0  501 -0.00000000000E+00  0.00000000000E+00  0.41187641287E+03  0.41187641287E+03  0.00000000000E+00 0.  1.
          1   -1    0    0  501    0  0.00000000000E+00 -0.00000000000E+00 -0.37667871282E+04  0.37667871282E+04  0.00000000000E+00 0. -1.
        -24    2    1    2    0    0 -0.92661191148E+03 -0.21491840881E+03 -0.43482035682E+03  0.10494879015E+04  0.86928451367E+02 0.  0.
    5000000    2    1    2    0    0  0.92661191148E+03  0.21491840881E+03 -0.29200903585E+04  0.31291756396E+04  0.60001077058E+03 0.  0.
        -24    2    4    4    0    0  0.74243551657E+03  0.39664867605E+03 -0.23533287119E+04  0.25009313381E+04  0.89223667677E+02 0.  0.
         24    2    4    4    0    0  0.18417639491E+03 -0.18173026724E+03 -0.56676164661E+03  0.62824430158E+03  0.80779353346E+02 0.  0.
         11    1    3    3    0    0 -0.35862561504E+03 -0.45714754053E+02 -0.18805813076E+03  0.40751445502E+03  0.00000000000E+00 0. -1.
        -12    1    3    3    0    0 -0.56798629643E+03 -0.16920365476E+03 -0.24676222606E+03  0.64197344644E+03  0.00000000000E+00 0.  1.
         15    1    5    5    0    0  0.43764899513E+03  0.22799557000E+03 -0.12483947228E+04  0.13423900940E+04  0.17770000000E+01 0. -1.
        -16    1    5    5    0    0  0.30478652144E+03  0.16865310605E+03 -0.11049339891E+04  0.11585412441E+04  0.00000000000E+00 0.  1.
          2    1    6    6  502    0  0.40350359133E+02 -0.13729876177E+01 -0.83923312854E+02  0.93129796614E+02  0.00000000000E+00 0. -1.
         -1    1    6    6    0  502  0.14382603578E+03 -0.18035727962E+03 -0.48283833376E+03  0.53511450497E+03  0.00000000000E+00 0.  1.
<mgrwt>
<rscale>  0 0.10335271E+04</rscale>
<asrwt>0</asrwt>
<pdfrwt beam="1">  1        1 0.57950570E+00 0.10335271E+04</pdfrwt>
<pdfrwt beam="2">  1       -2 0.63365604E-01 0.10335271E+04</pdfrwt>
<totfact> 0.31933856E-01</totfact>
</mgrwt>
</event>
<event>
12    3  0.1182097E-007  0.6620544E+03  0.7818608E-02  0.9784419E-01
         -2   -1    0    0    0  501 -0.00000000000E+00  0.00000000000E+00  0.10804617605E+04  0.10804617605E+04  0.00000000000E+00 0.  1.
          1   -1    0    0  501    0  0.00000000000E+00 -0.00000000000E+00 -0.18104516398E+04  0.18104516398E+04  0.00000000000E+00 0. -1.
        -24    2    1    2    0    0 -0.17086196339E+03  0.62383195360E+03  0.85611241383E+03  0.10760234197E+04  0.80856773542E+02 0.  0.
    5000000    2    1    2    0    0  0.17086196339E+03 -0.62383195360E+03 -0.15861022931E+04  0.18148899806E+04  0.59978749621E+03 0.  0.
        -24    2    4    4    0    0  0.55219569621E+02 -0.42070035135E+03 -0.35785061270E+03  0.56202209327E+03  0.88169075175E+02 0.  0.
         24    2    4    4    0    0  0.11564239377E+03 -0.20313160225E+03 -0.12282516804E+04  0.12528678873E+04  0.80250492920E+02 0.  0.
         13    1    3    3    0    0 -0.13459213322E+03  0.34286130088E+03  0.47042315129E+03  0.59746703276E+03  0.00000000000E+00 0. -1.
        -14    1    3    3    0    0 -0.36269830167E+02  0.28097065272E+03  0.38568926254E+03  0.47855638697E+03  0.00000000000E+00 0.  1.
         15    1    5    5    0    0 -0.17976813786E+02 -0.28836425949E+02 -0.37284496422E+02  0.50477685148E+02  0.17770000000E+01 0. -1.
        -16    1    5    5    0    0  0.73196383407E+02 -0.39186392540E+03 -0.32056611628E+03  0.51154440812E+03  0.00000000000E+00 0.  1.
          2    1    6    6  502    0  0.89497918710E+02 -0.10363413692E+03 -0.84623143706E+03  0.85723833142E+03  0.00000000000E+00 0. -1.
         -1    1    6    6    0  502  0.26144475057E+02 -0.99497465324E+02 -0.38202024333E+03  0.39562955589E+03  0.00000000000E+00 0.  1.
<mgrwt>
<rscale>  0 0.66205443E+03</rscale>
<asrwt>0</asrwt>
<pdfrwt beam="1">  1        1 0.27853102E+00 0.66205443E+03</pdfrwt>
<pdfrwt beam="2">  1       -2 0.16622489E+00 0.66205443E+03</pdfrwt>
<totfact> 0.84798609E-01</totfact>
</mgrwt>
</event>
<event>
12    3  0.1182097E-007  0.3994288E+03  0.7818608E-02  0.1043978E+00
         -2   -1    0    0    0  501 -0.00000000000E+00  0.00000000000E+00  0.15546919808E+03  0.15546919808E+03  0.00000000000E+00 0.  1.
          1   -1    0    0  501    0  0.00000000000E+00 -0.00000000000E+00 -0.12740765034E+04  0.12740765034E+04  0.00000000000E+00 0. -1.
        -24    2    1    2    0    0 -0.18393838447E+03  0.93316349792E+02 -0.13205957370E+03  0.25662243213E+03  0.76642489827E+02 0.  0.
    5000000    2    1    2    0    0  0.18393838447E+03 -0.93316349792E+02 -0.98654773164E+03  0.11729232694E+04  0.59994274610E+03 0.  0.
        -24    2    4    4    0    0 -0.70672136569E+02  0.17737407523E+03 -0.58172752225E+03  0.61765066284E+03  0.81420622179E+02 0.  0.
         24    2    4    4    0    0  0.25461052104E+03 -0.27069042502E+03 -0.40482020939E+03  0.55527260652E+03  0.79677110910E+02 0.  0.
         11    1    3    3    0    0 -0.47859780087E+02  0.62016642294E+02 -0.64657727082E+02  0.10157383592E+03  0.00000000000E+00 0. -1.
        -12    1    3    3    0    0 -0.13607860439E+03  0.31299707498E+02 -0.67401846620E+02  0.15504859622E+03  0.00000000000E+00 0.  1.
         15    1    5    5    0    0 -0.27951948662E+02  0.15728008881E+03 -0.46792094134E+03  0.49444059587E+03  0.17770000000E+01 0. -1.
        -16    1    5    5    0    0 -0.42720187908E+02  0.20093986418E+02 -0.11380658091E+03  0.12321006697E+03  0.00000000000E+00 0.  1.
          2    1    6    6  502    0  0.11589663553E+03 -0.15346850940E+03 -0.25769681477E+03  0.32154667133E+03  0.00000000000E+00 0. -1.
         -1    1    6    6    0  502  0.13871388551E+03 -0.11722191563E+03 -0.14712339462E+03  0.23372593519E+03  0.00000000000E+00 0.  1.
<mgrwt>
<rscale>  0 0.39942884E+03</rscale>
<asrwt>0</asrwt>
<pdfrwt beam="1">  1        1 0.19601177E+00 0.39942884E+03</pdfrwt>
<pdfrwt beam="2">  1       -2 0.23918338E-01 0.39942884E+03</pdfrwt>
<totfact> 0.13571585E+02</totfact>
</mgrwt>
</event>
<event>
12    3  0.1182097E-007  0.5404219E+03  0.7818608E-02  0.1003736E+00
         -2   -1    0    0    0  501 -0.00000000000E+00  0.00000000000E+00  0.72136445034E+03  0.72136445034E+03  0.00000000000E+00 0.  1.
          1   -1    0    0  501    0  0.00000000000E+00 -0.00000000000E+00 -0.11294384879E+04  0.11294384879E+04  0.00000000000E+00 0. -1.
        -24    2    1    2    0    0 -0.47346209770E+03 -0.52741094031E+02  0.47792278875E+03  0.67941123973E+03  0.79002909472E+02 0.  0.
    5000000    2    1    2    0    0  0.47346209770E+03  0.52741094031E+02 -0.88599682627E+03  0.11713916985E+04  0.60018343372E+03 0.  0.
        -24    2    4    4    0    0  0.15736437923E+03 -0.14917236395E+03 -0.29289640753E+02  0.23286987993E+03  0.79715468421E+02 0.  0.
         24    2    4    4    0    0  0.31609771847E+03  0.20191345798E+03 -0.85670718552E+03  0.93852181853E+03  0.78671405309E+02 0.  0.
         11    1    3    3    0    0 -0.62705723459E+02  0.14530909208E+02  0.88357678156E+02  0.10931712751E+03  0.00000000000E+00 0. -1.
        -12    1    3    3    0    0 -0.41075637424E+03 -0.67272003240E+02  0.38956511060E+03  0.57009411223E+03  0.00000000000E+00 0.  1.
         15    1    5    5    0    0  0.52671823592E+02 -0.30098885525E+02  0.24487741569E+02  0.65445176496E+02  0.17770000000E+01 0. -1.
        -16    1    5    5    0    0  0.10469255564E+03 -0.11907347842E+03 -0.53777382323E+02  0.16742470343E+03  0.00000000000E+00 0.  1.
          4    1    6    6  502    0  0.53423697980E+02  0.67050902617E+02 -0.15309592870E+03  0.17546588965E+03  0.00000000000E+00 0. -1.
         -3    1    6    6    0  502  0.26267402049E+03  0.13486255536E+03 -0.70361125682E+03  0.76305592888E+03  0.00000000000E+00 0.  1.
<mgrwt>
<rscale>  0 0.54042189E+03</rscale>
<asrwt>0</asrwt>
<pdfrwt beam="1">  1        1 0.17375977E+00 0.54042189E+03</pdfrwt>
<pdfrwt beam="2">  1       -2 0.11097915E+00 0.54042189E+03</pdfrwt>
<totfact> 0.72029003E+00</totfact>
</mgrwt>
</event>
<event>
12    3  0.1182097E-007  0.4779407E+03  0.7818608E-02  0.1019703E+00
          1   -1    0    0  501    0  0.00000000000E+00  0.00000000000E+00  0.45038450471E+03  0.45038450471E+03  0.00000000000E+00 0. -1.
         -2   -1    0    0    0  501 -0.00000000000E+00 -0.00000000000E+00 -0.61553434627E+03  0.61553434627E+03  0.00000000000E+00 0.  1.
        -24    2    1    2    0    0  0.29534395006E+03 -0.21159832989E+02 -0.24508296640E+03  0.39205487141E+03  0.77237131041E+02 0.  0.
    5000000    2    1    2    0    0 -0.29534395006E+03  0.21159832989E+02  0.79933124845E+02  0.67386397957E+03  0.60002297552E+03 0.  0.
        -24    2    4    4    0    0 -0.11726996331E+03  0.29268079696E+03 -0.10371120089E+02  0.32640068177E+03  0.83758890434E+02 0.  0.
         24    2    4    4    0    0 -0.17807398674E+03 -0.27152096397E+03  0.90304244934E+02  0.34746329780E+03  0.84509810283E+02 0.  0.
         13    1    3    3    0    0  0.86565518048E+02  0.82814239712E+00 -0.30308473679E+02  0.91721743940E+02  0.00000000000E+00 0. -1.
        -14    1    3    3    0    0  0.20877843201E+03 -0.21987975386E+02 -0.21477449272E+03  0.30033312747E+03  0.00000000000E+00 0.  1.
         15    1    5    5    0    0 -0.23915106200E+02  0.17002675228E+03 -0.13392258783E+02  0.17223106316E+03  0.17770000000E+01 0. -1.
        -16    1    5    5    0    0 -0.93354857112E+02  0.12265404468E+03  0.30211386933E+01  0.15416961861E+03  0.00000000000E+00 0.  1.
          4    1    6    6  502    0  0.50173093217E+01 -0.30194598642E+02 -0.23250312868E+01  0.30696790556E+02  0.00000000000E+00 0. -1.
         -3    1    6    6    0  502 -0.18309129607E+03 -0.24132636533E+03  0.92629276221E+02  0.31676650724E+03  0.00000000000E+00 0.  1.
<mgrwt>
<rscale>  0 0.47794066E+03</rscale>
<asrwt>0</asrwt>
<pdfrwt beam="1">  1        1 0.69289924E-01 0.47794066E+03</pdfrwt>
<pdfrwt beam="2">  1       -2 0.94697592E-01 0.47794066E+03</pdfrwt>
<totfact> 0.43700244E+01</totfact>
</mgrwt>
</event>
<event>
12    3  0.1182097E-007  0.9251673E+03  0.7818608E-02  0.9394657E-01
         -2   -1    0    0    0  501 -0.00000000000E+00  0.00000000000E+00  0.43480192089E+03  0.43480192089E+03  0.00000000000E+00 0.  1.
          1   -1    0    0  501    0  0.00000000000E+00 -0.00000000000E+00 -0.31692020651E+04  0.31692020651E+04  0.00000000000E+00 0. -1.
        -24    2    1    2    0    0  0.46518045643E+03 -0.76181998090E+03 -0.22548803210E+04  0.24264283578E+04  0.79415195061E+02 0.  0.
    5000000    2    1    2    0    0 -0.46518045643E+03  0.76181998090E+03 -0.47951982318E+03  0.11775756281E+04  0.59998546553E+03 0.  0.
        -24    2    4    4    0    0 -0.15671702946E+03  0.56295993497E+03 -0.53667731483E+03  0.79784080132E+03  0.83924300929E+02 0.  0.
         24    2    4    4    0    0 -0.30846342697E+03  0.19886004592E+03  0.57157491650E+02  0.37973482683E+03  0.78971869744E+02 0.  0.
         13    1    3    3    0    0  0.22228043027E+03 -0.41770204731E+03 -0.12687240992E+04  0.13540843511E+04  0.00000000000E+00 0. -1.
        -14    1    3    3    0    0  0.24290002616E+03 -0.34411793359E+03 -0.98615622179E+03  0.10723440067E+04  0.00000000000E+00 0.  1.
         15    1    5    5    0    0 -0.69607980697E+01  0.13943087723E+03 -0.15233535681E+03  0.20663649460E+03  0.17770000000E+01 0. -1.
        -16    1    5    5    0    0 -0.14975623139E+03  0.42352905774E+03 -0.38434195802E+03  0.59120430672E+03  0.00000000000E+00 0.  1.
          4    1    6    6  502    0 -0.45736545915E+02  0.33377909568E+02  0.38906737212E+02  0.68699713827E+02  0.00000000000E+00 0. -1.
         -3    1    6    6    0  502 -0.26272688106E+03  0.16548213636E+03  0.18250754438E+02  0.31103511300E+03  0.00000000000E+00 0.  1.
<mgrwt>
<rscale>  0 0.92516733E+03</rscale>
<asrwt>0</asrwt>
<pdfrwt beam="1">  1        1 0.48756953E+00 0.92516733E+03</pdfrwt>
<pdfrwt beam="2">  1       -2 0.66892606E-01 0.92516733E+03</pdfrwt>
<totfact> 0.84120753E-01</totfact>
</mgrwt>
</event>
<event>
12    3  0.1182097E-007  0.7454880E+03  0.7818608E-02  0.9642456E-01
         -2   -1    0    0    0  501 -0.00000000000E+00  0.00000000000E+00  0.77157615855E+03  0.77157615855E+03  0.00000000000E+00 0.  1.
          1   -1    0    0  501    0  0.00000000000E+00 -0.00000000000E+00 -0.10638010687E+04  0.10638010687E+04  0.00000000000E+00 0. -1.
        -24    2    1    2    0    0 -0.46427427655E+01 -0.72263205921E+03 -0.48829163639E+03  0.87582554731E+03  0.80143740180E+02 0.  0.
    5000000    2    1    2    0    0  0.46427427655E+01  0.72263205921E+03  0.19606672629E+03  0.95955167990E+03  0.60006551073E+03 0.  0.
        -24    2    4    4    0    0  0.10716416252E+03  0.57800965130E+03 -0.10599137686E+03  0.60042704632E+03  0.60820648301E+02 0.  0.
         24    2    4    4    0    0 -0.10252141976E+03  0.14462240792E+03  0.30205810315E+03  0.35912463358E+03  0.79404800757E+02 0.  0.
         13    1    3    3    0    0  0.89629419846E+01 -0.17823262242E+03 -0.82014680637E+02  0.19640165443E+03  0.00000000000E+00 0. -1.
        -14    1    3    3    0    0 -0.13605684750E+02 -0.54439943679E+03 -0.40627695575E+03  0.67942389288E+03  0.00000000000E+00 0.  1.
         15    1    5    5    0    0  0.66595136588E+02  0.20710734547E+03 -0.48663404224E+02  0.22293418178E+03  0.17770000000E+01 0. -1.
        -16    1    5    5    0    0  0.40569025936E+02  0.37090230583E+03 -0.57327972638E+02  0.37749286454E+03  0.00000000000E+00 0.  1.
          2    1    6    6  502    0 -0.40959415729E+02  0.57139034002E+02  0.19708785259E+03  0.20925143867E+03  0.00000000000E+00 0. -1.
         -3    1    6    6    0  502 -0.61562004029E+02  0.87483373914E+02  0.10497025056E+03  0.14987319491E+03  0.00000000000E+00 0.  1.
<mgrwt>
<rscale>  0 0.74548799E+03</rscale>
<asrwt>0</asrwt>
<pdfrwt beam="1">  1        1 0.16366170E+00 0.74548799E+03</pdfrwt>
<pdfrwt beam="2">  1       -2 0.11870402E+00 0.74548799E+03</pdfrwt>
<totfact> 0.66288857E+00</totfact>
</mgrwt>
</event>
<event>
12    3  0.1182097E-007  0.1000019E+04  0.7818608E-02  0.9308524E-01
          1   -1    0    0  501    0  0.00000000000E+00  0.00000000000E+00  0.12893146317E+04  0.12893146317E+04  0.00000000000E+00 0. -1.
         -2   -1    0    0    0  501 -0.00000000000E+00 -0.00000000000E+00 -0.15692604810E+04  0.15692604810E+04  0.00000000000E+00 0.  1.
        -24    2    1    2    0    0  0.72654116147E+03 -0.64826136029E+03  0.81715179030E+03  0.12737109920E+04  0.80608883793E+02 0.  0.
    5000000    2    1    2    0    0 -0.72654116147E+03  0.64826136029E+03 -0.10970976396E+04  0.15848641207E+04  0.60005516380E+03 0.  0.
        -24    2    4    4    0    0 -0.32676339717E+02  0.17768254907E+03 -0.54157011551E+03  0.57620356610E+03  0.77932843882E+02 0.  0.
         24    2    4    4    0    0 -0.69386482175E+03  0.47057881122E+03 -0.55552752407E+03  0.10086605546E+04  0.76762463918E+02 0.  0.
         11    1    3    3    0    0  0.57739637233E+03 -0.51298032006E+03  0.68912490510E+03  0.10350983115E+04  0.00000000000E+00 0. -1.
        -12    1    3    3    0    0  0.14914478914E+03 -0.13528104023E+03  0.12802688520E+03  0.23861268053E+03  0.00000000000E+00 0.  1.
         15    1    5    5    0    0 -0.13426866139E+02  0.57366461702E+01 -0.11412285774E+03  0.11506682507E+03  0.17770000000E+01 0. -1.
        -16    1    5    5    0    0 -0.19249473578E+02  0.17194590290E+03 -0.42744725776E+03  0.46113674103E+03  0.00000000000E+00 0.  1.
          2    1    6    6  502    0 -0.20189573973E+03  0.12677518704E+03 -0.11858434394E+03  0.26626318633E+03  0.00000000000E+00 0. -1.
         -1    1    6    6    0  502 -0.49196908203E+03  0.34380362418E+03 -0.43694318014E+03  0.74239736822E+03  0.00000000000E+00 0.  1.
<mgrwt>
<rscale>  0 0.10000190E+04</rscale>
<asrwt>0</asrwt>
<pdfrwt beam="1">  1        1 0.19835610E+00 0.10000190E+04</pdfrwt>
<pdfrwt beam="2">  1       -2 0.24142469E+00 0.10000190E+04</pdfrwt>
<totfact> 0.58691854E-01</totfact>
</mgrwt>
</event>
<event>
12    3  0.1182097E-007  0.7363563E+03  0.7818608E-02  0.9657002E-01
          1   -1    0    0  501    0  0.00000000000E+00  0.00000000000E+00  0.99383548358E+03  0.99383548358E+03  0.00000000000E+00 0. -1.
         -2   -1    0    0    0  501 -0.00000000000E+00 -0.00000000000E+00 -0.64599245468E+03  0.64599245468E+03  0.00000000000E+00 0.  1.
        -24    2    1    2    0    0  0.59786351849E+03  0.19319054582E+03 -0.13236105438E+03  0.64715708360E+03  0.80805126032E+02 0.  0.
    5000000    2    1    2    0    0 -0.59786351849E+03 -0.19319054582E+03  0.48020408327E+03  0.99267085466E+03  0.60003007455E+03 0.  0.
        -24    2    4    4    0    0 -0.46684562172E+03 -0.38232335174E+03  0.25162074198E+03  0.65857671481E+03  0.79336698284E+02 0.  0.
         24    2    4    4    0    0 -0.13101789678E+03  0.18913280591E+03  0.22858334129E+03  0.33409413985E+03  0.80197523799E+02 0.  0.
         13    1    3    3    0    0  0.31695105703E+03  0.12867529943E+03 -0.39533318172E+02  0.34435183821E+03  0.00000000000E+00 0. -1.
        -14    1    3    3    0    0  0.28091246147E+03  0.64515246397E+02 -0.92827736206E+02  0.30280524539E+03  0.00000000000E+00 0.  1.
         15    1    5    5    0    0 -0.25108349683E+03 -0.23754075762E+03  0.11043984978E+03  0.36286175337E+03  0.17770000000E+01 0. -1.
        -16    1    5    5    0    0 -0.21576212489E+03 -0.14478259411E+03  0.14118089221E+03  0.29571496144E+03  0.00000000000E+00 0.  1.
          2    1    6    6  502    0 -0.15679325576E+02  0.33005374670E+00 -0.39936349198E+00  0.15687883133E+02  0.00000000000E+00 0. -1.
         -1    1    6    6    0  502 -0.11533857120E+03  0.18880275216E+03  0.22898270478E+03  0.31840625672E+03  0.00000000000E+00 0.  1.
<mgrwt>
<rscale>  0 0.73635627E+03</rscale>
<asrwt>0</asrwt>
<pdfrwt beam="1">  1        1 0.15289777E+00 0.73635627E+03</pdfrwt>
<pdfrwt beam="2">  1       -2 0.99383455E-01 0.73635627E+03</pdfrwt>
<totfact> 0.11530170E+01</totfact>
</mgrwt>
</event>
<event>
12    3  0.1182097E-007  0.5089791E+03  0.7818608E-02  0.1011461E+00
          1   -1    0    0  501    0  0.00000000000E+00  0.00000000000E+00  0.80354634766E+03  0.80354634766E+03  0.00000000000E+00 0. -1.
         -2   -1    0    0    0  501 -0.00000000000E+00 -0.00000000000E+00 -0.46395416836E+03  0.46395416836E+03  0.00000000000E+00 0.  1.
        -24    2    1    2    0    0  0.15795183175E+03  0.41233651804E+03 -0.33714869104E+00  0.44870949084E+03  0.79811704876E+02 0.  0.
    5000000    2    1    2    0    0 -0.15795183175E+03 -0.41233651804E+03  0.33992932799E+03  0.81879102519E+03  0.59991383518E+03 0.  0.
        -24    2    4    4    0    0 -0.26175922047E+03 -0.21986092884E+03  0.44088587187E+03  0.56352730319E+03  0.79535852905E+02 0.  0.
         24    2    4    4    0    0  0.10380738872E+03 -0.19247558920E+03 -0.10095654388E+03  0.25526372200E+03  0.84525248436E+02 0.  0.
         13    1    3    3    0    0  0.58631813043E+02  0.22817903497E+03  0.29229415676E+02  0.23739781010E+03  0.00000000000E+00 0. -1.
        -14    1    3    3    0    0  0.99320018705E+02  0.18415748307E+03 -0.29566564367E+02  0.21131168074E+03  0.00000000000E+00 0.  1.
         15    1    5    5    0    0 -0.23833424166E+03 -0.20118439986E+03  0.35493276665E+03  0.47250269847E+03  0.17770000000E+01 0. -1.
        -16    1    5    5    0    0 -0.23424978811E+02 -0.18676528973E+02  0.85953105218E+02  0.91024604714E+02  0.00000000000E+00 0.  1.
          4    1    6    6  502    0  0.24113599827E+02 -0.12363647456E+03 -0.75722420023E+02  0.14697390392E+03  0.00000000000E+00 0. -1.
         -3    1    6    6    0  502  0.79693788891E+02 -0.68839114639E+02 -0.25234123859E+02  0.10828981808E+03  0.00000000000E+00 0.  1.
<mgrwt>
<rscale>  0 0.50897907E+03</rscale>
<asrwt>0</asrwt>
<pdfrwt beam="1">  1        1 0.12362252E+00 0.50897907E+03</pdfrwt>
<pdfrwt beam="2">  1       -2 0.71377564E-01 0.50897907E+03</pdfrwt>
<totfact> 0.35856569E+01</totfact>
</mgrwt>
</event>
<event>
12    3  0.1182097E-007  0.5230560E+03  0.7818608E-02  0.1007930E+00
          1   -1    0    0  501    0  0.00000000000E+00  0.00000000000E+00  0.13275622344E+04  0.13275622344E+04  0.00000000000E+00 0. -1.
         -2   -1    0    0    0  501 -0.00000000000E+00 -0.00000000000E+00 -0.25493659222E+03  0.25493659222E+03  0.00000000000E+00 0.  1.
        -24    2    1    2    0    0 -0.22490916456E+03 -0.35460134476E+03  0.33365780138E+03  0.54213393533E+03  0.79091272614E+02 0.  0.
    5000000    2    1    2    0    0  0.22490916456E+03  0.35460134476E+03  0.73896784077E+03  0.10403648913E+04  0.59996615843E+03 0.  0.
        -24    2    4    4    0    0 -0.11920845623E+03  0.42815014284E+02 -0.16007938700E+02  0.15040976020E+03  0.79517673359E+02 0.  0.
         24    2    4    4    0    0  0.34411762079E+03  0.31178633047E+03  0.75497577947E+03  0.88995513106E+03  0.80025339141E+02 0.  0.
         13    1    3    3    0    0 -0.32745351726E+02 -0.11704471746E+03  0.87389100460E+02  0.14969495257E+03  0.00000000000E+00 0. -1.
        -14    1    3    3    0    0 -0.19216381284E+03 -0.23755662730E+03  0.24626870092E+03  0.39243898276E+03  0.00000000000E+00 0.  1.
         15    1    5    5    0    0 -0.99407849934E+01 -0.19653498960E+02 -0.10399158614E+02  0.24420881568E+02  0.17770000000E+01 0. -1.
        -16    1    5    5    0    0 -0.10926767124E+03  0.62468513244E+02 -0.56087800859E+01  0.12598887863E+03  0.00000000000E+00 0.  1.
          4    1    6    6  502    0  0.92281636410E+02  0.40116892090E+02  0.17023337804E+03  0.19774900366E+03  0.00000000000E+00 0. -1.
         -3    1    6    6    0  502  0.25183598438E+03  0.27166943838E+03  0.58474240143E+03  0.69220612740E+03  0.00000000000E+00 0.  1.
<mgrwt>
<rscale>  0 0.52305602E+03</rscale>
<asrwt>0</asrwt>
<pdfrwt beam="1">  1        1 0.20424034E+00 0.52305602E+03</pdfrwt>
<pdfrwt beam="2">  1       -2 0.39221015E-01 0.52305602E+03</pdfrwt>
<totfact> 0.49051390E+01</totfact>
</mgrwt>
</event>
<event>
12    3  0.1182097E-007  0.9737150E+03  0.7818608E-02  0.9337853E-01
         -2   -1    0    0    0  501 -0.00000000000E+00  0.00000000000E+00  0.12849266817E+04  0.12849266817E+04  0.00000000000E+00 0.  1.
          1   -1    0    0  501    0  0.00000000000E+00 -0.00000000000E+00 -0.97632002994E+03  0.97632002994E+03  0.00000000000E+00 0. -1.
        -24    2    1    2    0    0  0.80426436571E+03  0.40629129663E+03 -0.37695769127E+03  0.97988323119E+03  0.78487311670E+02 0.  0.
    5000000    2    1    2    0    0 -0.80426436571E+03 -0.40629129663E+03  0.68556434305E+03  0.12813634805E+04  0.59998342723E+03 0.  0.
        -24    2    4    4    0    0 -0.83640745762E+03 -0.24243019736E+03  0.65902886457E+03  0.10949397918E+04  0.78894028199E+02 0.  0.
         24    2    4    4    0    0  0.32143091905E+02 -0.16386109927E+03  0.26535478489E+02  0.18642368863E+03  0.78524020863E+02 0.  0.
         13    1    3    3    0    0  0.31418981894E+03  0.11708371976E+03 -0.13171563638E+03  0.36023998754E+03  0.00000000000E+00 0. -1.
        -14    1    3    3    0    0  0.49007454677E+03  0.28920757687E+03 -0.24524205489E+03  0.61964324365E+03  0.00000000000E+00 0.  1.
         15    1    5    5    0    0 -0.32248511791E+02 -0.10533362894E+01  0.41987006290E+02  0.52982473104E+02  0.17770000000E+01 0. -1.
        -16    1    5    5    0    0 -0.80415894583E+03 -0.24137686107E+03  0.61704185828E+03  0.10419573187E+04  0.00000000000E+00 0.  1.
          2    1    6    6  502    0  0.24808537204E+01 -0.10705919167E+03  0.49995740343E+02  0.11818375188E+03  0.00000000000E+00 0. -1.
         -1    1    6    6    0  502  0.29662238185E+02 -0.56801907597E+02 -0.23460261855E+02  0.68239936746E+02  0.00000000000E+00 0.  1.
<mgrwt>
<rscale>  0 0.97371500E+03</rscale>
<asrwt>0</asrwt>
<pdfrwt beam="1">  1        1 0.15020308E+00 0.97371500E+03</pdfrwt>
<pdfrwt beam="2">  1       -2 0.19768103E+00 0.97371500E+03</pdfrwt>
<totfact> 0.19071247E+00</totfact>
</mgrwt>
</event>
<event>
12    3  0.1182097E-007  0.9450205E+03  0.7818608E-02  0.9370990E-01
         -2   -1    0    0    0  501 -0.00000000000E+00  0.00000000000E+00  0.51307889107E+03  0.51307889107E+03  0.00000000000E+00 0.  1.
          1   -1    0    0  501    0  0.00000000000E+00 -0.00000000000E+00 -0.18161493424E+04  0.18161493424E+04  0.00000000000E+00 0. -1.
        -24    2    1    2    0    0 -0.31104364481E+03  0.79029411059E+03 -0.36236880988E+03  0.92696692171E+03  0.81508216461E+02 0.  0.
    5000000    2    1    2    0    0  0.31104364481E+03 -0.79029411059E+03 -0.94070164147E+03  0.14022613118E+04  0.60008689210E+03 0.  0.
        -24    2    4    4    0    0 -0.14876794857E+03 -0.38394854862E+03 -0.42661637413E+03  0.59770818955E+03  0.75532500785E+02 0.  0.
         24    2    4    4    0    0  0.45981159338E+03 -0.40634556197E+03 -0.51408526734E+03  0.80455312224E+03  0.80490044496E+02 0.  0.
         11    1    3    3    0    0 -0.22901756529E+03  0.66601824358E+03 -0.29792777713E+03  0.76471583375E+03  0.00000000000E+00 0. -1.
        -12    1    3    3    0    0 -0.82026079520E+02  0.12427586701E+03 -0.64441032750E+02  0.16225108796E+03  0.00000000000E+00 0.  1.
         15    1    5    5    0    0 -0.68013406753E+02 -0.85054622598E+02 -0.11690456660E+03  0.15978093674E+03  0.17770000000E+01 0. -1.
        -16    1    5    5    0    0 -0.80754541818E+02 -0.29889392602E+03 -0.30971180752E+03  0.43792725281E+03  0.00000000000E+00 0.  1.
          4    1    6    6  502    0  0.40893421297E+03 -0.32493667952E+03 -0.42137070769E+03  0.67109187861E+03  0.00000000000E+00 0. -1.
         -3    1    6    6    0  502  0.50877380409E+02 -0.81408882452E+02 -0.92714559655E+02  0.13346124363E+03  0.00000000000E+00 0.  1.
<mgrwt>
<rscale>  0 0.94502047E+03</rscale>
<asrwt>0</asrwt>
<pdfrwt beam="1">  1        1 0.27940759E+00 0.94502047E+03</pdfrwt>
<pdfrwt beam="2">  1       -2 0.78935214E-01 0.94502047E+03</pdfrwt>
<totfact> 0.50264642E+00</totfact>
</mgrwt>
</event>
<event>
12    3  0.1182097E-007  0.3252836E+03  0.7818608E-02  0.1073243E+00
         -2   -1    0    0    0  501 -0.00000000000E+00  0.00000000000E+00  0.11265381472E+03  0.11265381472E+03  0.00000000000E+00 0.  1.
          1   -1    0    0  501    0  0.00000000000E+00 -0.00000000000E+00 -0.17625955281E+04  0.17625955281E+04  0.00000000000E+00 0. -1.
        -24    2    1    2    0    0  0.18230600433E+03 -0.13267331688E+03 -0.60154156571E+03  0.64646635445E+03  0.72310469043E+02 0.  0.
    5000000    2    1    2    0    0 -0.18230600433E+03  0.13267331688E+03 -0.10484001477E+04  0.12287829884E+04  0.59993922581E+03 0.  0.
        -24    2    4    4    0    0  0.21367169265E+02 -0.89143425477E+02  0.16484251731E+02  0.11920514242E+03  0.74397776828E+02 0.  0.
         24    2    4    4    0    0 -0.20367317360E+03  0.22181674236E+03 -0.10648843994E+04  0.11095778460E+04  0.80615031531E+02 0.  0.
         11    1    3    3    0    0  0.32134894792E+02 -0.16841991535E+02 -0.41188453473E+02  0.54888913650E+02  0.00000000000E+00 0. -1.
        -12    1    3    3    0    0  0.15017110954E+03 -0.11583132535E+03 -0.56035311224E+03  0.59157744080E+03  0.00000000000E+00 0.  1.
         15    1    5    5    0    0 -0.22675054072E+02 -0.16974258731E+02  0.19782054442E+02  0.34594377341E+02  0.17770000000E+01 0. -1.
        -16    1    5    5    0    0  0.44042223337E+02 -0.72169166746E+02 -0.32978027110E+01  0.84610765083E+02  0.00000000000E+00 0.  1.
          2    1    6    6  502    0 -0.11689186226E+03  0.18181628426E+03 -0.74629704749E+03  0.77696856550E+03  0.00000000000E+00 0. -1.
         -1    1    6    6    0  502 -0.86781311336E+02  0.40000458103E+02 -0.31858735193E+03  0.33260928047E+03  0.00000000000E+00 0.  1.
<mgrwt>
<rscale>  0 0.32528361E+03</rscale>
<asrwt>0</asrwt>
<pdfrwt beam="1">  1        1 0.27116855E+00 0.32528361E+03</pdfrwt>
<pdfrwt beam="2">  1       -2 0.17331356E-01 0.32528361E+03</pdfrwt>
<totfact> 0.11285052E+02</totfact>
</mgrwt>
</event>
<event>
12    3  0.1182097E-007  0.2224906E+04  0.7818608E-02  0.8508132E-01
         -2   -1    0    0    0  501 -0.00000000000E+00  0.00000000000E+00  0.24629971659E+04  0.24629971659E+04  0.00000000000E+00 0.  1.
          1   -1    0    0  501    0  0.00000000000E+00 -0.00000000000E+00 -0.21059844321E+04  0.21059844321E+04  0.00000000000E+00 0. -1.
        -24    2    1    2    0    0  0.18086916926E+04 -0.12916955673E+04  0.43059615327E+03  0.22656392071E+04  0.88684226574E+02 0.  0.
    5000000    2    1    2    0    0 -0.18086916926E+04  0.12916955673E+04 -0.73583419460E+02  0.23033423909E+04  0.60010713426E+03 0.  0.
        -24    2    4    4    0    0 -0.10754619581E+04  0.76653937668E+03  0.24111894104E+03  0.13449173953E+04  0.80395380689E+02 0.  0.
         24    2    4    4    0    0 -0.73322973452E+03  0.52515619057E+03 -0.31470236050E+03  0.95842499554E+03  0.78268948438E+02 0.  0.
         13    1    3    3    0    0  0.82189322072E+03 -0.64030465585E+03  0.21046382936E+03  0.10629174672E+04  0.00000000000E+00 0. -1.
        -14    1    3    3    0    0  0.98679847187E+03 -0.65139091140E+03  0.22013232391E+03  0.12027217399E+04  0.00000000000E+00 0.  1.
         15    1    5    5    0    0 -0.96201332604E+03  0.67887669467E+03  0.23946538853E+03  0.12015365313E+04  0.17770000000E+01 0. -1.
        -16    1    5    5    0    0 -0.11344863203E+03  0.87662682009E+02  0.16535525161E+01  0.14338086400E+03  0.00000000000E+00 0.  1.
          4    1    6    6  502    0 -0.65809438313E+03  0.44249339211E+03 -0.26467389557E+03  0.83602684775E+03  0.00000000000E+00 0. -1.
         -3    1    6    6    0  502 -0.75135351392E+02  0.82662798466E+02 -0.50028464930E+02  0.12239814779E+03  0.00000000000E+00 0.  1.
<mgrwt>
<rscale>  0 0.22249065E+04</rscale>
<asrwt>0</asrwt>
<pdfrwt beam="1">  1        1 0.32399760E+00 0.22249065E+04</pdfrwt>
<pdfrwt beam="2">  1       -2 0.37892264E+00 0.22249065E+04</pdfrwt>
<totfact> 0.19518183E-02</totfact>
</mgrwt>
</event>
<event>
12    3  0.1182097E-007  0.6500571E+03  0.7818608E-02  0.9806672E-01
          1   -1    0    0  501    0  0.00000000000E+00  0.00000000000E+00  0.27135741648E+04  0.27135741648E+04  0.00000000000E+00 0. -1.
         -2   -1    0    0    0  501 -0.00000000000E+00 -0.00000000000E+00 -0.24191566673E+03  0.24191566673E+03  0.00000000000E+00 0.  1.
        -24    2    1    2    0    0  0.45919111541E+03  0.33098430144E+03  0.32901936128E+03  0.65953164707E+03  0.79505755296E+02 0.  0.
    5000000    2    1    2    0    0 -0.45919111541E+03 -0.33098430144E+03  0.21426391368E+04  0.22959581845E+04  0.60009534741E+03 0.  0.
        -24    2    4    4    0    0 -0.47865419565E+03 -0.97318056799E+02  0.18378259069E+04  0.19032478908E+04  0.78535510534E+02 0.  0.
         24    2    4    4    0    0  0.19463080244E+02 -0.23366624464E+03  0.30481322990E+03  0.39271029370E+03  0.79571001503E+02 0.  0.
         11    1    3    3    0    0  0.14823138252E+03  0.77040246448E+02  0.12852722302E+03  0.21077710833E+03  0.00000000000E+00 0. -1.
        -12    1    3    3    0    0  0.31095973288E+03  0.25394405499E+03  0.20049213826E+03  0.44875453874E+03  0.00000000000E+00 0.  1.
         15    1    5    5    0    0 -0.88995808475E+02 -0.50280380037E+02  0.38106334169E+03  0.39453871629E+03  0.17770000000E+01 0. -1.
        -16    1    5    5    0    0 -0.38965838718E+03 -0.47037676762E+02  0.14567625652E+04  0.15087091745E+04  0.00000000000E+00 0.  1.
          2    1    6    6  502    0  0.28484014501E+02 -0.19955124004E+03  0.29271394477E+03  0.35540609160E+03  0.00000000000E+00 0. -1.
         -1    1    6    6    0  502 -0.90209342564E+01 -0.34115004594E+02  0.12099285124E+02  0.37304202094E+02  0.00000000000E+00 0.  1.
<mgrwt>
<rscale>  0 0.65005708E+03</rscale>
<asrwt>0</asrwt>
<pdfrwt beam="1">  1        1 0.41747293E+00 0.65005708E+03</pdfrwt>
<pdfrwt beam="2">  1       -2 0.37217797E-01 0.65005708E+03</pdfrwt>
<totfact> 0.61812566E+00</totfact>
</mgrwt>
</event>
<event>
12    3  0.1182097E-007  0.4130353E+03  0.7818608E-02  0.1039357E+00
          1   -1    0    0  501    0  0.00000000000E+00  0.00000000000E+00  0.79420592412E+03  0.79420592412E+03  0.00000000000E+00 0. -1.
         -2   -1    0    0    0  501 -0.00000000000E+00 -0.00000000000E+00 -0.39142173491E+03  0.39142173491E+03  0.00000000000E+00 0.  1.
        -24    2    1    2    0    0 -0.25822014511E+03  0.83696685641E+02  0.44291484187E+03  0.52584707530E+03  0.81601537498E+02 0.  0.
    5000000    2    1    2    0    0  0.25822014511E+03 -0.83696685641E+02 -0.40130652666E+02  0.65978058373E+03  0.60001430887E+03 0.  0.
        -24    2    4    4    0    0  0.31705047839E+03 -0.22726703223E+03  0.12773577093E+03  0.41787229931E+03  0.78291261160E+02 0.  0.
         24    2    4    4    0    0 -0.58830333280E+02  0.14357034658E+03 -0.16786642359E+03  0.24190828441E+03  0.79164571408E+02 0.  0.
         13    1    3    3    0    0 -0.10918482747E+03  0.44125682939E+02  0.26760653051E+03  0.29237246385E+03  0.00000000000E+00 0. -1.
        -14    1    3    3    0    0 -0.14903531765E+03  0.39571002702E+02  0.17530831136E+03  0.23347461145E+03  0.00000000000E+00 0.  1.
         15    1    5    5    0    0  0.20370488902E+03 -0.99463573069E+02  0.64174300170E+02  0.23560599039E+03  0.17770000000E+01 0. -1.
        -16    1    5    5    0    0  0.11334558937E+03 -0.12780345916E+03  0.63561470755E+02  0.18226630892E+03  0.00000000000E+00 0.  1.
          4    1    6    6  502    0 -0.39794343914E+02  0.69287510275E+02 -0.32354664862E+02  0.86204252946E+02  0.00000000000E+00 0. -1.
         -3    1    6    6    0  502 -0.19035989366E+02  0.74282836309E+02 -0.13551175873E+03  0.15570403147E+03  0.00000000000E+00 0.  1.
<mgrwt>
<rscale>  0 0.41303533E+03</rscale>
<asrwt>0</asrwt>
<pdfrwt beam="1">  1        1 0.12218553E+00 0.41303533E+03</pdfrwt>
<pdfrwt beam="2">  1       -2 0.60218729E-01 0.41303533E+03</pdfrwt>
<totfact> 0.53203447E+01</totfact>
</mgrwt>
</event>
<event>
12    3  0.1182097E-007  0.3411189E+03  0.7818608E-02  0.1066320E+00
          1   -1    0    0  501    0  0.00000000000E+00  0.00000000000E+00  0.60976400685E+03  0.60976400685E+03  0.00000000000E+00 0. -1.
         -2   -1    0    0    0  501 -0.00000000000E+00 -0.00000000000E+00 -0.55711527714E+03  0.55711527714E+03  0.00000000000E+00 0.  1.
        -24    2    1    2    0    0 -0.25001635186E+03  0.15884285602E+03 -0.28444958503E+03  0.41784488151E+03  0.77094419257E+02 0.  0.
    5000000    2    1    2    0    0  0.25001635186E+03 -0.15884285602E+03  0.33709831473E+03  0.74903440248E+03  0.59973163431E+03 0.  0.
        -24    2    4    4    0    0  0.18953664257E+03 -0.20459709265E+03  0.48486839650E+03  0.56497116001E+03  0.79441428273E+02 0.  0.
         24    2    4    4    0    0  0.60479709292E+02  0.45754236634E+02 -0.14777008176E+03  0.18406324247E+03  0.79322347147E+02 0.  0.
         11    1    3    3    0    0 -0.12682897646E+03  0.61078821892E+02 -0.18226018998E+03  0.23029326652E+03  0.00000000000E+00 0. -1.
        -12    1    3    3    0    0 -0.12318737540E+03  0.97764034125E+02 -0.10218939505E+03  0.18755161500E+03  0.00000000000E+00 0.  1.
         15    1    5    5    0    0  0.11563586587E+03 -0.70029208607E+02  0.20085382245E+03  0.24211806883E+03  0.17770000000E+01 0. -1.
        -16    1    5    5    0    0  0.73900776700E+02 -0.13456788404E+03  0.28401457405E+03  0.32285309118E+03  0.00000000000E+00 0.  1.
          2    1    6    6  502    0  0.71708387621E+02  0.34490483444E+02 -0.14813587759E+03  0.16815446629E+03  0.00000000000E+00 0. -1.
         -1    1    6    6    0  502 -0.11228678329E+02  0.11263753190E+02  0.36579582497E+00  0.15908776179E+02  0.00000000000E+00 0.  1.
<mgrwt>
<rscale>  0 0.34111891E+03</rscale>
<asrwt>0</asrwt>
<pdfrwt beam="1">  1        1 0.93809848E-01 0.34111891E+03</pdfrwt>
<pdfrwt beam="2">  1       -2 0.85710042E-01 0.34111891E+03</pdfrwt>
<totfact> 0.36942439E+01</totfact>
</mgrwt>
</event>
<event>
12    3  0.1182097E-007  0.6646873E+03  0.7818608E-02  0.9779603E-01
          1   -1    0    0  501    0  0.00000000000E+00  0.00000000000E+00  0.23161108826E+03  0.23161108826E+03  0.00000000000E+00 0. -1.
         -2   -1    0    0    0  501 -0.00000000000E+00 -0.00000000000E+00 -0.20549613851E+04  0.20549613851E+04  0.00000000000E+00 0.  1.
        -24    2    1    2    0    0 -0.28194626180E+03 -0.46194085193E+03 -0.53100615264E+03  0.76254311139E+03  0.81372091993E+02 0.  0.
    5000000    2    1    2    0    0  0.28194626180E+03  0.46194085193E+03 -0.12923441442E+04  0.15240293619E+04  0.59969080690E+03 0.  0.
        -24    2    4    4    0    0  0.16956543464E+03 -0.10194263556E+03 -0.23083085851E+03  0.31438773930E+03  0.80075138513E+02 0.  0.
         24    2    4    4    0    0  0.11238082716E+03  0.56388348750E+03 -0.10615132857E+04  0.12096416226E+04  0.76343708569E+02 0.  0.
         13    1    3    3    0    0 -0.19863283371E+03 -0.27225504644E+03 -0.36738500261E+03  0.49854744316E+03  0.00000000000E+00 0. -1.
        -14    1    3    3    0    0 -0.83313428089E+02 -0.18968580549E+03 -0.16362115004E+03  0.26399566823E+03  0.00000000000E+00 0.  1.
         15    1    5    5    0    0  0.15270043867E+03 -0.67766897344E+02 -0.21695637310E+03  0.27383024286E+03  0.17770000000E+01 0. -1.
        -16    1    5    5    0    0  0.16864995968E+02 -0.34175738220E+02 -0.13874485414E+02  0.40557496439E+02  0.00000000000E+00 0.  1.
          2    1    6    6  502    0  0.10409723168E+03  0.33122765416E+03 -0.63105307111E+03  0.72026104370E+03  0.00000000000E+00 0. -1.
         -1    1    6    6    0  502  0.82835954762E+01  0.23265583333E+03 -0.43046021454E+03  0.48938057894E+03  0.00000000000E+00 0.  1.
<mgrwt>
<rscale>  0 0.66468726E+03</rscale>
<asrwt>0</asrwt>
<pdfrwt beam="1">  1        1 0.35632476E-01 0.66468726E+03</pdfrwt>
<pdfrwt beam="2">  1       -2 0.31614790E+00 0.66468726E+03</pdfrwt>
<totfact> 0.28758514E+00</totfact>
</mgrwt>
</event>
<event>
12    3  0.1182097E-007  0.5450676E+03  0.7818608E-02  0.1002642E+00
          1   -1    0    0  501    0  0.00000000000E+00  0.00000000000E+00  0.14962285358E+04  0.14962285358E+04  0.00000000000E+00 0. -1.
         -2   -1    0    0    0  501 -0.00000000000E+00 -0.00000000000E+00 -0.25229106828E+03  0.25229106828E+03  0.00000000000E+00 0.  1.
        -24    2    1    2    0    0  0.28546532260E+03 -0.35077069897E+03  0.32954866948E+03  0.56507821637E+03  0.78616355754E+02 0.  0.
    5000000    2    1    2    0    0 -0.28546532260E+03  0.35077069897E+03  0.91438879805E+03  0.11834413877E+04  0.59991341920E+03 0.  0.
        -24    2    4    4    0    0  0.17714427782E+02  0.30607059450E+03  0.77085549425E+03  0.83601024339E+03  0.10345010523E+03 0.  0.
         24    2    4    4    0    0 -0.30317975038E+03  0.44700104474E+02  0.14353330380E+03  0.34743114434E+03  0.78679923581E+02 0.  0.
         11    1    3    3    0    0  0.12162543483E+02 -0.27289045997E+02  0.48026770933E+02  0.56561384545E+02  0.00000000000E+00 0. -1.
        -12    1    3    3    0    0  0.27330277912E+03 -0.32348165297E+03  0.28152189855E+03  0.50851683182E+03  0.00000000000E+00 0.  1.
         15    1    5    5    0    0 -0.41067827351E+02  0.14609847092E+03  0.40158156904E+03  0.42930437217E+03  0.17770000000E+01 0. -1.
        -16    1    5    5    0    0  0.58782255133E+02  0.15997212358E+03  0.36927392521E+03  0.40670587121E+03  0.00000000000E+00 0.  1.
          4    1    6    6  502    0 -0.12292558106E+03 -0.16914660714E+02  0.38606152239E+02  0.12995091079E+03  0.00000000000E+00 0. -1.
         -3    1    6    6    0  502 -0.18025416933E+03  0.61614765187E+02  0.10492715156E+03  0.21748023355E+03  0.00000000000E+00 0.  1.
<mgrwt>
<rscale>  0 0.54506762E+03</rscale>
<asrwt>0</asrwt>
<pdfrwt beam="1">  1        1 0.23018900E+00 0.54506762E+03</pdfrwt>
<pdfrwt beam="2">  1       -2 0.38814011E-01 0.54506762E+03</pdfrwt>
<totfact> 0.38211537E+01</totfact>
</mgrwt>
</event>
<event>
12    3  0.1182097E-007  0.8759817E+03  0.7818608E-02  0.9456114E-01
          1   -1    0    0  501    0  0.00000000000E+00  0.00000000000E+00  0.24186783232E+04  0.24186783232E+04  0.00000000000E+00 0. -1.
         -2   -1    0    0    0  501 -0.00000000000E+00 -0.00000000000E+00 -0.38934609976E+03  0.38934609976E+03  0.00000000000E+00 0.  1.
        -24    2    1    2    0    0 -0.68572989198E+03  0.50526506840E+03  0.62472847771E+03  0.10591353064E+04  0.77224687766E+02 0.  0.
    5000000    2    1    2    0    0  0.68572989198E+03 -0.50526506840E+03  0.14046037457E+04  0.17488891165E+04  0.60015263489E+03 0.  0.
        -24    2    4    4    0    0  0.11854438758E+03 -0.56056222880E+01 -0.93586877724E+01  0.14354230438E+03  0.80203573990E+02 0.  0.
         24    2    4    4    0    0  0.56718550439E+03 -0.49965944612E+03  0.14139624335E+04  0.16053468121E+04  0.80558459097E+02 0.  0.
         11    1    3    3    0    0 -0.14356230082E+03  0.68556078657E+02  0.11592831962E+03  0.19684878823E+03  0.00000000000E+00 0. -1.
        -12    1    3    3    0    0 -0.54216759116E+03  0.43670898975E+03  0.50880015809E+03  0.86228651822E+03  0.00000000000E+00 0.  1.
         15    1    5    5    0    0  0.11995501088E+03  0.13785786584E+02  0.24722615850E+01  0.12078295556E+03  0.17770000000E+01 0. -1.
        -16    1    5    5    0    0 -0.14106232951E+01 -0.19391408872E+02 -0.11830949357E+02  0.22759348822E+02  0.00000000000E+00 0.  1.
          2    1    6    6  502    0  0.35461436288E+03 -0.29258035436E+03  0.93473849821E+03  0.10416768550E+04  0.00000000000E+00 0. -1.
         -1    1    6    6    0  502  0.21257114151E+03 -0.20707909175E+03  0.47922393526E+03  0.56366995713E+03  0.00000000000E+00 0.  1.
<mgrwt>
<rscale>  0 0.87598170E+03</rscale>
<asrwt>0</asrwt>
<pdfrwt beam="1">  1        1 0.37210435E+00 0.87598170E+03</pdfrwt>
<pdfrwt beam="2">  1       -2 0.59899401E-01 0.87598170E+03</pdfrwt>
<totfact> 0.36335529E+00</totfact>
</mgrwt>
</event>
<event>
12    3  0.1182097E-007  0.5145807E+03  0.7818608E-02  0.1010042E+00
          1   -1    0    0  501    0  0.00000000000E+00  0.00000000000E+00  0.72636476205E+03  0.72636476205E+03  0.00000000000E+00 0. -1.
         -2   -1    0    0    0  501 -0.00000000000E+00 -0.00000000000E+00 -0.72688794974E+03  0.72688794974E+03  0.00000000000E+00 0.  1.
        -24    2    1    2    0    0 -0.34867580779E+03 -0.11421020710E+03  0.47443592788E+03  0.60483153136E+03  0.78185301160E+02 0.  0.
    5000000    2    1    2    0    0  0.34867580779E+03  0.11421020710E+03 -0.47495911558E+03  0.84842118044E+03  0.59967786986E+03 0.  0.
        -24    2    4    4    0    0 -0.92777825246E+02  0.17806036475E+03 -0.33141720637E+02  0.21570718938E+03  0.71540195343E+02 0.  0.
         24    2    4    4    0    0  0.44145363303E+03 -0.63850157653E+02 -0.44181739494E+03  0.63271399106E+03  0.78525354265E+02 0.  0.
         11    1    3    3    0    0 -0.23126057781E+02  0.85359857386E+01  0.52130046180E+02  0.57664714651E+02  0.00000000000E+00 0. -1.
        -12    1    3    3    0    0 -0.32554975001E+03 -0.12274619284E+03  0.42230588170E+03  0.54716681671E+03  0.00000000000E+00 0.  1.
         15    1    5    5    0    0 -0.48269416507E+02  0.14867811565E+03 -0.74383447010E+01  0.15650433011E+03  0.17770000000E+01 0. -1.
        -16    1    5    5    0    0 -0.44508408740E+02  0.29382249103E+02 -0.25703375936E+02  0.59202859267E+02  0.00000000000E+00 0.  1.
          2    1    6    6  502    0  0.22369387411E+03 -0.18175172410E+02 -0.17061228364E+03  0.28191813978E+03  0.00000000000E+00 0. -1.
         -1    1    6    6    0  502  0.21775975892E+03 -0.45674985243E+02 -0.27120511130E+03  0.35079585128E+03  0.00000000000E+00 0.  1.
<mgrwt>
<rscale>  0 0.51458072E+03</rscale>
<asrwt>0</asrwt>
<pdfrwt beam="1">  1        1 0.11174842E+00 0.51458072E+03</pdfrwt>
<pdfrwt beam="2">  1       -2 0.11182892E+00 0.51458072E+03</pdfrwt>
<totfact> 0.14949192E+01</totfact>
</mgrwt>
</event>
<event>
12    3  0.1182097E-007  0.5036180E+03  0.7818608E-02  0.1012839E+00
          1   -1    0    0  501    0  0.00000000000E+00  0.00000000000E+00  0.10910514162E+04  0.10910514162E+04  0.00000000000E+00 0. -1.
         -2   -1    0    0    0  501 -0.00000000000E+00 -0.00000000000E+00 -0.33294385062E+03  0.33294385062E+03  0.00000000000E+00 0.  1.
        -24    2    1    2    0    0 -0.23476738751E+03 -0.23594345489E+03 -0.69396698107E+02  0.34900012654E+03  0.78741008842E+02 0.  0.
    5000000    2    1    2    0    0  0.23476738751E+03  0.23594345489E+03  0.82750426365E+03  0.10749951402E+04  0.60005516833E+03 0.  0.
        -24    2    4    4    0    0  0.28335671471E+03  0.39995738577E+03  0.62021118363E+03  0.79421638985E+03  0.76556014778E+02 0.  0.
         24    2    4    4    0    0 -0.48589327203E+02 -0.16401393088E+03  0.20729308002E+03  0.28077875040E+03  0.81269880086E+02 0.  0.
         11    1    3    3    0    0 -0.96025354359E+02 -0.50324365984E+02 -0.39284020776E+02  0.11531107830E+03  0.00000000000E+00 0. -1.
        -12    1    3    3    0    0 -0.13874203315E+03 -0.18561908891E+03 -0.30112677331E+02  0.23368904824E+03  0.00000000000E+00 0.  1.
         15    1    5    5    0    0  0.25426237158E+03  0.30757508452E+03  0.50741752977E+03  0.64554433889E+03  0.17770000000E+01 0. -1.
        -16    1    5    5    0    0  0.29094343128E+02  0.92382301245E+02  0.11279365386E+03  0.14867205096E+03  0.00000000000E+00 0.  1.
          2    1    6    6  502    0 -0.42784197835E+02 -0.13685860020E+03  0.20842631224E+03  0.25298674208E+03  0.00000000000E+00 0. -1.
         -1    1    6    6    0  502 -0.58051293677E+01 -0.27155330677E+02 -0.11332322169E+01  0.27792008320E+02  0.00000000000E+00 0.  1.
<mgrwt>
<rscale>  0 0.50361805E+03</rscale>
<asrwt>0</asrwt>
<pdfrwt beam="1">  1        1 0.16785406E+00 0.50361805E+03</pdfrwt>
<pdfrwt beam="2">  1       -2 0.51222132E-01 0.50361805E+03</pdfrwt>
<totfact> 0.42787620E+01</totfact>
</mgrwt>
</event>
<event>
12    3  0.1182097E-007  0.1307645E+04  0.7818608E-02  0.9023525E-01
          1   -1    0    0  501    0  0.00000000000E+00  0.00000000000E+00  0.13004420213E+04  0.13004420213E+04  0.00000000000E+00 0. -1.
         -2   -1    0    0    0  501 -0.00000000000E+00 -0.00000000000E+00 -0.15291813098E+04  0.15291813098E+04  0.00000000000E+00 0.  1.
        -24    2    1    2    0    0  0.41909044331E+02  0.12683342494E+04  0.33823024415E+03  0.13157959496E+04  0.80567653344E+02 0.  0.
    5000000    2    1    2    0    0 -0.41909044331E+02 -0.12683342494E+04 -0.56696953265E+03  0.15138273814E+04  0.59982560270E+03 0.  0.
        -24    2    4    4    0    0 -0.96953692951E+02 -0.12443913292E+04 -0.39005779956E+03  0.13100566585E+04  0.78699191793E+02 0.  0.
         24    2    4    4    0    0  0.55044648620E+02 -0.23942920221E+02 -0.17691173309E+03  0.20377072294E+03  0.81373026557E+02 0.  0.
         13    1    3    3    0    0  0.33728770572E+01  0.38866264079E+03  0.66654854705E+02  0.39435123216E+03  0.00000000000E+00 0. -1.
        -14    1    3    3    0    0  0.38536167274E+02  0.87967160859E+03  0.27157538945E+03  0.92144471744E+03  0.00000000000E+00 0.  1.
         15    1    5    5    0    0  0.30769448343E+01 -0.22433357188E+03 -0.93506361460E+02  0.24306710272E+03  0.17770000000E+01 0. -1.
        -16    1    5    5    0    0 -0.10003063779E+03 -0.10200577573E+04 -0.29655143810E+03  0.10669895558E+04  0.00000000000E+00 0.  1.
          2    1    6    6  502    0  0.35930806397E+02 -0.51774951478E+02 -0.84709868147E+02  0.10558139140E+03  0.00000000000E+00 0. -1.
         -1    1    6    6    0  502  0.19113842223E+02  0.27832031257E+02 -0.92201864943E+02  0.98189331535E+02  0.00000000000E+00 0.  1.
<mgrwt>
<rscale>  0 0.13076447E+04</rscale>
<asrwt>0</asrwt>
<pdfrwt beam="1">  1        1 0.20006800E+00 0.13076447E+04</pdfrwt>
<pdfrwt beam="2">  1       -2 0.23525866E+00 0.13076447E+04</pdfrwt>
<totfact> 0.60511067E-01</totfact>
</mgrwt>
</event>
<event>
12    3  0.1182097E-007  0.8925562E+03  0.7818608E-02  0.9434935E-01
         -2   -1    0    0    0  501 -0.00000000000E+00  0.00000000000E+00  0.21097499600E+04  0.21097499600E+04  0.00000000000E+00 0.  1.
          1   -1    0    0  501    0  0.00000000000E+00 -0.00000000000E+00 -0.48223246399E+03  0.48223246399E+03  0.00000000000E+00 0. -1.
        -24    2    1    2    0    0 -0.50780777555E+02  0.79929768006E+03  0.16775341666E+03  0.82209698414E+03  0.79036534693E+02 0.  0.
    5000000    2    1    2    0    0  0.50780777555E+02 -0.79929768006E+03  0.14597640793E+04  0.17698854398E+04  0.60010651894E+03 0.  0.
        -24    2    4    4    0    0  0.26533857988E+03 -0.19514439937E+03  0.36023333210E+03  0.49465186231E+03  0.80165533403E+02 0.  0.
         24    2    4    4    0    0 -0.21455780233E+03 -0.60415328069E+03  0.10995307472E+04  0.12752335775E+04  0.78845266264E+02 0.  0.
         11    1    3    3    0    0 -0.70091099531E+02  0.56320832582E+03  0.12966742021E+03  0.58217696654E+03  0.00000000000E+00 0. -1.
        -12    1    3    3    0    0  0.19310321977E+02  0.23608935424E+03  0.38085996446E+02  0.23992001760E+03  0.00000000000E+00 0.  1.
         15    1    5    5    0    0  0.13180912732E+03 -0.14096458788E+03  0.18015869637E+03  0.26401699697E+03  0.17770000000E+01 0. -1.
        -16    1    5    5    0    0  0.13352945257E+03 -0.54179811486E+02  0.18007463574E+03  0.23063486534E+03  0.00000000000E+00 0.  1.
          4    1    6    6  502    0 -0.48455390420E+02 -0.77930298748E+02  0.12135750979E+03  0.15214697337E+03  0.00000000000E+00 0. -1.
         -3    1    6    6    0  502 -0.16610241191E+03 -0.52622298194E+03  0.97817323744E+03  0.11230866041E+04  0.00000000000E+00 0.  1.
<mgrwt>
<rscale>  0 0.89255619E+03</rscale>
<asrwt>0</asrwt>
<pdfrwt beam="1">  1        1 0.74189611E-01 0.89255619E+03</pdfrwt>
<pdfrwt beam="2">  1       -2 0.32457691E+00 0.89255619E+03</pdfrwt>
<totfact> 0.94161988E-01</totfact>
</mgrwt>
</event>
<event>
12    3  0.1182097E-007  0.1050693E+04  0.7818608E-02  0.9254629E-01
         -2   -1    0    0    0  501 -0.00000000000E+00  0.00000000000E+00  0.17364871152E+04  0.17364871152E+04  0.00000000000E+00 0.  1.
          1   -1    0    0  501    0  0.00000000000E+00 -0.00000000000E+00 -0.14309795965E+04  0.14309795965E+04  0.00000000000E+00 0. -1.
        -24    2    1    2    0    0 -0.82761508420E+03 -0.64010007895E+03  0.12526169966E+04  0.16340583757E+04  0.80141102030E+02 0.  0.
    5000000    2    1    2    0    0  0.82761508420E+03  0.64010007895E+03 -0.94710947787E+03  0.15334083360E+04  0.59970819831E+03 0.  0.
        -24    2    4    4    0    0  0.67169972171E+03  0.53899802868E+03 -0.40534207932E+03  0.95522763576E+03  0.80363199216E+02 0.  0.
         24    2    4    4    0    0  0.15591536249E+03  0.10110205028E+03 -0.54176739855E+03  0.57818070023E+03  0.79055570021E+02 0.  0.
         13    1    3    3    0    0 -0.41957512118E+03 -0.33850529966E+03  0.58523617194E+03  0.79569497746E+03  0.00000000000E+00 0. -1.
        -14    1    3    3    0    0 -0.40803996302E+03 -0.30159477929E+03  0.66738082470E+03  0.83836339823E+03  0.00000000000E+00 0.  1.
         15    1    5    5    0    0  0.53513167215E+03  0.39405188869E+03 -0.33318316046E+03  0.74340902178E+03  0.17770000000E+01 0. -1.
        -16    1    5    5    0    0  0.13656804956E+03  0.14494613999E+03 -0.72158918858E+02  0.21181861398E+03  0.00000000000E+00 0.  1.
          4    1    6    6  502    0  0.15752359077E+03  0.10335417573E+03 -0.54328428052E+03  0.57502484881E+03  0.00000000000E+00 0. -1.
         -3    1    6    6    0  502 -0.16082282759E+01 -0.22521254474E+01  0.15168819740E+01  0.31558514131E+01  0.00000000000E+00 0.  1.
<mgrwt>
<rscale>  0 0.10506927E+04</rscale>
<asrwt>0</asrwt>
<pdfrwt beam="1">  1        1 0.22015071E+00 0.10506927E+04</pdfrwt>
<pdfrwt beam="2">  1       -2 0.26715186E+00 0.10506927E+04</pdfrwt>
<totfact> 0.32257201E-01</totfact>
</mgrwt>
</event>
<event>
12    3  0.1182097E-007  0.4168995E+03  0.7818608E-02  0.1038080E+00
         -2   -1    0    0    0  501 -0.00000000000E+00  0.00000000000E+00  0.59270222594E+03  0.59270222594E+03  0.00000000000E+00 0.  1.
          1   -1    0    0  501    0  0.00000000000E+00 -0.00000000000E+00 -0.42245939223E+03  0.42245939223E+03  0.00000000000E+00 0. -1.
        -24    2    1    2    0    0 -0.10930986738E+03 -0.26293931093E+03  0.18994466154E+03  0.35111035236E+03  0.78190643613E+02 0.  0.
    5000000    2    1    2    0    0  0.10930986738E+03  0.26293931093E+03 -0.19701827818E+02  0.66405126581E+03  0.59957501054E+03 0.  0.
        -24    2    4    4    0    0 -0.12104431556E+03 -0.36038928960E+02  0.17414391025E+03  0.23251658376E+03  0.88245847033E+02 0.  0.
         24    2    4    4    0    0  0.23035418294E+03  0.29897823990E+03 -0.19384573807E+03  0.43153468204E+03  0.78708157850E+02 0.  0.
         11    1    3    3    0    0 -0.78623804730E+02 -0.93833591803E+02  0.64826691317E+02  0.13852416947E+03  0.00000000000E+00 0. -1.
        -12    1    3    3    0    0 -0.30686062648E+02 -0.16910571913E+03  0.12511797022E+03  0.21258618289E+03  0.00000000000E+00 0.  1.
         15    1    5    5    0    0  0.90257934354E+01 -0.21252190123E+02  0.25486374422E+02  0.34435933882E+02  0.17770000000E+01 0. -1.
        -16    1    5    5    0    0 -0.13007010900E+03 -0.14786738838E+02  0.14865753583E+03  0.19808064988E+03  0.00000000000E+00 0.  1.
          4    1    6    6  502    0  0.14793272676E+03  0.12793006800E+03 -0.10325566973E+03  0.22116041073E+03  0.00000000000E+00 0. -1.
         -3    1    6    6    0  502  0.82421456180E+02  0.17104817190E+03 -0.90590068334E+02  0.21037427131E+03  0.00000000000E+00 0.  1.
<mgrwt>
<rscale>  0 0.41689952E+03</rscale>
<asrwt>0</asrwt>
<pdfrwt beam="1">  1        1 0.64993753E-01 0.41689952E+03</pdfrwt>
<pdfrwt beam="2">  1       -2 0.91184958E-01 0.41689952E+03</pdfrwt>
<totfact> 0.52238350E+01</totfact>
</mgrwt>
</event>
<event>
12    3  0.1182097E-007  0.8633776E+03  0.7818608E-02  0.9472556E-01
         -4   -1    0    0    0  501 -0.00000000000E+00  0.00000000000E+00  0.15697065062E+04  0.15697065062E+04  0.00000000000E+00 0.  1.
          3   -1    0    0  501    0  0.00000000000E+00 -0.00000000000E+00 -0.48111428091E+03  0.48111428091E+03  0.00000000000E+00 0. -1.
        -24    2    1    2    0    0 -0.53806777714E+03 -0.53836922457E+03  0.54793874518E+03  0.94134048142E+03  0.80787862523E+02 0.  0.
    5000000    2    1    2    0    0  0.53806777714E+03  0.53836922457E+03  0.54065348014E+03  0.11094803057E+04  0.59940137507E+03 0.  0.
        -24    2    4    4    0    0 -0.38855346127E+02 -0.80664598052E+02  0.82158433896E+02  0.14383481136E+03  0.76954073295E+02 0.  0.
         24    2    4    4    0    0  0.57692312326E+03  0.61903382262E+03  0.45849504625E+03  0.96564549436E+03  0.78805771640E+02 0.  0.
         13    1    3    3    0    0 -0.37851535513E+03 -0.40308908323E+03  0.35749361848E+03  0.65844997558E+03  0.00000000000E+00 0. -1.
        -14    1    3    3    0    0 -0.15955242200E+03 -0.13528014134E+03  0.19044512670E+03  0.28289050584E+03  0.00000000000E+00 0.  1.
         15    1    5    5    0    0 -0.34789169019E+02  0.23285377632E+01  0.22296539137E+02  0.41424651546E+02  0.17770000000E+01 0. -1.
        -16    1    5    5    0    0 -0.40661771073E+01 -0.82993135815E+02  0.59861894759E+02  0.10241015981E+03  0.00000000000E+00 0.  1.
          4    1    6    6  502    0  0.51313802308E+02  0.66791446552E+02  0.21629684409E+02  0.86960030402E+02  0.00000000000E+00 0. -1.
         -3    1    6    6    0  502  0.52560932095E+03  0.55224237607E+03  0.43686536184E+03  0.87868546396E+03  0.00000000000E+00 0.  1.
<mgrwt>
<rscale>  0 0.86337760E+03</rscale>
<asrwt>0</asrwt>
<pdfrwt beam="1">  1        3 0.74017583E-01 0.86337760E+03</pdfrwt>
<pdfrwt beam="2">  1       -4 0.24149331E+00 0.86337760E+03</pdfrwt>
<totfact> 0.27911765E-01</totfact>
</mgrwt>
</event>
<event>
12    3  0.1182097E-007  0.1565375E+04  0.7818608E-02  0.8842107E-01
         -2   -1    0    0    0  501 -0.00000000000E+00  0.00000000000E+00  0.20943141958E+04  0.20943141958E+04  0.00000000000E+00 0.  1.
          1   -1    0    0  501    0  0.00000000000E+00 -0.00000000000E+00 -0.16572057854E+04  0.16572057854E+04  0.00000000000E+00 0. -1.
        -24    2    1    2    0    0  0.10827340472E+03  0.15564360057E+04 -0.71801056038E+03  0.17198248087E+04  0.89677410095E+02 0.  0.
    5000000    2    1    2    0    0 -0.10827340472E+03 -0.15564360057E+04  0.11551189707E+04  0.20316951725E+04  0.59939074713E+03 0.  0.
        -24    2    4    4    0    0  0.41437538075E+02 -0.28224424983E+03  0.51846994025E+03  0.59705970453E+03  0.79311573645E+02 0.  0.
         24    2    4    4    0    0 -0.14971094280E+03 -0.12741917558E+04  0.63664903047E+03  0.14346354680E+04  0.82939381805E+02 0.  0.
         11    1    3    3    0    0  0.65990970219E+01  0.66836668595E+03 -0.32880624299E+03  0.74489671794E+03  0.00000000000E+00 0. -1.
        -12    1    3    3    0    0  0.10167430770E+03  0.88806931970E+03 -0.38920431739E+03  0.97492809074E+03  0.00000000000E+00 0.  1.
         15    1    5    5    0    0  0.39179922096E+02 -0.24649897864E+03  0.49461793692E+03  0.55402786394E+03  0.17770000000E+01 0. -1.
        -16    1    5    5    0    0  0.22576159798E+01 -0.35745271190E+02  0.23852003323E+02  0.43031840593E+02  0.00000000000E+00 0.  1.
          4    1    6    6  502    0 -0.73794641277E+02 -0.69862456989E+03  0.39360293483E+03  0.80526095710E+03  0.00000000000E+00 0. -1.
         -3    1    6    6    0  502 -0.75916301523E+02 -0.57556718594E+03  0.24304609564E+03  0.62937451090E+03  0.00000000000E+00 0.  1.
<mgrwt>
<rscale>  0 0.15653747E+04</rscale>
<asrwt>0</asrwt>
<pdfrwt beam="1">  1        1 0.25495474E+00 0.15653747E+04</pdfrwt>
<pdfrwt beam="2">  1       -2 0.32220218E+00 0.15653747E+04</pdfrwt>
<totfact> 0.96990043E-02</totfact>
</mgrwt>
</event>
<event>
12    3  0.1182097E-007  0.6867717E+03  0.7818608E-02  0.9740126E-01
         -4   -1    0    0    0  501 -0.00000000000E+00  0.00000000000E+00  0.65407169441E+03  0.65407169441E+03  0.00000000000E+00 0.  1.
          3   -1    0    0  501    0  0.00000000000E+00 -0.00000000000E+00 -0.80340955056E+03  0.80340955056E+03  0.00000000000E+00 0. -1.
        -24    2    1    2    0    0 -0.73383103801E+01  0.59237292303E+03 -0.14117513819E+03  0.61438368044E+03  0.81100902641E+02 0.  0.
    5000000    2    1    2    0    0  0.73383103801E+01 -0.59237292303E+03 -0.81627179580E+01  0.84309756453E+03  0.59982275933E+03 0.  0.
        -24    2    4    4    0    0 -0.24178429129E+03 -0.20604122072E+03 -0.14353231547E+03  0.35725072855E+03  0.78191619220E+02 0.  0.
         24    2    4    4    0    0  0.24912260167E+03 -0.38633170231E+03  0.13536959752E+03  0.48584683598E+03  0.80049767149E+02 0.  0.
         13    1    3    3    0    0 -0.23145483211E+01  0.16020580780E+03 -0.16732964724E+01  0.16023126383E+03  0.00000000000E+00 0. -1.
        -14    1    3    3    0    0 -0.50237620591E+01  0.43216711523E+03 -0.13950184172E+03  0.45415241661E+03  0.00000000000E+00 0.  1.
         15    1    5    5    0    0 -0.15727869602E+02 -0.19652132427E+02 -0.38444185765E+02  0.45985707989E+02  0.17770000000E+01 0. -1.
        -16    1    5    5    0    0 -0.22605642169E+03 -0.18638908829E+03 -0.10508812971E+03  0.31126502056E+03  0.00000000000E+00 0.  1.
          2    1    6    6  502    0  0.72417148615E+02 -0.70893572946E+02  0.48784938237E+01  0.10145906466E+03  0.00000000000E+00 0. -1.
         -1    1    6    6    0  502  0.17670545305E+03 -0.31543812937E+03  0.13049110369E+03  0.38438777132E+03  0.00000000000E+00 0.  1.
<mgrwt>
<rscale>  0 0.68677167E+03</rscale>
<asrwt>0</asrwt>
<pdfrwt beam="1">  1        3 0.12360147E+00 0.68677167E+03</pdfrwt>
<pdfrwt beam="2">  1       -4 0.10062641E+00 0.68677167E+03</pdfrwt>
<totfact> 0.96693725E-01</totfact>
</mgrwt>
</event>
<event>
12    3  0.1182097E-007  0.7452494E+03  0.7818608E-02  0.9642833E-01
          1   -1    0    0  501    0  0.00000000000E+00  0.00000000000E+00  0.11197223896E+04  0.11197223896E+04  0.00000000000E+00 0. -1.
         -2   -1    0    0    0  501 -0.00000000000E+00 -0.00000000000E+00 -0.94993660280E+03  0.94993660280E+03  0.00000000000E+00 0.  1.
        -24    2    1    2    0    0 -0.71073303232E+03 -0.15452525034E+03 -0.52092251625E+03  0.90111880475E+03  0.10786721519E+03 0.  0.
    5000000    2    1    2    0    0  0.71073303232E+03  0.15452525034E+03  0.69070830305E+03  0.11685401876E+04  0.59949037858E+03 0.  0.
        -24    2    4    4    0    0  0.48081449916E+03  0.29802666611E+02  0.74409200993E+03  0.89011348746E+03  0.80983453715E+02 0.  0.
         24    2    4    4    0    0  0.22991853316E+03  0.12472258373E+03 -0.53383706882E+02  0.27842670018E+03  0.79078141308E+02 0.  0.
         11    1    3    3    0    0 -0.45396224573E+03 -0.47591059122E+02 -0.30456632359E+03  0.54873242561E+03  0.00000000000E+00 0. -1.
        -12    1    3    3    0    0 -0.25677078659E+03 -0.10693419122E+03 -0.21635619266E+03  0.35238637914E+03  0.00000000000E+00 0.  1.
         15    1    5    5    0    0  0.23172847332E+03  0.34496247317E+02  0.42483398459E+03  0.48515476769E+03  0.17770000000E+01 0. -1.
        -16    1    5    5    0    0  0.24908602585E+03 -0.46935807052E+01  0.31925802534E+03  0.40495871977E+03  0.00000000000E+00 0.  1.
          2    1    6    6  502    0  0.39562661613E+02  0.59125170272E+02 -0.47751024708E+01  0.71300712179E+02  0.00000000000E+00 0. -1.
         -1    1    6    6    0  502  0.19035587154E+03  0.65597413455E+02 -0.48608604411E+02  0.20712598800E+03  0.00000000000E+00 0.  1.
<mgrwt>
<rscale>  0 0.74524943E+03</rscale>
<asrwt>0</asrwt>
<pdfrwt beam="1">  1        1 0.17226498E+00 0.74524943E+03</pdfrwt>
<pdfrwt beam="2">  1       -2 0.14614409E+00 0.74524943E+03</pdfrwt>
<totfact> 0.35468178E+00</totfact>
</mgrwt>
</event>
<event>
12    3  0.1182097E-007  0.1329176E+04  0.7818608E-02  0.9006743E-01
          1   -1    0    0  501    0  0.00000000000E+00  0.00000000000E+00  0.32079788145E+04  0.32079788145E+04  0.00000000000E+00 0. -1.
         -2   -1    0    0    0  501 -0.00000000000E+00 -0.00000000000E+00 -0.78644671671E+03  0.78644671671E+03  0.00000000000E+00 0.  1.
        -24    2    1    2    0    0 -0.42737929437E+03 -0.12284839501E+04  0.15373201221E+03  0.13121026574E+04  0.78447275128E+02 0.  0.
    5000000    2    1    2    0    0  0.42737929437E+03  0.12284839501E+04  0.22678000856E+04  0.26823228738E+04  0.60009407106E+03 0.  0.
        -24    2    4    4    0    0  0.10243515197E+03  0.82947927653E+03  0.17836383385E+04  0.19713328959E+04  0.79112789412E+02 0.  0.
         24    2    4    4    0    0  0.32494414240E+03  0.39900467362E+03  0.48416174711E+03  0.71098997790E+03  0.79377112924E+02 0.  0.
         11    1    3    3    0    0 -0.17737210679E+03 -0.60455331920E+03  0.98393289679E+02  0.63767297220E+03  0.00000000000E+00 0. -1.
        -12    1    3    3    0    0 -0.25000718759E+03 -0.62393063094E+03  0.55338722527E+02  0.67442968520E+03  0.00000000000E+00 0.  1.
         15    1    5    5    0    0  0.37796070334E+02  0.11173825473E+03  0.28404064564E+03  0.30756499574E+03  0.17770000000E+01 0. -1.
        -16    1    5    5    0    0  0.64639081636E+02  0.71774102180E+03  0.14995976929E+04  0.16637679002E+04  0.00000000000E+00 0.  1.
          4    1    6    6  502    0  0.96813646506E+02  0.81329390517E+02  0.15324965349E+03  0.19867764899E+03  0.00000000000E+00 0. -1.
         -3    1    6    6    0  502  0.22813049590E+03  0.31767528310E+03  0.33091209362E+03  0.51231232891E+03  0.00000000000E+00 0.  1.
<mgrwt>
<rscale>  0 0.13291760E+04</rscale>
<asrwt>0</asrwt>
<pdfrwt beam="1">  1        1 0.49353519E+00 0.13291760E+04</pdfrwt>
<pdfrwt beam="2">  1       -2 0.12099180E+00 0.13291760E+04</pdfrwt>
<totfact> 0.18664662E-01</totfact>
</mgrwt>
</event>
<event>
12    3  0.1182097E-007  0.1481767E+04  0.7818608E-02  0.8896669E-01
          1   -1    0    0  501    0  0.00000000000E+00  0.00000000000E+00  0.94142149245E+03  0.94142149245E+03  0.00000000000E+00 0. -1.
         -2   -1    0    0    0  501 -0.00000000000E+00 -0.00000000000E+00 -0.25240179654E+04  0.25240179654E+04  0.00000000000E+00 0.  1.
        -24    2    1    2    0    0 -0.12043795129E+04 -0.85958399427E+03 -0.85405589126E+03  0.17103340277E+04  0.80102226255E+02 0.  0.
    5000000    2    1    2    0    0  0.12043795129E+04  0.85958399427E+03 -0.72854058174E+03  0.17551054302E+04  0.60017417253E+03 0.  0.
        -24    2    4    4    0    0  0.50142032386E+03  0.41731311955E+03 -0.15229844100E+02  0.65746086819E+03  0.80313536421E+02 0.  0.
         24    2    4    4    0    0  0.70295918907E+03  0.44227087473E+03 -0.71331073764E+03  0.10976445620E+04  0.79096320124E+02 0.  0.
         13    1    3    3    0    0 -0.72197160161E+03 -0.53499806356E+03 -0.47713011944E+03  0.10174080167E+04  0.00000000000E+00 0. -1.
        -14    1    3    3    0    0 -0.48240791132E+03 -0.32458593071E+03 -0.37692577182E+03  0.69292601104E+03  0.00000000000E+00 0.  1.
         15    1    5    5    0    0  0.15594609774E+03  0.12268532933E+03  0.31894049745E+02  0.20097577856E+03  0.17770000000E+01 0. -1.
        -16    1    5    5    0    0  0.34547422612E+03  0.29462779022E+03 -0.47123893845E+02  0.45648508963E+03  0.00000000000E+00 0.  1.
          4    1    6    6  502    0  0.25833444619E+02  0.23127778154E+02 -0.52029951989E+02  0.62525010094E+02  0.00000000000E+00 0. -1.
         -3    1    6    6    0  502  0.67712574445E+03  0.41914309657E+03 -0.66128078565E+03  0.10351195519E+04  0.00000000000E+00 0.  1.
<mgrwt>
<rscale>  0 0.14817675E+04</rscale>
<asrwt>0</asrwt>
<pdfrwt beam="1">  1        1 0.14483408E+00 0.14817675E+04</pdfrwt>
<pdfrwt beam="2">  1       -2 0.38831045E+00 0.14817675E+04</pdfrwt>
<totfact> 0.12454925E-01</totfact>
</mgrwt>
</event>
<event>
12    3  0.1182097E-007  0.4013448E+03  0.7818608E-02  0.1043315E+00
          1   -1    0    0  501    0  0.00000000000E+00  0.00000000000E+00  0.13029493601E+04  0.13029493601E+04  0.00000000000E+00 0. -1.
         -2   -1    0    0    0  501 -0.00000000000E+00 -0.00000000000E+00 -0.33738304694E+03  0.33738304694E+03  0.00000000000E+00 0.  1.
        -24    2    1    2    0    0 -0.52524581943E+02 -0.36820204290E+03 -0.70852036762E+02  0.38638175603E+03  0.77066686538E+02 0.  0.
    5000000    2    1    2    0    0  0.52524581943E+02  0.36820204290E+03  0.10364183499E+04  0.12539506510E+04  0.59991471310E+03 0.  0.
        -24    2    4    4    0    0 -0.20256511875E+02  0.49972301892E+02  0.87661550672E+03  0.88177261415E+03  0.78489739466E+02 0.  0.
         24    2    4    4    0    0  0.72781093818E+02  0.31822974101E+03  0.15980284315E+03  0.37217803682E+03  0.80076755245E+02 0.  0.
         13    1    3    3    0    0 -0.70691611235E+02 -0.25650072540E+03 -0.39750261321E+02  0.26901674540E+03  0.00000000000E+00 0. -1.
        -14    1    3    3    0    0  0.18167029291E+02 -0.11170131750E+03 -0.31101775441E+02  0.11736501063E+03  0.00000000000E+00 0.  1.
         15    1    5    5    0    0  0.16384377747E+02 -0.13502332283E+02  0.24305555655E+03  0.24398754499E+03  0.17770000000E+01 0. -1.
        -16    1    5    5    0    0 -0.36640889621E+02  0.63474634176E+02  0.63355995017E+03  0.63778506916E+03  0.00000000000E+00 0.  1.
          2    1    6    6  502    0  0.37604432596E+01  0.97915374971E+02  0.84338597230E+02  0.12928480410E+03  0.00000000000E+00 0. -1.
         -1    1    6    6    0  502  0.69020650559E+02  0.22031436604E+03  0.75464245920E+02  0.24289323272E+03  0.00000000000E+00 0.  1.
<mgrwt>
<rscale>  0 0.40134482E+03</rscale>
<asrwt>0</asrwt>
<pdfrwt beam="1">  1        1 0.20045375E+00 0.40134482E+03</pdfrwt>
<pdfrwt beam="2">  1       -2 0.51905085E-01 0.40134482E+03</pdfrwt>
<totfact> 0.29907022E+01</totfact>
</mgrwt>
</event>
<event>
12    3  0.1182097E-007  0.6957648E+03  0.7818608E-02  0.9724503E-01
         -2   -1    0    0    0  501 -0.00000000000E+00  0.00000000000E+00  0.21678977705E+04  0.21678977705E+04  0.00000000000E+00 0.  1.
          1   -1    0    0  501    0  0.00000000000E+00 -0.00000000000E+00 -0.26213111982E+03  0.26213111982E+03  0.00000000000E+00 0. -1.
        -24    2    1    2    0    0 -0.48464620334E+03  0.31350125619E+03  0.39126598722E+03  0.70179268946E+03  0.79113375464E+02 0.  0.
    5000000    2    1    2    0    0  0.48464620334E+03 -0.31350125619E+03  0.15145006634E+04  0.17282362008E+04  0.59993593515E+03 0.  0.
        -24    2    4    4    0    0  0.59016891371E+03 -0.35479573186E+03  0.12870614886E+04  0.14618245505E+04  0.78894758605E+02 0.  0.
         24    2    4    4    0    0 -0.10552271037E+03  0.41294475669E+02  0.22743917484E+03  0.26641165035E+03  0.80039446915E+02 0.  0.
         13    1    3    3    0    0 -0.33699423448E+03  0.25449176185E+03  0.30475412402E+03  0.52077466051E+03  0.00000000000E+00 0. -1.
        -14    1    3    3    0    0 -0.14765196886E+03  0.59009494347E+02  0.86511863198E+02  0.18101802895E+03  0.00000000000E+00 0.  1.
         15    1    5    5    0    0  0.46306180979E+03 -0.28063186226E+03  0.93897926273E+03  0.10839122176E+04  0.17770000000E+01 0. -1.
        -16    1    5    5    0    0  0.12710710392E+03 -0.74163869608E+02  0.34808222586E+03  0.37791233294E+03  0.00000000000E+00 0.  1.
          2    1    6    6  502    0 -0.14753160004E+02  0.25514789887E+02  0.12590393389E+03  0.12930762082E+03  0.00000000000E+00 0. -1.
         -1    1    6    6    0  502 -0.90769550368E+02  0.15779685782E+02  0.10153524095E+03  0.13710402953E+03  0.00000000000E+00 0.  1.
<mgrwt>
<rscale>  0 0.69576477E+03</rscale>
<asrwt>0</asrwt>
<pdfrwt beam="1">  1        1 0.40327866E-01 0.69576477E+03</pdfrwt>
<pdfrwt beam="2">  1       -2 0.33352272E+00 0.69576477E+03</pdfrwt>
<totfact> 0.19120246E+00</totfact>
</mgrwt>
</event>
<event>
12    3  0.1182097E-007  0.6061099E+03  0.7818608E-02  0.9892810E-01
         -2   -1    0    0    0  501 -0.00000000000E+00  0.00000000000E+00  0.60543982438E+03  0.60543982438E+03  0.00000000000E+00 0.  1.
          1   -1    0    0  501    0  0.00000000000E+00 -0.00000000000E+00 -0.96534174241E+03  0.96534174241E+03  0.00000000000E+00 0. -1.
        -24    2    1    2    0    0  0.45249586695E+03 -0.39372567803E+03 -0.39361052433E+03  0.72175653433E+03  0.78935611942E+02 0.  0.
    5000000    2    1    2    0    0 -0.45249586695E+03  0.39372567803E+03  0.33708606296E+02  0.84902503246E+03  0.59994567793E+03 0.  0.
        -24    2    4    4    0    0 -0.24856816810E+03  0.27034646885E+03  0.30128026867E+03  0.48176807549E+03  0.80357519034E+02 0.  0.
         24    2    4    4    0    0 -0.20392769884E+03  0.12337920918E+03 -0.26757166237E+03  0.36725695697E+03  0.80462055185E+02 0.  0.
         11    1    3    3    0    0  0.36524795931E+02 -0.37760759625E+02 -0.63629188847E+02  0.82514297904E+02  0.00000000000E+00 0. -1.
        -12    1    3    3    0    0  0.41597107101E+03 -0.35596491840E+03 -0.32998133549E+03  0.63924223642E+03  0.00000000000E+00 0.  1.
         15    1    5    5    0    0 -0.24228756871E+03  0.26968497852E+03  0.27581943051E+03  0.45553569516E+03  0.17770000000E+01 0. -1.
        -16    1    5    5    0    0 -0.62805993889E+01  0.66149032769E+00  0.25460838158E+02  0.26232380332E+02  0.00000000000E+00 0.  1.
          4    1    6    6  502    0 -0.20154709024E+03  0.10972448408E+03 -0.22072425621E+03  0.31840208742E+03  0.00000000000E+00 0. -1.
         -3    1    6    6    0  502 -0.23806085991E+01  0.13654725106E+02 -0.46847406161E+02  0.48854869553E+02  0.00000000000E+00 0.  1.
<mgrwt>
<rscale>  0 0.60610988E+03</rscale>
<asrwt>0</asrwt>
<pdfrwt beam="1">  1        1 0.14851411E+00 0.60610988E+03</pdfrwt>
<pdfrwt beam="2">  1       -2 0.93144589E-01 0.60610988E+03</pdfrwt>
<totfact> 0.14359735E+01</totfact>
</mgrwt>
</event>
<event>
12    3  0.1182097E-007  0.9286536E+03  0.7818608E-02  0.9390455E-01
          1   -1    0    0  501    0  0.00000000000E+00  0.00000000000E+00  0.10337590474E+04  0.10337590474E+04  0.00000000000E+00 0. -1.
         -2   -1    0    0    0  501 -0.00000000000E+00 -0.00000000000E+00 -0.10681355848E+04  0.10681355848E+04  0.00000000000E+00 0.  1.
        -24    2    1    2    0    0 -0.77873049878E+03  0.37714622337E+03  0.40797673688E+03  0.95989759949E+03  0.79359436374E+02 0.  0.
    5000000    2    1    2    0    0  0.77873049878E+03 -0.37714622337E+03 -0.44235327425E+03  0.11419970327E+04  0.59985026462E+03 0.  0.
        -24    2    4    4    0    0  0.59160130267E+03 -0.48451614525E+03 -0.17442783375E+03  0.78846085097E+03  0.80606749078E+02 0.  0.
         24    2    4    4    0    0  0.18712919611E+03  0.10736992188E+03 -0.26792544051E+03  0.35353618175E+03  0.81597512061E+02 0.  0.
         11    1    3    3    0    0 -0.21516406460E+03  0.71126897054E+02  0.86756567717E+02  0.24265471811E+03  0.00000000000E+00 0. -1.
        -12    1    3    3    0    0 -0.56356643418E+03  0.30601932631E+03  0.32122016917E+03  0.71724288138E+03  0.00000000000E+00 0.  1.
         15    1    5    5    0    0  0.24894383129E+03 -0.19085182627E+03 -0.32389421813E+02  0.31535643818E+03  0.17770000000E+01 0. -1.
        -16    1    5    5    0    0  0.34265747137E+03 -0.29366431898E+03 -0.14203841194E+03  0.47310441278E+03  0.00000000000E+00 0.  1.
          4    1    6    6  502    0  0.18640659637E+03  0.89909537783E+02 -0.21777476850E+03  0.30042801792E+03  0.00000000000E+00 0. -1.
         -3    1    6    6    0  502  0.72259974239E+00  0.17460384096E+02 -0.50150672003E+02  0.53108163831E+02  0.00000000000E+00 0.  1.
<mgrwt>
<rscale>  0 0.92865362E+03</rscale>
<asrwt>0</asrwt>
<pdfrwt beam="1">  1        1 0.15903985E+00 0.92865362E+03</pdfrwt>
<pdfrwt beam="2">  1       -2 0.16432855E+00 0.92865362E+03</pdfrwt>
<totfact> 0.29352862E+00</totfact>
</mgrwt>
</event>
<event>
12    3  0.1182097E-007  0.1002463E+04  0.7818608E-02  0.9305847E-01
          1   -1    0    0  501    0  0.00000000000E+00  0.00000000000E+00  0.16886921177E+04  0.16886921177E+04  0.00000000000E+00 0. -1.
         -2   -1    0    0    0  501 -0.00000000000E+00 -0.00000000000E+00 -0.71729986958E+03  0.71729986958E+03  0.00000000000E+00 0.  1.
        -24    2    1    2    0    0 -0.86111639316E+03  0.50973405098E+03  0.25113015726E+03  0.10347667557E+04  0.79533877084E+02 0.  0.
    5000000    2    1    2    0    0  0.86111639316E+03 -0.50973405098E+03  0.72026209082E+03  0.13712252315E+04  0.60010908234E+03 0.  0.
        -24    2    4    4    0    0  0.12797035822E+03 -0.76223906979E+02  0.44007950171E+03  0.47152295627E+03  0.80482506741E+02 0.  0.
         24    2    4    4    0    0  0.73314603494E+03 -0.43351014400E+03  0.28018258911E+03  0.89970227522E+03  0.74348821670E+02 0.  0.
         13    1    3    3    0    0 -0.60721360548E+03  0.40066198729E+03  0.18325248206E+03  0.75021321164E+03  0.00000000000E+00 0. -1.
        -14    1    3    3    0    0 -0.25390278768E+03  0.10907206369E+03  0.67877675199E+02  0.28455354410E+03  0.00000000000E+00 0.  1.
         15    1    5    5    0    0  0.28689257161E+02 -0.17893873333E+02  0.28871523607E+02  0.44497042416E+02  0.17770000000E+01 0. -1.
        -16    1    5    5    0    0  0.99281101055E+02 -0.58330033646E+02  0.41120797810E+03  0.42702591386E+03  0.00000000000E+00 0.  1.
          4    1    6    6  502    0  0.37119898667E+03 -0.20494538013E+03  0.17626271972E+03  0.45919477665E+03  0.00000000000E+00 0. -1.
         -3    1    6    6    0  502  0.36194704827E+03 -0.22856476388E+03  0.10391986939E+03  0.44050749856E+03  0.00000000000E+00 0.  1.
<mgrwt>
<rscale>  0 0.10024631E+04</rscale>
<asrwt>0</asrwt>
<pdfrwt beam="1">  1        1 0.25979879E+00 0.10024631E+04</pdfrwt>
<pdfrwt beam="2">  1       -2 0.11035383E+00 0.10024631E+04</pdfrwt>
<totfact> 0.27793544E+00</totfact>
</mgrwt>
</event>
<event>
12    3  0.1182097E-007  0.9608327E+03  0.7818608E-02  0.9352578E-01
         -2   -1    0    0    0  501 -0.00000000000E+00  0.00000000000E+00  0.48692035638E+03  0.48692035638E+03  0.00000000000E+00 0.  1.
          1   -1    0    0  501    0  0.00000000000E+00 -0.00000000000E+00 -0.27988002008E+04  0.27988002008E+04  0.00000000000E+00 0. -1.
        -24    2    1    2    0    0  0.84637088498E+03  0.41807710170E+03 -0.18439789325E+04  0.20732376799E+04  0.83210792760E+02 0.  0.
    5000000    2    1    2    0    0 -0.84637088498E+03 -0.41807710170E+03 -0.46790091195E+03  0.12124828773E+04  0.60004277049E+03 0.  0.
        -24    2    4    4    0    0 -0.36328346276E+03 -0.29514250133E+03 -0.51985823744E+03  0.70460131453E+03  0.84418333280E+02 0.  0.
         24    2    4    4    0    0 -0.48308742222E+03 -0.12293460037E+03  0.51957325483E+02  0.50788156277E+03  0.82205502563E+02 0.  0.
         13    1    3    3    0    0  0.70271513632E+03  0.31580118452E+03 -0.14642472532E+04  0.16545570312E+04  0.00000000000E+00 0. -1.
        -14    1    3    3    0    0  0.14365574867E+03  0.10227591717E+03 -0.37973167929E+03  0.41868064872E+03  0.00000000000E+00 0.  1.
         15    1    5    5    0    0 -0.97877384155E+02 -0.11273600790E+03 -0.12251454354E+03  0.19313819124E+03  0.17770000000E+01 0. -1.
        -16    1    5    5    0    0 -0.26540607861E+03 -0.18240649344E+03 -0.39734369390E+03  0.51146312329E+03  0.00000000000E+00 0.  1.
          2    1    6    6  502    0 -0.39357100056E+03 -0.12808982020E+03  0.26812390010E+02  0.41475780737E+03  0.00000000000E+00 0. -1.
         -1    1    6    6    0  502 -0.89516421661E+02  0.51552198298E+01  0.25144935473E+02  0.93123755393E+02  0.00000000000E+00 0.  1.
<mgrwt>
<rscale>  0 0.96083266E+03</rscale>
<asrwt>0</asrwt>
<pdfrwt beam="1">  1        1 0.43058466E+00 0.96083266E+03</pdfrwt>
<pdfrwt beam="2">  1       -2 0.74910822E-01 0.96083266E+03</pdfrwt>
<totfact> 0.12050683E+00</totfact>
</mgrwt>
</event>
<event>
12    3  0.1182097E-007  0.8883230E+03  0.7818608E-02  0.9440297E-01
          1   -1    0    0  501    0  0.00000000000E+00  0.00000000000E+00  0.25869045352E+04  0.25869045352E+04  0.00000000000E+00 0. -1.
         -2   -1    0    0    0  501 -0.00000000000E+00 -0.00000000000E+00 -0.43462465474E+03  0.43462465474E+03  0.00000000000E+00 0.  1.
        -24    2    1    2    0    0  0.58226841547E+03  0.58104475092E+03  0.17339795526E+04  0.19207765321E+04  0.77768161358E+02 0.  0.
    5000000    2    1    2    0    0 -0.58226841547E+03 -0.58104475092E+03  0.41830032784E+03  0.11007526579E+04  0.60002644889E+03 0.  0.
        -24    2    4    4    0    0 -0.53631740660E+03 -0.64553430504E+03  0.21781105503E+03  0.87117958224E+03  0.84624518912E+02 0.  0.
         24    2    4    4    0    0 -0.45951008870E+02  0.64489554121E+02  0.20048927280E+03  0.22957307566E+03  0.78977533210E+02 0.  0.
         13    1    3    3    0    0  0.22829848518E+03  0.26155567570E+03  0.66140548534E+03  0.74698646967E+03  0.00000000000E+00 0. -1.
        -14    1    3    3    0    0  0.35396993029E+03  0.31948907522E+03  0.10725740673E+04  0.11737900624E+04  0.00000000000E+00 0.  1.
         15    1    5    5    0    0 -0.30289617965E+03 -0.42663626931E+03  0.14604220973E+03  0.54322747232E+03  0.17770000000E+01 0. -1.
        -16    1    5    5    0    0 -0.23342122696E+03 -0.21889803574E+03  0.71768845307E+02  0.32795210992E+03  0.00000000000E+00 0.  1.
          2    1    6    6  502    0  0.82026183297E+01  0.53531248184E+02  0.75481575999E+02  0.92899654439E+02  0.00000000000E+00 0. -1.
         -1    1    6    6    0  502 -0.54153627200E+02  0.10958305937E+02  0.12500769681E+03  0.13667342122E+03  0.00000000000E+00 0.  1.
<mgrwt>
<rscale>  0 0.88832305E+03</rscale>
<asrwt>0</asrwt>
<pdfrwt beam="1">  1        1 0.39798530E+00 0.88832305E+03</pdfrwt>
<pdfrwt beam="2">  1       -2 0.66865333E-01 0.88832305E+03</pdfrwt>
<totfact> 0.21974373E+00</totfact>
</mgrwt>
</event>
<event>
12    3  0.1182097E-007  0.1254977E+04  0.7818608E-02  0.9066051E-01
          1   -1    0    0  501    0  0.00000000000E+00  0.00000000000E+00  0.16628808899E+04  0.16628808899E+04  0.00000000000E+00 0. -1.
         -4   -1    0    0    0  501 -0.00000000000E+00 -0.00000000000E+00 -0.13738018209E+04  0.13738018209E+04  0.00000000000E+00 0.  1.
        -24    2    1    2    0    0  0.32376615191E+03  0.11782859775E+04 -0.64657916719E+03  0.13848358356E+04  0.80766986741E+02 0.  0.
    5000000    2    1    2    0    0 -0.32376615191E+03 -0.11782859775E+04  0.93565823619E+03  0.16518468753E+04  0.59996616452E+03 0.  0.
        -24    2    4    4    0    0 -0.40162685389E+03 -0.75136372156E+03  0.36327558424E+03  0.92968335215E+03  0.80563101532E+02 0.  0.
         24    2    4    4    0    0  0.77860701973E+02 -0.42692225594E+03  0.57238265195E+03  0.72216352314E+03  0.74654888480E+02 0.  0.
         13    1    3    3    0    0  0.10693265031E+03  0.43021460494E+03 -0.19272250570E+03  0.48338510756E+03  0.00000000000E+00 0. -1.
        -14    1    3    3    0    0  0.21683350160E+03  0.74807137256E+03 -0.45385666148E+03  0.90145072801E+03  0.00000000000E+00 0.  1.
         15    1    5    5    0    0 -0.25163190011E+03 -0.51104022052E+03  0.20653063983E+03  0.60591978269E+03  0.17770000000E+01 0. -1.
        -16    1    5    5    0    0 -0.14999495378E+03 -0.24032350103E+03  0.15674494442E+03  0.32376356946E+03  0.00000000000E+00 0.  1.
          4    1    6    6  502    0  0.52839211183E+02 -0.21195314831E+03  0.34426651957E+03  0.40771994778E+03  0.00000000000E+00 0. -1.
         -1    1    6    6    0  502  0.25021490789E+02 -0.21496910763E+03  0.22811613238E+03  0.31444357536E+03  0.00000000000E+00 0.  1.
<mgrwt>
<rscale>  0 0.12549772E+04</rscale>
<asrwt>0</asrwt>
<pdfrwt beam="1">  1        1 0.25582783E+00 0.12549772E+04</pdfrwt>
<pdfrwt beam="2">  1       -4 0.21135413E+00 0.12549772E+04</pdfrwt>
<totfact> 0.25858804E-01</totfact>
</mgrwt>
</event>
<event>
12    3  0.1182097E-007  0.1147248E+04  0.7818608E-02  0.9160326E-01
         -2   -1    0    0    0  501 -0.00000000000E+00  0.00000000000E+00  0.14068141427E+04  0.14068141427E+04  0.00000000000E+00 0.  1.
          1   -1    0    0  501    0  0.00000000000E+00 -0.00000000000E+00 -0.15635033164E+04  0.15635033164E+04  0.00000000000E+00 0. -1.
        -24    2    1    2    0    0 -0.27307819727E+03 -0.10777979240E+04  0.81132237893E+03  0.13786697260E+04  0.79158979265E+02 0.  0.
    5000000    2    1    2    0    0  0.27307819727E+03  0.10777979240E+04 -0.96801155267E+03  0.15916477331E+04  0.60006339105E+03 0.  0.
        -24    2    4    4    0    0  0.32273697992E+03  0.10617264355E+04 -0.99491599531E+03  0.14925323820E+04  0.79830392447E+02 0.  0.
         24    2    4    4    0    0 -0.49658782650E+02  0.16071488489E+02  0.26904442640E+02  0.99115351056E+02  0.79848082911E+02 0.  0.
         13    1    3    3    0    0 -0.17989449319E+03 -0.62038198440E+03  0.51065178790E+03  0.82340821208E+03  0.00000000000E+00 0. -1.
        -14    1    3    3    0    0 -0.93183704078E+02 -0.45741593963E+03  0.30067059103E+03  0.55526151392E+03  0.00000000000E+00 0.  1.
         15    1    5    5    0    0  0.28563289494E+03  0.91687652006E+03 -0.82356172974E+03  0.12651109770E+04  0.17770000000E+01 0. -1.
        -16    1    5    5    0    0  0.37104084977E+02  0.14484991548E+03 -0.17135426557E+03  0.22742140502E+03  0.00000000000E+00 0.  1.
          2    1    6    6  502    0 -0.79657590852E+01  0.27516057129E+02  0.44099201477E+02  0.52586369799E+02  0.00000000000E+00 0. -1.
         -1    1    6    6    0  502 -0.41693023565E+02 -0.11444568640E+02 -0.17194758837E+02  0.46528981257E+02  0.00000000000E+00 0.  1.
<mgrwt>
<rscale>  0 0.11472481E+04</rscale>
<asrwt>0</asrwt>
<pdfrwt beam="1">  1        1 0.24053897E+00 0.11472481E+04</pdfrwt>
<pdfrwt beam="2">  1       -2 0.21643295E+00 0.11472481E+04</pdfrwt>
<totfact> 0.52958448E-01</totfact>
</mgrwt>
</event>
<event>
12    3  0.1182097E-007  0.1171431E+04  0.7818608E-02  0.9138237E-01
          1   -1    0    0  501    0  0.00000000000E+00  0.00000000000E+00  0.18430549886E+04  0.18430549886E+04  0.00000000000E+00 0. -1.
         -2   -1    0    0    0  501 -0.00000000000E+00 -0.00000000000E+00 -0.91595516592E+03  0.91595516592E+03  0.00000000000E+00 0.  1.
        -24    2    1    2    0    0 -0.11255369279E+04  0.19280260524E+03  0.92104835184E+03  0.14690029192E+04  0.75055242886E+02 0.  0.
    5000000    2    1    2    0    0  0.11255369279E+04 -0.19280260524E+03  0.60514708511E+01  0.12900072353E+04  0.60006318526E+03 0.  0.
        -24    2    4    4    0    0  0.95290201865E+02 -0.12998694812E+03 -0.16079474887E+03  0.24166707318E+03  0.81062899883E+02 0.  0.
         24    2    4    4    0    0  0.10302467260E+04 -0.62815657120E+02  0.16684621973E+03  0.10483401622E+04  0.76323727041E+02 0.  0.
         11    1    3    3    0    0 -0.26600440564E+03  0.14219044097E+02  0.20540011572E+03  0.33637736632E+03  0.00000000000E+00 0. -1.
        -12    1    3    3    0    0 -0.85953252225E+03  0.17858356115E+03  0.71564823612E+03  0.11326255529E+04  0.00000000000E+00 0.  1.
         15    1    5    5    0    0  0.48986947207E+02 -0.91682067251E+02 -0.49415195530E+02  0.11511012870E+03  0.17770000000E+01 0. -1.
        -16    1    5    5    0    0  0.46303254658E+02 -0.38304880873E+02 -0.11137955334E+03  0.12655694447E+03  0.00000000000E+00 0.  1.
          4    1    6    6  502    0  0.77977917961E+03 -0.77585137511E+02  0.13953569166E+03  0.79595554635E+03  0.00000000000E+00 0. -1.
         -3    1    6    6    0  502  0.25046754642E+03  0.14769480391E+02  0.27310528064E+02  0.25238461582E+03  0.00000000000E+00 0.  1.
<mgrwt>
<rscale>  0 0.11714311E+04</rscale>
<asrwt>0</asrwt>
<pdfrwt beam="1">  1        1 0.28354692E+00 0.11714311E+04</pdfrwt>
<pdfrwt beam="2">  1       -2 0.14091618E+00 0.11714311E+04</pdfrwt>
<totfact> 0.11569090E+00</totfact>
</mgrwt>
</event>
<event>
12    3  0.1182097E-007  0.1016918E+04  0.7818608E-02  0.9290182E-01
          1   -1    0    0  501    0  0.00000000000E+00  0.00000000000E+00  0.14660987755E+04  0.14660987755E+04  0.00000000000E+00 0. -1.
         -2   -1    0    0    0  501 -0.00000000000E+00 -0.00000000000E+00 -0.96534650137E+03  0.96534650137E+03  0.00000000000E+00 0.  1.
        -24    2    1    2    0    0 -0.93015176848E+03 -0.32981248179E+02  0.85754345064E+03  0.12679977555E+04  0.78533197332E+02 0.  0.
    5000000    2    1    2    0    0  0.93015176848E+03  0.32981248179E+02 -0.35679117654E+03  0.11634475213E+04  0.60003342917E+03 0.  0.
        -24    2    4    4    0    0  0.87796033523E+03  0.20806027612E+03 -0.31561212699E+03  0.95918497656E+03  0.79507080390E+02 0.  0.
         24    2    4    4    0    0  0.52191433258E+02 -0.17507902794E+03 -0.41179049553E+02  0.20426254478E+03  0.81552813254E+02 0.  0.
         11    1    3    3    0    0 -0.61286659121E+03  0.27241395056E+01  0.60146867238E+03  0.85870684370E+03  0.00000000000E+00 0. -1.
        -12    1    3    3    0    0 -0.31728517727E+03 -0.35705387685E+02  0.25607477826E+03  0.40929091180E+03  0.00000000000E+00 0.  1.
         15    1    5    5    0    0  0.13929237645E+03  0.43623830161E+02 -0.80788078983E+02  0.16683907255E+03  0.17770000000E+01 0. -1.
        -16    1    5    5    0    0  0.73866795877E+03  0.16443644596E+03 -0.23482404800E+03  0.79234590401E+03  0.00000000000E+00 0.  1.
          4    1    6    6  502    0 -0.12093075608E+02 -0.97283012011E+02 -0.31072642481E+02  0.10283839757E+03  0.00000000000E+00 0. -1.
         -3    1    6    6    0  502  0.64284508866E+02 -0.77796015927E+02 -0.10106407072E+02  0.10142414721E+03  0.00000000000E+00 0.  1.
<mgrwt>
<rscale>  0 0.10169178E+04</rscale>
<asrwt>0</asrwt>
<pdfrwt beam="1">  1        1 0.22555366E+00 0.10169178E+04</pdfrwt>
<pdfrwt beam="2">  1       -2 0.14851485E+00 0.10169178E+04</pdfrwt>
<totfact> 0.18561249E+00</totfact>
</mgrwt>
</event>
<event>
12    3  0.1182097E-007  0.1018843E+04  0.7818608E-02  0.9288116E-01
          1   -1    0    0  501    0  0.00000000000E+00  0.00000000000E+00  0.18408059878E+04  0.18408059878E+04  0.00000000000E+00 0. -1.
         -2   -1    0    0    0  501 -0.00000000000E+00 -0.00000000000E+00 -0.64125242143E+03  0.64125242143E+03  0.00000000000E+00 0.  1.
        -24    2    1    2    0    0 -0.16554551995E+02 -0.95765532786E+03  0.21887896079E+03  0.98581578635E+03  0.80913441199E+02 0.  0.
    5000000    2    1    2    0    0  0.16554551995E+02  0.95765532786E+03  0.98067460554E+03  0.14962426228E+04  0.59970119584E+03 0.  0.
        -24    2    4    4    0    0 -0.22052607378E+03  0.53922248019E+03  0.30513561051E+03  0.66239176403E+03  0.79135806625E+02 0.  0.
         24    2    4    4    0    0  0.23708062577E+03  0.41843284768E+03  0.67553899502E+03  0.83385085882E+03  0.87527423272E+02 0.  0.
         13    1    3    3    0    0 -0.39023920763E+02 -0.24303980888E+03  0.61907456637E+02  0.25381833716E+03  0.00000000000E+00 0. -1.
        -14    1    3    3    0    0  0.22469368768E+02 -0.71461551898E+03  0.15697150416E+03  0.73199744919E+03  0.00000000000E+00 0.  1.
         15    1    5    5    0    0 -0.19920865718E+03  0.39970942791E+03  0.22464950036E+03  0.49992226555E+03  0.17770000000E+01 0. -1.
        -16    1    5    5    0    0 -0.21317416601E+02  0.13951305228E+03  0.80486110154E+02  0.16246949848E+03  0.00000000000E+00 0.  1.
          2    1    6    6  502    0  0.22640655918E+03  0.33266642430E+03  0.55625489448E+03  0.68654671183E+03  0.00000000000E+00 0. -1.
         -1    1    6    6    0  502  0.10674066590E+02  0.85766423380E+02  0.11928410055E+03  0.14730414699E+03  0.00000000000E+00 0.  1.
<mgrwt>
<rscale>  0 0.10188435E+04</rscale>
<asrwt>0</asrwt>
<pdfrwt beam="1">  1        1 0.28320092E+00 0.10188435E+04</pdfrwt>
<pdfrwt beam="2">  1       -2 0.98654220E-01 0.10188435E+04</pdfrwt>
<totfact> 0.28661963E+00</totfact>
</mgrwt>
</event>
<event>
12    3  0.1182097E-007  0.6951581E+03  0.7818608E-02  0.9725548E-01
          1   -1    0    0  501    0  0.00000000000E+00  0.00000000000E+00  0.14235766483E+04  0.14235766483E+04  0.00000000000E+00 0. -1.
         -2   -1    0    0    0  501 -0.00000000000E+00 -0.00000000000E+00 -0.48536956493E+03  0.48536956493E+03  0.00000000000E+00 0.  1.
        -24    2    1    2    0    0 -0.64391404367E+03  0.94518284661E+02  0.76397897531E+03  0.10067472363E+04  0.79480319809E+02 0.  0.
    5000000    2    1    2    0    0  0.64391404367E+03 -0.94518284661E+02  0.17422810808E+03  0.90219897700E+03  0.60004046421E+03 0.  0.
        -24    2    4    4    0    0  0.34371851404E+03 -0.22014230801E+03  0.33165485494E+03  0.53196071318E+03  0.79888703177E+02 0.  0.
         24    2    4    4    0    0  0.30019552963E+03  0.12562402335E+03 -0.15742674685E+03  0.37023826382E+03  0.79965243202E+02 0.  0.
         11    1    3    3    0    0 -0.34060578680E+03  0.89821672406E+02  0.40400632921E+03  0.53600498961E+03  0.00000000000E+00 0. -1.
        -12    1    3    3    0    0 -0.30330825686E+03  0.46966122545E+01  0.35997264610E+03  0.47074224666E+03  0.00000000000E+00 0.  1.
         15    1    5    5    0    0  0.15083903898E+03 -0.84227289606E+02  0.92399521775E+02  0.19592723483E+03  0.17770000000E+01 0. -1.
        -16    1    5    5    0    0  0.19287947507E+03 -0.13591501840E+03  0.23925533316E+03  0.33603347836E+03  0.00000000000E+00 0.  1.
          2    1    6    6  502    0  0.26090530219E+03  0.10191046921E+03 -0.10157539070E+03  0.29795113768E+03  0.00000000000E+00 0. -1.
         -1    1    6    6    0  502  0.39290227434E+02  0.23713554139E+02 -0.55851356154E+02  0.72287126143E+02  0.00000000000E+00 0.  1.
<mgrwt>
<rscale>  0 0.69515813E+03</rscale>
<asrwt>0</asrwt>
<pdfrwt beam="1">  1        1 0.21901179E+00 0.69515813E+03</pdfrwt>
<pdfrwt beam="2">  1       -2 0.74672241E-01 0.69515813E+03</pdfrwt>
<totfact> 0.10865485E+01</totfact>
</mgrwt>
</event>
<event>
12    3  0.1182097E-007  0.1104022E+04  0.7818608E-02  0.9201280E-01
         -2   -1    0    0    0  501 -0.00000000000E+00  0.00000000000E+00  0.19053283201E+04  0.19053283201E+04  0.00000000000E+00 0.  1.
          1   -1    0    0  501    0  0.00000000000E+00 -0.00000000000E+00 -0.82224814557E+03  0.82224814557E+03  0.00000000000E+00 0. -1.
        -24    2    1    2    0    0 -0.18230794125E+03  0.10535105864E+04  0.10505868610E+04  0.15010982433E+04  0.80264827961E+02 0.  0.
    5000000    2    1    2    0    0  0.18230794125E+03 -0.10535105864E+04  0.32493313622E+02  0.12264782224E+04  0.60006022499E+03 0.  0.
        -24    2    4    4    0    0  0.23270076723E+02 -0.12127455511E+02  0.14118128293E+03  0.16445689065E+03  0.80158234672E+02 0.  0.
         24    2    4    4    0    0  0.15903786453E+03 -0.10413831308E+04 -0.10868796930E+03  0.10620213318E+04  0.79400043375E+02 0.  0.
         13    1    3    3    0    0 -0.45995073263E+02  0.46002074728E+03  0.48430359464E+03  0.66954059360E+03  0.00000000000E+00 0. -1.
        -14    1    3    3    0    0 -0.13631286799E+03  0.59348983907E+03  0.56628326632E+03  0.83155764970E+03  0.00000000000E+00 0.  1.
         15    1    5    5    0    0  0.51870981361E+02  0.63026937856E+00  0.10055294918E+03  0.11315939760E+03  0.17770000000E+01 0. -1.
        -16    1    5    5    0    0 -0.28600904638E+02 -0.12757724890E+02  0.40628333744E+02  0.51297493051E+02  0.00000000000E+00 0.  1.
          4    1    6    6  502    0  0.29547316372E+01 -0.37992387426E+02 -0.19081257655E+02  0.42617441677E+02  0.00000000000E+00 0. -1.
         -3    1    6    6    0  502  0.15608313289E+03 -0.10033907434E+04 -0.89606711649E+02  0.10194038901E+04  0.00000000000E+00 0.  1.
<mgrwt>
<rscale>  0 0.11040224E+04</rscale>
<asrwt>0</asrwt>
<pdfrwt beam="1">  1        1 0.12649971E+00 0.11040224E+04</pdfrwt>
<pdfrwt beam="2">  1       -2 0.29312743E+00 0.11040224E+04</pdfrwt>
<totfact> 0.64491144E-01</totfact>
</mgrwt>
</event>
<event>
12    3  0.1182097E-007  0.1242308E+04  0.7818608E-02  0.9076610E-01
         -2   -1    0    0    0  501 -0.00000000000E+00  0.00000000000E+00  0.88812112953E+03  0.88812112953E+03  0.00000000000E+00 0.  1.
          1   -1    0    0  501    0  0.00000000000E+00 -0.00000000000E+00 -0.18048027965E+04  0.18048027965E+04  0.00000000000E+00 0. -1.
        -24    2    1    2    0    0  0.82528424698E+03  0.84309152527E+03 -0.24090763723E+03  0.12068195936E+04  0.80496171542E+02 0.  0.
    5000000    2    1    2    0    0 -0.82528424698E+03 -0.84309152527E+03 -0.67577402973E+03  0.14861043324E+04  0.59994844708E+03 0.  0.
        -24    2    4    4    0    0 -0.72361786725E+03 -0.35897175732E+03 -0.32240035057E+03  0.87283445644E+03  0.73583027534E+02 0.  0.
         24    2    4    4    0    0 -0.10166637973E+03 -0.48411976795E+03 -0.35337367915E+03  0.61326987594E+03  0.80740207621E+02 0.  0.
         13    1    3    3    0    0  0.61567046603E+03  0.66724753594E+03 -0.20629139686E+03  0.93103465960E+03  0.00000000000E+00 0. -1.
        -14    1    3    3    0    0  0.20961378095E+03  0.17584398933E+03 -0.34616240361E+02  0.27578493404E+03  0.00000000000E+00 0.  1.
         15    1    5    5    0    0 -0.30225010611E+02 -0.89791882463E+01  0.71856353784E+00  0.31588782037E+02  0.17770000000E+01 0. -1.
        -16    1    5    5    0    0 -0.69339285663E+03 -0.34999256908E+03 -0.32311891411E+03  0.84124567440E+03  0.00000000000E+00 0.  1.
          4    1    6    6  502    0 -0.14226880200E+02 -0.90124919463E+02 -0.29778368432E+02  0.95977374703E+02  0.00000000000E+00 0. -1.
         -3    1    6    6    0  502 -0.87439499534E+02 -0.39399484849E+03 -0.32359531072E+03  0.51729250123E+03  0.00000000000E+00 0.  1.
<mgrwt>
<rscale>  0 0.12423078E+04</rscale>
<asrwt>0</asrwt>
<pdfrwt beam="1">  1        1 0.27766197E+00 0.12423078E+04</pdfrwt>
<pdfrwt beam="2">  1       -2 0.13663402E+00 0.12423078E+04</pdfrwt>
<totfact> 0.13204656E+00</totfact>
</mgrwt>
</event>
<event>
12    3  0.1182097E-007  0.9653255E+03  0.7818608E-02  0.9347415E-01
         -2   -1    0    0    0  501 -0.00000000000E+00  0.00000000000E+00  0.62206296351E+03  0.62206296351E+03  0.00000000000E+00 0.  1.
          1   -1    0    0  501    0  0.00000000000E+00 -0.00000000000E+00 -0.22055932499E+04  0.22055932499E+04  0.00000000000E+00 0. -1.
        -24    2    1    2    0    0  0.44090058521E+03 -0.80255907074E+03 -0.14609179384E+04  0.17261190127E+04  0.81922128485E+02 0.  0.
    5000000    2    1    2    0    0 -0.44090058521E+03  0.80255907074E+03 -0.12261234795E+03  0.11015372007E+04  0.59988001184E+03 0.  0.
        -24    2    4    4    0    0 -0.42923725802E+03  0.82951559480E+03 -0.22962497328E+03  0.96511307711E+03  0.79842830399E+02 0.  0.
         24    2    4    4    0    0 -0.11663327183E+02 -0.26956524056E+02  0.10701262533E+03  0.13642412359E+03  0.79354597396E+02 0.  0.
         11    1    3    3    0    0  0.15258132748E+03 -0.36188604564E+03 -0.62527652259E+03  0.73838560470E+03  0.00000000000E+00 0. -1.
        -12    1    3    3    0    0  0.28831925772E+03 -0.44067302511E+03 -0.83564141585E+03  0.98773340802E+03  0.00000000000E+00 0.  1.
         15    1    5    5    0    0 -0.10932406093E+03  0.19853300527E+03 -0.21404737928E+02  0.22765857114E+03  0.17770000000E+01 0. -1.
        -16    1    5    5    0    0 -0.31991319710E+03  0.63098258953E+03 -0.20822023536E+03  0.73745450597E+03  0.00000000000E+00 0.  1.
          4    1    6    6  502    0 -0.39391632523E+02 -0.12809708089E+01  0.26526621031E+02  0.47507927994E+02  0.00000000000E+00 0. -1.
         -3    1    6    6    0  502  0.27728305340E+02 -0.25675553247E+02  0.80486004301E+02  0.88916195599E+02  0.00000000000E+00 0.  1.
<mgrwt>
<rscale>  0 0.96532550E+03</rscale>
<asrwt>0</asrwt>
<pdfrwt beam="1">  1        1 0.33932204E+00 0.96532550E+03</pdfrwt>
<pdfrwt beam="2">  1       -2 0.95701994E-01 0.96532550E+03</pdfrwt>
<totfact> 0.17606916E+00</totfact>
</mgrwt>
</event>
<event>
12    3  0.1182097E-007  0.5304162E+03  0.7818608E-02  0.1006131E+00
          1   -1    0    0  501    0  0.00000000000E+00  0.00000000000E+00  0.20474854195E+04  0.20474854195E+04  0.00000000000E+00 0. -1.
         -2   -1    0    0    0  501 -0.00000000000E+00 -0.00000000000E+00 -0.14590485255E+03  0.14590485255E+03  0.00000000000E+00 0.  1.
        -24    2    1    2    0    0  0.36617585492E+03  0.52186891831E+02  0.81275193053E+03  0.89626172474E+03  0.76884005131E+02 0.  0.
    5000000    2    1    2    0    0 -0.36617585492E+03 -0.52186891831E+02  0.10888286364E+04  0.12971285473E+04  0.60015534687E+03 0.  0.
        -24    2    4    4    0    0 -0.49253845554E+03 -0.14411181395E+03  0.90268890008E+03  0.10412046627E+04  0.76795535016E+02 0.  0.
         24    2    4    4    0    0  0.12636260062E+03  0.91924922115E+02  0.18613973634E+03  0.25592388462E+03  0.80195605435E+02 0.  0.
         11    1    3    3    0    0  0.13059305433E+03 -0.16277458470E+02  0.31295076380E+03  0.33949621803E+03  0.00000000000E+00 0. -1.
        -12    1    3    3    0    0  0.23558280058E+03  0.68464350300E+02  0.49980116673E+03  0.55676550671E+03  0.00000000000E+00 0.  1.
         15    1    5    5    0    0 -0.34530372169E+03 -0.65846073589E+02  0.63580898778E+03  0.72651675294E+03  0.17770000000E+01 0. -1.
        -16    1    5    5    0    0 -0.14723473384E+03 -0.78265740357E+02  0.26687991230E+03  0.31468790976E+03  0.00000000000E+00 0.  1.
          2    1    6    6  502    0  0.67573056342E+02  0.81581326859E+02  0.15726299636E+03  0.18961350390E+03  0.00000000000E+00 0. -1.
         -1    1    6    6    0  502  0.58789544280E+02  0.10343595256E+02  0.28876739979E+02  0.66310380720E+02  0.00000000000E+00 0.  1.
<mgrwt>
<rscale>  0 0.53041615E+03</rscale>
<asrwt>0</asrwt>
<pdfrwt beam="1">  1        1 0.31499774E+00 0.53041615E+03</pdfrwt>
<pdfrwt beam="2">  1       -2 0.22446902E-01 0.53041615E+03</pdfrwt>
<totfact> 0.45090931E+01</totfact>
</mgrwt>
</event>
<event>
12    3  0.1182097E-007  0.1132289E+04  0.7818608E-02  0.9174280E-01
         -2   -1    0    0    0  501 -0.00000000000E+00  0.00000000000E+00  0.60861173577E+03  0.60861173577E+03  0.00000000000E+00 0.  1.
          1   -1    0    0  501    0  0.00000000000E+00 -0.00000000000E+00 -0.24591204263E+04  0.24591204263E+04  0.00000000000E+00 0. -1.
        -24    2    1    2    0    0 -0.11012525221E+04 -0.78958959105E+02 -0.12658605973E+04  0.16818222783E+04  0.84448145032E+02 0.  0.
    5000000    2    1    2    0    0  0.11012525221E+04  0.78958959105E+02 -0.58464809318E+03  0.13859098838E+04  0.59995098012E+03 0.  0.
        -24    2    4    4    0    0  0.58887129057E+03 -0.12974979835E+03 -0.46276862149E+02  0.60993056959E+03  0.79179193722E+02 0.  0.
         24    2    4    4    0    0  0.51238123150E+03  0.20870875746E+03 -0.53837123103E+03  0.77597931421E+03  0.78780973834E+02 0.  0.
         13    1    3    3    0    0 -0.90924465221E+03 -0.47639400801E+02 -0.10002949141E+04  0.13526216268E+04  0.00000000000E+00 0. -1.
        -14    1    3    3    0    0 -0.19200786986E+03 -0.31319558304E+02 -0.26556568325E+03  0.32920065149E+03  0.00000000000E+00 0.  1.
         15    1    5    5    0    0  0.10424890049E+03 -0.11792163717E+02  0.19865572226E+02  0.10679272947E+03  0.17770000000E+01 0. -1.
        -16    1    5    5    0    0  0.48462239008E+03 -0.11795763464E+03 -0.66142434375E+02  0.50313784012E+03  0.00000000000E+00 0.  1.
          4    1    6    6  502    0  0.35368886290E+03  0.17036642913E+03 -0.41565415389E+03  0.57174199387E+03  0.00000000000E+00 0. -1.
         -3    1    6    6    0  502  0.15869236860E+03  0.38342328334E+02 -0.12271707714E+03  0.20423732034E+03  0.00000000000E+00 0.  1.
<mgrwt>
<rscale>  0 0.11322890E+04</rscale>
<asrwt>0</asrwt>
<pdfrwt beam="1">  1        1 0.37832622E+00 0.11322890E+04</pdfrwt>
<pdfrwt beam="2">  1       -2 0.93632575E-01 0.11322890E+04</pdfrwt>
<totfact> 0.12179571E+00</totfact>
</mgrwt>
</event>
<event>
12    3  0.1182097E-007  0.3505073E+03  0.7818608E-02  0.1062407E+00
         -2   -1    0    0    0  501 -0.00000000000E+00  0.00000000000E+00  0.87596327204E+03  0.87596327204E+03  0.00000000000E+00 0.  1.
          1   -1    0    0  501    0  0.00000000000E+00 -0.00000000000E+00 -0.34652773735E+03  0.34652773735E+03  0.00000000000E+00 0. -1.
        -24    2    1    2    0    0  0.16066944293E+02  0.26455567489E+03  0.49081639064E+03  0.56573511698E+03  0.94380302272E+02 0.  0.
    5000000    2    1    2    0    0 -0.16066944293E+02 -0.26455567489E+03  0.38619144047E+02  0.65675589240E+03  0.59965741228E+03 0.  0.
        -24    2    4    4    0    0 -0.10463940995E+03  0.14255827407E+02  0.25276303985E+03  0.28557664621E+03  0.80698400332E+02 0.  0.
         24    2    4    4    0    0  0.88572465660E+02 -0.27881150229E+03 -0.21414389580E+03  0.37117924619E+03  0.79595786370E+02 0.  0.
         11    1    3    3    0    0  0.34679939816E+02  0.12096813932E+03  0.30665891721E+03  0.33147500729E+03  0.00000000000E+00 0. -1.
        -12    1    3    3    0    0 -0.18612995524E+02  0.14358753557E+03  0.18415747343E+03  0.23426010969E+03  0.00000000000E+00 0.  1.
         15    1    5    5    0    0 -0.87735071696E+02 -0.24092558224E+02  0.17319139760E+03  0.19564332879E+03  0.17770000000E+01 0. -1.
        -16    1    5    5    0    0 -0.16904338257E+02  0.38348385630E+02  0.79571642248E+02  0.89933317421E+02  0.00000000000E+00 0.  1.
          4    1    6    6  502    0 -0.75507144845E+01 -0.22433265211E+02 -0.40636706444E+02  0.47027721483E+02  0.00000000000E+00 0. -1.
         -1    1    6    6    0  502  0.96123180144E+02 -0.25637823708E+03 -0.17350718936E+03  0.32415152471E+03  0.00000000000E+00 0.  1.
<mgrwt>
<rscale>  0 0.35050732E+03</rscale>
<asrwt>0</asrwt>
<pdfrwt beam="1">  1        1 0.53311960E-01 0.35050732E+03</pdfrwt>
<pdfrwt beam="2">  1       -2 0.13476358E+00 0.35050732E+03</pdfrwt>
<totfact> 0.26641044E+01</totfact>
</mgrwt>
</event>
<event>
12    3  0.1182097E-007  0.8390109E+03  0.7818608E-02  0.9505206E-01
         -2   -1    0    0    0  501 -0.00000000000E+00  0.00000000000E+00  0.76315223181E+03  0.76315223181E+03  0.00000000000E+00 0.  1.
          1   -1    0    0  501    0  0.00000000000E+00 -0.00000000000E+00 -0.94623316893E+03  0.94623316893E+03  0.00000000000E+00 0. -1.
        -24    2    1    2    0    0 -0.71126003232E+03  0.20111885768E+03 -0.19914969630E+02  0.74376487632E+03  0.80311622752E+02 0.  0.
    5000000    2    1    2    0    0  0.71126003232E+03 -0.20111885768E+03 -0.16316596749E+03  0.96562052442E+03  0.59955002772E+03 0.  0.
        -24    2    4    4    0    0  0.22618923363E+03  0.19733140607E+03 -0.11476248805E+03  0.33055359015E+03  0.77420889121E+02 0.  0.
         24    2    4    4    0    0  0.48507079869E+03 -0.39845026374E+03 -0.48403479441E+02  0.63506693426E+03  0.83131352401E+02 0.  0.
         13    1    3    3    0    0 -0.64862580975E+03  0.15880401362E+03 -0.22041272532E+02  0.66814667066E+03  0.00000000000E+00 0. -1.
        -14    1    3    3    0    0 -0.62634222569E+02  0.42314844051E+02  0.21263029023E+01  0.75618205664E+02  0.00000000000E+00 0.  1.
         15    1    5    5    0    0  0.18348271773E+03  0.18034081503E+03 -0.70543206841E+02  0.26677372253E+03  0.17770000000E+01 0. -1.
        -16    1    5    5    0    0  0.42706515898E+02  0.16990591032E+02 -0.44219281205E+02  0.63779867623E+02  0.00000000000E+00 0.  1.
          2    1    6    6  502    0  0.13441347647E+03 -0.15144385820E+03  0.68276943640E+01  0.20260513876E+03  0.00000000000E+00 0. -1.
         -1    1    6    6    0  502  0.35065732222E+03 -0.24700640554E+03 -0.55231173805E+02  0.43246179550E+03  0.00000000000E+00 0.  1.
<mgrwt>
<rscale>  0 0.83901092E+03</rscale>
<asrwt>0</asrwt>
<pdfrwt beam="1">  1        1 0.14557433E+00 0.83901092E+03</pdfrwt>
<pdfrwt beam="2">  1       -2 0.11740804E+00 0.83901092E+03</pdfrwt>
<totfact> 0.83088078E+00</totfact>
</mgrwt>
</event>
<event>
12    3  0.1182097E-007  0.1338787E+04  0.7818608E-02  0.8999360E-01
          1   -1    0    0  501    0  0.00000000000E+00  0.00000000000E+00  0.23108662902E+04  0.23108662902E+04  0.00000000000E+00 0. -1.
         -4   -1    0    0    0  501 -0.00000000000E+00 -0.00000000000E+00 -0.84467377593E+03  0.84467377593E+03  0.00000000000E+00 0.  1.
        -24    2    1    2    0    0  0.10654150096E+04 -0.79403831836E+03  0.60519082369E+03  0.14623246538E+04  0.80817488559E+02 0.  0.
    5000000    2    1    2    0    0 -0.10654150096E+04  0.79403831836E+03  0.86100169058E+03  0.16932154123E+04  0.60004043828E+03 0.  0.
        -24    2    4    4    0    0 -0.58636875484E+03  0.54544653767E+03  0.18589188631E+03  0.82601179249E+03  0.79996536367E+02 0.  0.
         24    2    4    4    0    0 -0.47904625475E+03  0.24859178069E+03  0.67510980428E+03  0.86720361981E+03  0.70609367350E+02 0.  0.
         13    1    3    3    0    0  0.28755831740E+03 -0.19849615244E+03  0.19609654274E+03  0.40067987536E+03  0.00000000000E+00 0. -1.
        -14    1    3    3    0    0  0.77785669219E+03 -0.59554216592E+03  0.40909428095E+03  0.10616447785E+04  0.00000000000E+00 0.  1.
         15    1    5    5    0    0 -0.20345519965E+03  0.24258176804E+03  0.73130464740E+02  0.32494792668E+03  0.17770000000E+01 0. -1.
        -16    1    5    5    0    0 -0.38291355519E+03  0.30286476964E+03  0.11276142157E+03  0.50106386582E+03  0.00000000000E+00 0.  1.
          4    1    6    6  502    0 -0.32700882823E+03  0.20323810232E+03  0.49670692108E+03  0.62845705137E+03  0.00000000000E+00 0. -1.
         -3    1    6    6    0  502 -0.15203742652E+03  0.45353678374E+02  0.17840288320E+03  0.23874656844E+03  0.00000000000E+00 0.  1.
<mgrwt>
<rscale>  0 0.13387871E+04</rscale>
<asrwt>0</asrwt>
<pdfrwt beam="1">  1        1 0.35551789E+00 0.13387871E+04</pdfrwt>
<pdfrwt beam="2">  1       -4 0.12994981E+00 0.13387871E+04</pdfrwt>
<totfact> 0.36843688E-01</totfact>
</mgrwt>
</event>
<event>
12    3  0.1182097E-007  0.6225862E+03  0.7818608E-02  0.9859624E-01
          1   -1    0    0  501    0  0.00000000000E+00  0.00000000000E+00  0.10406189449E+04  0.10406189449E+04  0.00000000000E+00 0. -1.
         -2   -1    0    0    0  501 -0.00000000000E+00 -0.00000000000E+00 -0.53334638500E+03  0.53334638500E+03  0.00000000000E+00 0.  1.
        -24    2    1    2    0    0  0.52342020637E+03  0.22822375585E+03 -0.45415672528E+02  0.57823571205E+03  0.78988354857E+02 0.  0.
    5000000    2    1    2    0    0 -0.52342020637E+03 -0.22822375585E+03  0.55268823247E+03  0.99572961789E+03  0.59996532772E+03 0.  0.
        -24    2    4    4    0    0 -0.14450343430E+03  0.80752979141E+02  0.45519705370E+03  0.49095534908E+03  0.80190466583E+02 0.  0.
         24    2    4    4    0    0 -0.37891677207E+03 -0.30897673499E+03  0.97491178772E+02  0.50477426881E+03  0.79044225533E+02 0.  0.
         13    1    3    3    0    0  0.39903662265E+03  0.17615291401E+03 -0.68180267650E+02  0.44148456850E+03  0.00000000000E+00 0. -1.
        -14    1    3    3    0    0  0.12438358372E+03  0.52070841847E+02  0.22764595122E+02  0.13675114354E+03  0.00000000000E+00 0.  1.
         15    1    5    5    0    0 -0.43220480906E+02  0.67640409767E+02  0.23206186868E+03  0.24555875800E+03  0.17770000000E+01 0. -1.
        -16    1    5    5    0    0 -0.10128295340E+03  0.13112569374E+02  0.22313518502E+03  0.24539659109E+03  0.00000000000E+00 0.  1.
          2    1    6    6  502    0 -0.26341037884E+03 -0.18258881398E+03  0.34585425318E+02  0.32236602538E+03  0.00000000000E+00 0. -1.
         -1    1    6    6    0  502 -0.11550639323E+03 -0.12638792101E+03  0.62905753454E+02  0.18240824343E+03  0.00000000000E+00 0.  1.
<mgrwt>
<rscale>  0 0.62258615E+03</rscale>
<asrwt>0</asrwt>
<pdfrwt beam="1">  1        1 0.16009522E+00 0.62258615E+03</pdfrwt>
<pdfrwt beam="2">  1       -2 0.82053290E-01 0.62258615E+03</pdfrwt>
<totfact> 0.16752042E+01</totfact>
</mgrwt>
</event>
<event>
12    3  0.1182097E-007  0.5793512E+03  0.7818608E-02  0.9949197E-01
          1   -1    0    0  501    0  0.00000000000E+00  0.00000000000E+00  0.15048496465E+04  0.15048496465E+04  0.00000000000E+00 0. -1.
         -2   -1    0    0    0  501 -0.00000000000E+00 -0.00000000000E+00 -0.33122877214E+03  0.33122877214E+03  0.00000000000E+00 0.  1.
        -24    2    1    2    0    0 -0.29028165674E+03  0.48105272037E+03  0.65120139215E+03  0.86231373156E+03  0.62020629553E+02 0.  0.
    5000000    2    1    2    0    0  0.29028165674E+03 -0.48105272037E+03  0.52241948219E+03  0.97376468706E+03  0.59968357521E+03 0.  0.
        -24    2    4    4    0    0  0.11565221767E+03 -0.32459612702E+03 -0.43220175148E+02  0.35633385073E+03  0.79798173608E+02 0.  0.
         24    2    4    4    0    0  0.17462943907E+03 -0.15645659335E+03  0.56563965733E+03  0.61743083633E+03  0.79363147022E+02 0.  0.
         11    1    3    3    0    0 -0.25441588938E+03  0.39241492285E+03  0.56624902924E+03  0.73440784280E+03  0.00000000000E+00 0. -1.
        -12    1    3    3    0    0 -0.35865767352E+02  0.88637797517E+02  0.84952362909E+02  0.12790588876E+03  0.00000000000E+00 0.  1.
         15    1    5    5    0    0 -0.11429248045E+02 -0.14783474810E+02 -0.38792567735E+01  0.19167295074E+02  0.17770000000E+01 0. -1.
        -16    1    5    5    0    0  0.12708146571E+03 -0.30981265221E+03 -0.39340918374E+02  0.33716655566E+03  0.00000000000E+00 0.  1.
          4    1    6    6  502    0 -0.22579224306E+01 -0.15315884634E+02  0.82241291268E+02  0.83685748638E+02  0.00000000000E+00 0. -1.
         -3    1    6    6    0  502  0.17688736150E+03 -0.14114070872E+03  0.48339836607E+03  0.53374508769E+03  0.00000000000E+00 0.  1.
<mgrwt>
<rscale>  0 0.57935120E+03</rscale>
<asrwt>0</asrwt>
<pdfrwt beam="1">  1        1 0.23151533E+00 0.57935120E+03</pdfrwt>
<pdfrwt beam="2">  1       -2 0.50958274E-01 0.57935120E+03</pdfrwt>
<totfact> 0.21868151E+01</totfact>
</mgrwt>
</event>
<event>
12    3  0.1182097E-007  0.9143908E+03  0.7818608E-02  0.9407769E-01
          1   -1    0    0  501    0  0.00000000000E+00  0.00000000000E+00  0.13586362027E+04  0.13586362027E+04  0.00000000000E+00 0. -1.
         -2   -1    0    0    0  501 -0.00000000000E+00 -0.00000000000E+00 -0.90239680194E+03  0.90239680194E+03  0.00000000000E+00 0.  1.
        -24    2    1    2    0    0  0.45977955608E+03  0.77882379489E+03 -0.27930768185E+03  0.94999147465E+03  0.80667695484E+02 0.  0.
    5000000    2    1    2    0    0 -0.45977955608E+03 -0.77882379489E+03  0.73554708264E+03  0.13110415300E+04  0.59986385036E+03 0.  0.
        -24    2    4    4    0    0 -0.29450327891E+03 -0.43206359158E+03  0.63051807448E+02  0.53240570511E+03  0.77904916131E+02 0.  0.
         24    2    4    4    0    0 -0.16527627717E+03 -0.34676020331E+03  0.67249527519E+03  0.77863582490E+03  0.80405013979E+02 0.  0.
         13    1    3    3    0    0  0.32353870499E+03  0.61255668549E+03 -0.20278578241E+03  0.72182065648E+03  0.00000000000E+00 0. -1.
        -14    1    3    3    0    0  0.13624085109E+03  0.16626710939E+03 -0.76521899435E+02  0.22817081817E+03  0.00000000000E+00 0.  1.
         15    1    5    5    0    0 -0.17415875991E+03 -0.31924399798E+03  0.40429592617E+02  0.36590396771E+03  0.17770000000E+01 0. -1.
        -16    1    5    5    0    0 -0.12034451900E+03 -0.11281959360E+03  0.22622214832E+02  0.16650173740E+03  0.00000000000E+00 0.  1.
          2    1    6    6  502    0 -0.17584298773E+02 -0.12361388737E+03  0.21582141427E+03  0.24933608557E+03  0.00000000000E+00 0. -1.
         -1    1    6    6    0  502 -0.14769197840E+03 -0.22314631594E+03  0.45667386092E+03  0.52929973933E+03  0.00000000000E+00 0.  1.
<mgrwt>
<rscale>  0 0.91439085E+03</rscale>
<asrwt>0</asrwt>
<pdfrwt beam="1">  1        1 0.20902095E+00 0.91439085E+03</pdfrwt>
<pdfrwt beam="2">  1       -2 0.13883028E+00 0.91439085E+03</pdfrwt>
<totfact> 0.26668165E+00</totfact>
</mgrwt>
</event>
<event>
12    3  0.1182097E-007  0.1043550E+04  0.7818608E-02  0.9262028E-01
         -2   -1    0    0    0  501 -0.00000000000E+00  0.00000000000E+00  0.21015454969E+04  0.21015454969E+04  0.00000000000E+00 0.  1.
          1   -1    0    0  501    0  0.00000000000E+00 -0.00000000000E+00 -0.98852571488E+03  0.98852571488E+03  0.00000000000E+00 0. -1.
        -24    2    1    2    0    0 -0.86740896565E+03 -0.56097047527E+03 -0.44452552430E+03  0.11271437759E+04  0.75920760944E+02 0.  0.
    5000000    2    1    2    0    0  0.86740896565E+03  0.56097047527E+03  0.15575453064E+04  0.19629274359E+04  0.60004212317E+03 0.  0.
        -24    2    4    4    0    0  0.18667396835E+03  0.39789021694E+02  0.76369815634E+03  0.79146247031E+03  0.82143966381E+02 0.  0.
         24    2    4    4    0    0  0.68073499730E+03  0.52118145358E+03  0.79384715003E+03  0.11714649656E+04  0.84300794729E+02 0.  0.
         13    1    3    3    0    0 -0.19788495836E+03 -0.15292321819E+03 -0.13491843562E+03  0.28416008108E+03  0.00000000000E+00 0. -1.
        -14    1    3    3    0    0 -0.66952400729E+03 -0.40804725708E+03 -0.30960708868E+03  0.84298369480E+03  0.00000000000E+00 0.  1.
         15    1    5    5    0    0  0.14678913528E+03  0.47979347738E+02  0.69185471276E+03  0.70888304348E+03  0.17770000000E+01 0. -1.
        -16    1    5    5    0    0  0.39884833071E+02 -0.81903260445E+01  0.71843443578E+02  0.82579426826E+02  0.00000000000E+00 0.  1.
          4    1    6    6  502    0  0.15638601272E+03  0.13460543145E+03  0.14635593578E+03  0.25297285840E+03  0.00000000000E+00 0. -1.
         -3    1    6    6    0  502  0.52434898458E+03  0.38657602213E+03  0.64749121425E+03  0.91849210723E+03  0.00000000000E+00 0.  1.
<mgrwt>
<rscale>  0 0.10435503E+04</rscale>
<asrwt>0</asrwt>
<pdfrwt beam="1">  1        1 0.15208088E+00 0.10435503E+04</pdfrwt>
<pdfrwt beam="2">  1       -2 0.32331469E+00 0.10435503E+04</pdfrwt>
<totfact> 0.31093517E-01</totfact>
</mgrwt>
</event>
<event>
12    3  0.1182097E-007  0.8058354E+03  0.7818608E-02  0.9551609E-01
          1   -1    0    0  501    0  0.00000000000E+00  0.00000000000E+00  0.31916685609E+04  0.31916685609E+04  0.00000000000E+00 0. -1.
         -2   -1    0    0    0  501 -0.00000000000E+00 -0.00000000000E+00 -0.29582543378E+03  0.29582543378E+03  0.00000000000E+00 0.  1.
        -24    2    1    2    0    0 -0.68240325082E+03 -0.18518939151E+03  0.22437768963E+04  0.23538401301E+04  0.77841442057E+02 0.  0.
    5000000    2    1    2    0    0  0.68240325082E+03  0.18518939151E+03  0.65206623082E+03  0.11336538646E+04  0.60000950651E+03 0.  0.
        -24    2    4    4    0    0  0.75518579959E+03  0.10118934296E+03  0.45123283892E+03  0.88916629457E+03  0.80378787352E+02 0.  0.
         24    2    4    4    0    0 -0.72782548766E+02  0.84000048555E+02  0.20083339190E+03  0.24448757003E+03  0.84183211135E+02 0.  0.
         11    1    3    3    0    0 -0.34247936921E+03 -0.62207141421E+02  0.11841505068E+04  0.12342504889E+04  0.00000000000E+00 0. -1.
        -12    1    3    3    0    0 -0.33992388161E+03 -0.12298225009E+03  0.10596263896E+04  0.11195896412E+04  0.00000000000E+00 0.  1.
         15    1    5    5    0    0  0.59744903416E+03  0.48159062709E+02  0.36431523303E+03  0.70142240518E+03  0.17770000000E+01 0. -1.
        -16    1    5    5    0    0  0.15773676542E+03  0.53030280250E+02  0.86917605889E+02  0.18774388939E+03  0.00000000000E+00 0.  1.
          2    1    6    6  502    0 -0.48248688581E+02 -0.55961695898E+00  0.47717881597E+02  0.67861958010E+02  0.00000000000E+00 0. -1.
         -1    1    6    6    0  502 -0.24533860185E+02  0.84559665514E+02  0.15311551030E+03  0.17662561202E+03  0.00000000000E+00 0.  1.
<mgrwt>
<rscale>  0 0.80583544E+03</rscale>
<asrwt>0</asrwt>
<pdfrwt beam="1">  1        1 0.49102591E+00 0.80583544E+03</pdfrwt>
<pdfrwt beam="2">  1       -2 0.45511607E-01 0.80583544E+03</pdfrwt>
<totfact> 0.18442291E+00</totfact>
</mgrwt>
</event>
<event>
12    3  0.1182097E-007  0.7469238E+03  0.7818608E-02  0.9640189E-01
         -2   -1    0    0    0  501 -0.00000000000E+00  0.00000000000E+00  0.27697036333E+03  0.27697036333E+03  0.00000000000E+00 0.  1.
          1   -1    0    0  501    0  0.00000000000E+00 -0.00000000000E+00 -0.26702637675E+04  0.26702637675E+04  0.00000000000E+00 0. -1.
        -24    2    1    2    0    0  0.61791676222E+03 -0.38547697745E+03 -0.13816845770E+04  0.15638221926E+04  0.77935579273E+02 0.  0.
    5000000    2    1    2    0    0 -0.61791676222E+03  0.38547697745E+03 -0.10116088272E+04  0.13834119383E+04  0.60005211982E+03 0.  0.
        -24    2    4    4    0    0 -0.43914580739E+03  0.35394531735E+03 -0.29837083848E+03  0.64305514707E+03  0.79802488080E+02 0.  0.
         24    2    4    4    0    0 -0.17877095483E+03  0.31531660096E+02 -0.71323798870E+03  0.74035679118E+03  0.80414239034E+02 0.  0.
         11    1    3    3    0    0  0.55016909814E+03 -0.31325278372E+03 -0.11783048006E+04  0.13376156197E+04  0.00000000000E+00 0. -1.
        -12    1    3    3    0    0  0.67747664078E+02 -0.72224193724E+02 -0.20337977643E+03  0.22620657287E+03  0.00000000000E+00 0.  1.
         15    1    5    5    0    0 -0.27467112362E+03  0.26928517404E+03 -0.20223196736E+03  0.43457986315E+03  0.17770000000E+01 0. -1.
        -16    1    5    5    0    0 -0.16447468377E+03  0.84660143315E+02 -0.96138871120E+02  0.20847528392E+03  0.00000000000E+00 0.  1.
          2    1    6    6  502    0 -0.14687042273E+03 -0.50398172810E+00 -0.45280778882E+03  0.47603158371E+03  0.00000000000E+00 0. -1.
         -1    1    6    6    0  502 -0.31900532102E+02  0.32035641824E+02 -0.26043019987E+03  0.26432520746E+03  0.00000000000E+00 0.  1.
<mgrwt>
<rscale>  0 0.74692379E+03</rscale>
<asrwt>0</asrwt>
<pdfrwt beam="1">  1        1 0.41080980E+00 0.74692379E+03</pdfrwt>
<pdfrwt beam="2">  1       -2 0.42610826E-01 0.74692379E+03</pdfrwt>
<totfact> 0.49984602E+00</totfact>
</mgrwt>
</event>
<event>
12    3  0.1182097E-007  0.6185503E+03  0.7818608E-02  0.9867650E-01
          1   -1    0    0  501    0  0.00000000000E+00  0.00000000000E+00  0.37473768786E+03  0.37473768786E+03  0.00000000000E+00 0. -1.
         -2   -1    0    0    0  501 -0.00000000000E+00 -0.00000000000E+00 -0.11171749706E+04  0.11171749706E+04  0.00000000000E+00 0.  1.
        -24    2    1    2    0    0 -0.29068789127E+03  0.41111146124E+03 -0.33135901843E+03  0.60731227347E+03  0.74278628911E+02 0.  0.
    5000000    2    1    2    0    0  0.29068789127E+03 -0.41111146124E+03 -0.41107826428E+03  0.88460038497E+03  0.60001701478E+03 0.  0.
        -24    2    4    4    0    0  0.42268006550E+03 -0.17439142519E+03 -0.37809225982E+03  0.59859811601E+03  0.79341922152E+02 0.  0.
         24    2    4    4    0    0 -0.13199217423E+03 -0.23672003605E+03 -0.32986004458E+02  0.28600226895E+03  0.85152286118E+02 0.  0.
         13    1    3    3    0    0 -0.21677469897E+03  0.30691289849E+03 -0.28424530945E+03  0.47114986291E+03  0.00000000000E+00 0. -1.
        -14    1    3    3    0    0 -0.73913192299E+02  0.10419856275E+03 -0.47113708980E+02  0.13616241056E+03  0.00000000000E+00 0.  1.
         15    1    5    5    0    0  0.29632805649E+03 -0.10844333784E+03 -0.21412168624E+03  0.38134174808E+03  0.17770000000E+01 0. -1.
        -16    1    5    5    0    0  0.12635200901E+03 -0.65948087353E+02 -0.16397057358E+03  0.21725636793E+03  0.00000000000E+00 0.  1.
          2    1    6    6  502    0 -0.45133175711E+02 -0.39329500838E+02  0.21433132056E+02  0.63586101750E+02  0.00000000000E+00 0. -1.
         -1    1    6    6    0  502 -0.86858998515E+02 -0.19739053521E+03 -0.54419136515E+02  0.22241616720E+03  0.00000000000E+00 0.  1.
<mgrwt>
<rscale>  0 0.61855034E+03</rscale>
<asrwt>0</asrwt>
<pdfrwt beam="1">  1        1 0.57651951E-01 0.61855034E+03</pdfrwt>
<pdfrwt beam="2">  1       -2 0.17187307E+00 0.61855034E+03</pdfrwt>
<totfact> 0.12223665E+01</totfact>
</mgrwt>
</event>
<event>
12    3  0.1182097E-007  0.1089058E+04  0.7818608E-02  0.9215923E-01
          1   -1    0    0  501    0  0.00000000000E+00  0.00000000000E+00  0.78436473004E+03  0.78436473004E+03  0.00000000000E+00 0. -1.
         -2   -1    0    0    0  501 -0.00000000000E+00 -0.00000000000E+00 -0.15977398874E+04  0.15977398874E+04  0.00000000000E+00 0.  1.
        -24    2    1    2    0    0  0.50148685283E+02 -0.10361141771E+04 -0.38703876757E+03  0.11101551769E+04  0.81228263121E+02 0.  0.
    5000000    2    1    2    0    0 -0.50148685283E+02  0.10361141771E+04 -0.42633638976E+03  0.12719494405E+04  0.60003765163E+03 0.  0.
        -24    2    4    4    0    0 -0.23075396740E+03  0.34357883967E+03  0.24771522641E+02  0.42220224334E+03  0.79669902778E+02 0.  0.
         24    2    4    4    0    0  0.18060528212E+03  0.69253533739E+03 -0.45110791241E+03  0.84974719714E+03  0.79677405566E+02 0.  0.
         13    1    3    3    0    0  0.10583789664E+02 -0.82013704520E+03 -0.28822212526E+03  0.86937263760E+03  0.00000000000E+00 0. -1.
        -14    1    3    3    0    0  0.39564895620E+02 -0.21597713186E+03 -0.98816642309E+02  0.24078253934E+03  0.00000000000E+00 0.  1.
         15    1    5    5    0    0 -0.17217294757E+03  0.30819418924E+03  0.19895444697E+02  0.35359039665E+03  0.17770000000E+01 0. -1.
        -16    1    5    5    0    0 -0.58581019827E+02  0.35384650437E+02  0.48760779440E+01  0.68611846693E+02  0.00000000000E+00 0.  1.
          4    1    6    6  502    0  0.13162275449E+03  0.56793284986E+03 -0.33407078681E+03  0.67191931216E+03  0.00000000000E+00 0. -1.
         -3    1    6    6    0  502  0.48982527631E+02  0.12460248753E+03 -0.11703712559E+03  0.17782788498E+03  0.00000000000E+00 0.  1.
<mgrwt>
<rscale>  0 0.10890576E+04</rscale>
<asrwt>0</asrwt>
<pdfrwt beam="1">  1        1 0.12067150E+00 0.10890576E+04</pdfrwt>
<pdfrwt beam="2">  1       -2 0.24580613E+00 0.10890576E+04</pdfrwt>
<totfact> 0.13512098E+00</totfact>
</mgrwt>
</event>
<event>
12    3  0.1999303E-007  0.1294089E+04  0.7818608E-02  0.9034266E-01
         -2   -1    0    0    0  501 -0.00000000000E+00  0.00000000000E+00  0.60727662790E+03  0.60727662790E+03  0.00000000000E+00 0.  1.
          1   -1    0    0  501    0  0.00000000000E+00 -0.00000000000E+00 -0.30497754390E+04  0.30497754390E+04  0.00000000000E+00 0. -1.
        -24    2    1    2    0    0 -0.54705846595E+03  0.11633509267E+04 -0.13558026897E+04  0.18700790276E+04  0.79600829849E+02 0.  0.
    5000000    2    1    2    0    0  0.54705846595E+03 -0.11633509267E+04 -0.10866961214E+04  0.17869730393E+04  0.59975481589E+03 0.  0.
        -24    2    4    4    0    0  0.38676901719E+03 -0.63256849320E+03 -0.95522218579E+03  0.12118089599E+04  0.79362205966E+02 0.  0.
         24    2    4    4    0    0  0.16028944876E+03 -0.53078243351E+03 -0.13147393558E+03  0.57516407945E+03  0.78138488882E+02 0.  0.
         13    1    3    3    0    0 -0.39379439927E+03  0.77586117491E+03 -0.95473294299E+03  0.12917234937E+04  0.00000000000E+00 0. -1.
        -14    1    3    3    0    0 -0.15326406668E+03  0.38748975180E+03 -0.40106974676E+03  0.57835553395E+03  0.00000000000E+00 0.  1.
         15    1    5    5    0    0  0.13887135879E+03 -0.22118250051E+03 -0.39943366544E+03  0.47723931485E+03  0.17770000000E+01 0. -1.
        -16    1    5    5    0    0  0.24789765840E+03 -0.41138599269E+03 -0.55578852035E+03  0.73456964501E+03  0.00000000000E+00 0.  1.
          2    1    6    6  502    0  0.18136487705E+02 -0.18750267582E+03 -0.42650027501E+02  0.19314556809E+03  0.00000000000E+00 0. -1.
         -1    1    6    6    0  502  0.14215296105E+03 -0.34327975769E+03 -0.88823908083E+02  0.38201851136E+03  0.00000000000E+00 0.  1.
<mgrwt>
<rscale>  0 0.12940887E+04</rscale>
<asrwt>0</asrwt>
<pdfrwt beam="1">  1        1 0.46919622E+00 0.12940887E+04</pdfrwt>
<pdfrwt beam="2">  1       -2 0.93427175E-01 0.12940887E+04</pdfrwt>
<totfact> 0.45902292E-01</totfact>
</mgrwt>
</event>
<event>
12    3  0.1182097E-007  0.4260039E+03  0.7818608E-02  0.1035130E+00
          1   -1    0    0  501    0  0.00000000000E+00  0.00000000000E+00  0.88529960545E+03  0.88529960545E+03  0.00000000000E+00 0. -1.
         -2   -1    0    0    0  501 -0.00000000000E+00 -0.00000000000E+00 -0.42086157000E+03  0.42086157000E+03  0.00000000000E+00 0.  1.
        -24    2    1    2    0    0 -0.55206003103E+02  0.22315398754E+03  0.59917589136E+03  0.64968073214E+03  0.10113308058E+03 0.  0.
    5000000    2    1    2    0    0  0.55206003103E+02 -0.22315398754E+03 -0.13473785592E+03  0.65648044331E+03  0.59997239744E+03 0.  0.
        -24    2    4    4    0    0 -0.52569542163E+02  0.17710825048E+03  0.30017591775E+02  0.20315444137E+03  0.78992291268E+02 0.  0.
         24    2    4    4    0    0  0.10777554527E+03 -0.40026223802E+03 -0.16475544769E+03  0.45332600194E+03  0.80837362312E+02 0.  0.
         11    1    3    3    0    0 -0.45323929467E+02  0.14378777460E+03  0.50021784880E+03  0.52244337393E+03  0.00000000000E+00 0. -1.
        -12    1    3    3    0    0 -0.98820736364E+01  0.79366212940E+02  0.98958042564E+02  0.12723735821E+03  0.00000000000E+00 0.  1.
         15    1    5    5    0    0  0.17112319528E+02  0.68151753986E+02 -0.40658145091E+00  0.70290938879E+02  0.17770000000E+01 0. -1.
        -16    1    5    5    0    0 -0.69681861691E+02  0.10895649650E+03  0.30424173226E+02  0.13286350249E+03  0.00000000000E+00 0.  1.
          2    1    6    6  502    0  0.44949559593E+02 -0.29982380862E+03 -0.12993688242E+03  0.32984598305E+03  0.00000000000E+00 0. -1.
         -1    1    6    6    0  502  0.62825985673E+02 -0.10043842940E+03 -0.34818565275E+02  0.12348001889E+03  0.00000000000E+00 0.  1.
<mgrwt>
<rscale>  0 0.42600394E+03</rscale>
<asrwt>0</asrwt>
<pdfrwt beam="1">  1        1 0.13619994E+00 0.42600394E+03</pdfrwt>
<pdfrwt beam="2">  1       -2 0.64747934E-01 0.42600394E+03</pdfrwt>
<totfact> 0.38288536E+01</totfact>
</mgrwt>
</event>
<event>
12    3  0.1394054E-007  0.1046047E+04  0.7818608E-02  0.9259434E-01
         -2   -1    0    0    0  501 -0.00000000000E+00  0.00000000000E+00  0.15256438210E+04  0.15256438210E+04  0.00000000000E+00 0.  1.
          1   -1    0    0  501    0  0.00000000000E+00 -0.00000000000E+00 -0.82752673582E+03  0.82752673582E+03  0.00000000000E+00 0. -1.
        -24    2    1    2    0    0 -0.25114527024E+03  0.10049811670E+04  0.44231968630E+03  0.11291254534E+04  0.78844731173E+02 0.  0.
    5000000    2    1    2    0    0  0.25114527024E+03 -0.10049811670E+04  0.25579739884E+03  0.12240451034E+04  0.59982748610E+03 0.  0.
        -24    2    4    4    0    0  0.12118151236E+03 -0.73215910861E+03  0.43519409275E+03  0.86402070199E+03  0.79974720066E+02 0.  0.
         24    2    4    4    0    0  0.12996375789E+03 -0.27282205844E+03 -0.17939669391E+03  0.36002440144E+03  0.78178909633E+02 0.  0.
         11    1    3    3    0    0 -0.13609677506E+03  0.64784854151E+03  0.31302227046E+03  0.73226566676E+03  0.00000000000E+00 0. -1.
        -12    1    3    3    0    0 -0.11504849519E+03  0.35713262554E+03  0.12929741584E+03  0.39685978659E+03  0.00000000000E+00 0.  1.
         15    1    5    5    0    0 -0.69260780280E+01 -0.10610884746E+03  0.78529466822E+02  0.13220095671E+03  0.17770000000E+01 0. -1.
        -16    1    5    5    0    0  0.12810759039E+03 -0.62605026115E+03  0.35666462593E+03  0.73181974528E+03  0.00000000000E+00 0.  1.
          2    1    6    6  502    0  0.42877819565E+02 -0.16730978863E+03 -0.12304438924E+03  0.21206365673E+03  0.00000000000E+00 0. -1.
         -1    1    6    6    0  502  0.87085938321E+02 -0.10551226980E+03 -0.56352304669E+02  0.14796074471E+03  0.00000000000E+00 0.  1.
<mgrwt>
<rscale>  0 0.10460473E+04</rscale>
<asrwt>0</asrwt>
<pdfrwt beam="1">  1        1 0.12731181E+00 0.10460473E+04</pdfrwt>
<pdfrwt beam="2">  1       -2 0.23471443E+00 0.10460473E+04</pdfrwt>
<totfact> 0.14571305E+00</totfact>
</mgrwt>
</event>
<event>
12    3  0.1182097E-007  0.4476086E+03  0.7818608E-02  0.1028438E+00
         -2   -1    0    0    0  501 -0.00000000000E+00  0.00000000000E+00  0.18458807370E+04  0.18458807370E+04  0.00000000000E+00 0.  1.
          1   -1    0    0  501    0  0.00000000000E+00 -0.00000000000E+00 -0.25399798834E+03  0.25399798834E+03  0.00000000000E+00 0. -1.
        -24    2    1    2    0    0 -0.14370614489E+03 -0.40156529660E+03  0.11781303569E+04  0.12555618345E+04  0.80859378352E+02 0.  0.
    5000000    2    1    2    0    0  0.14370614489E+03  0.40156529660E+03  0.41375239184E+03  0.84431689084E+03  0.59981149280E+03 0.  0.
        -24    2    4    4    0    0  0.91100990641E+02  0.98796865953E+02 -0.13737108518E+03  0.20841156135E+03  0.80649566905E+02 0.  0.
         24    2    4    4    0    0  0.52605154251E+02  0.30276843064E+03  0.55112347702E+03  0.63590532950E+03  0.78755801758E+02 0.  0.
         13    1    3    3    0    0 -0.11468104424E+03 -0.38119723172E+03  0.10628157902E+04  0.11349187086E+04  0.00000000000E+00 0. -1.
        -14    1    3    3    0    0 -0.29025100656E+02 -0.20368064874E+02  0.11531456667E+03  0.12064312587E+03  0.00000000000E+00 0.  1.
         15    1    5    5    0    0  0.32207550392E+02  0.73683905051E+02 -0.11551321945E+03  0.14075903439E+03  0.17770000000E+01 0. -1.
        -16    1    5    5    0    0  0.58893440249E+02  0.25112960902E+02 -0.21857865732E+02  0.67652526960E+02  0.00000000000E+00 0.  1.
          2    1    6    6  502    0 -0.10725906103E+02  0.16773930209E+03  0.29461337946E+03  0.33918809219E+03  0.00000000000E+00 0. -1.
         -1    1    6    6    0  502  0.63331060354E+02  0.13502912855E+03  0.25651009756E+03  0.29671723730E+03  0.00000000000E+00 0.  1.
<mgrwt>
<rscale>  0 0.44760859E+03</rscale>
<asrwt>0</asrwt>
<pdfrwt beam="1">  1        1 0.39076615E-01 0.44760859E+03</pdfrwt>
<pdfrwt beam="2">  1       -2 0.28398164E+00 0.44760859E+03</pdfrwt>
<totfact> 0.41401202E+00</totfact>
</mgrwt>
</event>
<event>
12    3  0.1182097E-007  0.1128453E+04  0.7818608E-02  0.9177895E-01
          1   -1    0    0  501    0  0.00000000000E+00  0.00000000000E+00  0.16695191968E+04  0.16695191968E+04  0.00000000000E+00 0. -1.
         -2   -1    0    0    0  501 -0.00000000000E+00 -0.00000000000E+00 -0.10689329272E+04  0.10689329272E+04  0.00000000000E+00 0.  1.
        -24    2    1    2    0    0  0.10061082482E+04  0.32454243047E+03 -0.43078878802E+03  0.11443255404E+04  0.79500731183E+02 0.  0.
    5000000    2    1    2    0    0 -0.10061082482E+04 -0.32454243047E+03  0.10313750576E+04  0.15941265835E+04  0.59993621219E+03 0.  0.
        -24    2    4    4    0    0 -0.12868772069E+03  0.14331351823E+03  0.10486442525E+03  0.23274574580E+03  0.77940621909E+02 0.  0.
         24    2    4    4    0    0 -0.87742052748E+03 -0.46785594870E+03  0.92651063237E+03  0.13613808377E+04  0.78612102866E+02 0.  0.
         13    1    3    3    0    0  0.93823714503E+03  0.30858047106E+03 -0.38085255691E+03  0.10585648386E+04  0.00000000000E+00 0. -1.
        -14    1    3    3    0    0  0.67871103129E+02  0.15961959411E+02 -0.49936231113E+02  0.85760701757E+02  0.00000000000E+00 0.  1.
         15    1    5    5    0    0 -0.35885282059E+02  0.92378877726E+02  0.69791929776E+02  0.12122574689E+03  0.17770000000E+01 0. -1.
        -16    1    5    5    0    0 -0.92802438629E+02  0.50934640504E+02  0.35072495471E+02  0.11151999891E+03  0.00000000000E+00 0.  1.
          2    1    6    6  502    0 -0.74373436142E+03 -0.40377703554E+03  0.82380400805E+03  0.11810291014E+04  0.00000000000E+00 0. -1.
         -1    1    6    6    0  502 -0.13368616606E+03 -0.64078913161E+02  0.10270662432E+03  0.18035173630E+03  0.00000000000E+00 0.  1.
<mgrwt>
<rscale>  0 0.11284530E+04</rscale>
<asrwt>0</asrwt>
<pdfrwt beam="1">  1        1 0.25684911E+00 0.11284530E+04</pdfrwt>
<pdfrwt beam="2">  1       -2 0.16445122E+00 0.11284530E+04</pdfrwt>
<totfact> 0.10077290E+00</totfact>
</mgrwt>
</event>
<event>
12    3  0.1622755E-007  0.1210600E+04  0.7818608E-02  0.9103629E-01
          1   -1    0    0  501    0  0.00000000000E+00  0.00000000000E+00  0.14947416124E+04  0.14947416124E+04  0.00000000000E+00 0. -1.
         -2   -1    0    0    0  501 -0.00000000000E+00 -0.00000000000E+00 -0.16397287521E+04  0.16397287521E+04  0.00000000000E+00 0.  1.
        -24    2    1    2    0    0  0.10212110171E+04  0.62356847631E+03 -0.98717310201E+03  0.15531794163E+04  0.78396300001E+02 0.  0.
    5000000    2    1    2    0    0 -0.10212110171E+04 -0.62356847631E+03  0.84218596239E+03  0.15812909482E+04  0.59957841991E+03 0.  0.
        -24    2    4    4    0    0 -0.93889472157E+03 -0.55305158104E+03  0.47692864322E+03  0.11921056799E+04  0.79155996241E+02 0.  0.
         24    2    4    4    0    0 -0.82316295483E+02 -0.70516895263E+02  0.36525731917E+03  0.38918526834E+03  0.79395584693E+02 0.  0.
         13    1    3    3    0    0  0.50940046955E+03  0.34076014224E+03 -0.46644800446E+03  0.77018183164E+03  0.00000000000E+00 0. -1.
        -14    1    3    3    0    0  0.51181054750E+03  0.28280833407E+03 -0.52072509755E+03  0.78299758465E+03  0.00000000000E+00 0.  1.
         15    1    5    5    0    0 -0.47110204832E+03 -0.31741175551E+03  0.26938304109E+03  0.62869527040E+03  0.17770000000E+01 0. -1.
        -16    1    5    5    0    0 -0.46779267325E+03 -0.23563982554E+03  0.20754560214E+03  0.56341040946E+03  0.00000000000E+00 0.  1.
          4    1    6    6  502    0 -0.53904852832E+02 -0.84374687921E+02  0.24101800501E+03  0.26098754732E+03  0.00000000000E+00 0. -1.
         -3    1    6    6    0  502 -0.28411442651E+02  0.13857792658E+02  0.12423931416E+03  0.12819772102E+03  0.00000000000E+00 0.  1.
<mgrwt>
<rscale>  0 0.12105996E+04</rscale>
<asrwt>0</asrwt>
<pdfrwt beam="1">  1        1 0.22996025E+00 0.12105996E+04</pdfrwt>
<pdfrwt beam="2">  1       -2 0.25226596E+00 0.12105996E+04</pdfrwt>
<totfact> 0.35081092E-01</totfact>
</mgrwt>
</event>
<event>
12    3  0.1182097E-007  0.6220630E+03  0.7818608E-02  0.9860661E-01
         -2   -1    0    0    0  501 -0.00000000000E+00  0.00000000000E+00  0.49703198946E+03  0.49703198946E+03  0.00000000000E+00 0.  1.
          1   -1    0    0  501    0  0.00000000000E+00 -0.00000000000E+00 -0.82076437462E+03  0.82076437462E+03  0.00000000000E+00 0. -1.
        -24    2    1    2    0    0 -0.46281424005E+03 -0.17110485660E+03 -0.13248950613E+03  0.51776468147E+03  0.83981565796E+02 0.  0.
    5000000    2    1    2    0    0  0.46281424005E+03  0.17110485660E+03 -0.19124287903E+03  0.80003168261E+03  0.60000246804E+03 0.  0.
        -24    2    4    4    0    0  0.57375651053E+03  0.22149092345E+03 -0.20815475058E+03  0.65446372009E+03  0.82095055701E+02 0.  0.
         24    2    4    4    0    0 -0.11094227048E+03 -0.50386066847E+02  0.16911871551E+02  0.14556796252E+03  0.77827226601E+02 0.  0.
         11    1    3    3    0    0 -0.11210606895E+03 -0.62969530727E+01 -0.41640367899E+02  0.11975534457E+03  0.00000000000E+00 0. -1.
        -12    1    3    3    0    0 -0.35070817110E+03 -0.16480790353E+03 -0.90849138227E+02  0.39800933690E+03  0.00000000000E+00 0.  1.
         15    1    5    5    0    0  0.33628804414E+03  0.17172727421E+03 -0.11762900679E+03  0.39549923679E+03  0.17770000000E+01 0. -1.
        -16    1    5    5    0    0  0.23746846640E+03  0.49763649240E+02 -0.90525743795E+02  0.25896448329E+03  0.00000000000E+00 0.  1.
          2    1    6    6  502    0 -0.71473633452E+02 -0.19758355647E+02 -0.27136810776E+02  0.78963785344E+02  0.00000000000E+00 0. -1.
         -1    1    6    6    0  502 -0.39468637031E+02 -0.30627711200E+02  0.44048682328E+02  0.66604177176E+02  0.00000000000E+00 0.  1.
<mgrwt>
<rscale>  0 0.62206296E+03</rscale>
<asrwt>0</asrwt>
<pdfrwt beam="1">  1        1 0.12627144E+00 0.62206296E+03</pdfrwt>
<pdfrwt beam="2">  1       -2 0.76466459E-01 0.62206296E+03</pdfrwt>
<totfact> 0.29394542E+01</totfact>
</mgrwt>
</event>
<event>
12    3  0.1182097E-007  0.9756987E+03  0.7818608E-02  0.9335607E-01
         -2   -1    0    0    0  501 -0.00000000000E+00  0.00000000000E+00  0.97515762247E+03  0.97515762247E+03  0.00000000000E+00 0.  1.
          1   -1    0    0  501    0  0.00000000000E+00 -0.00000000000E+00 -0.15594156672E+04  0.15594156672E+04  0.00000000000E+00 0. -1.
        -24    2    1    2    0    0  0.46000252485E+03 -0.82571971805E+03 -0.96391718507E+03  0.13523602612E+04  0.79539679864E+02 0.  0.
    5000000    2    1    2    0    0 -0.46000252485E+03  0.82571971805E+03  0.37965914030E+03  0.11822130286E+04  0.60005933576E+03 0.  0.
        -24    2    4    4    0    0 -0.34026982190E+03  0.27179535967E+03 -0.77245612629E+02  0.44990019358E+03  0.82383434493E+02 0.  0.
         24    2    4    4    0    0 -0.11973270294E+03  0.55392435838E+03  0.45690475293E+03  0.73231283497E+03  0.79699561225E+02 0.  0.
         11    1    3    3    0    0  0.41447200737E+03 -0.72114200517E+03 -0.81210315617E+03  0.11624733858E+04  0.00000000000E+00 0. -1.
        -12    1    3    3    0    0  0.45530517478E+02 -0.10457771287E+03 -0.15181402890E+03  0.18988687533E+03  0.00000000000E+00 0.  1.
         15    1    5    5    0    0 -0.28999289221E+03  0.22489911243E+03 -0.33729569618E+02  0.36853267141E+03  0.17770000000E+01 0. -1.
        -16    1    5    5    0    0 -0.50276929698E+02  0.46896247241E+02 -0.43516043011E+02  0.81367522172E+02  0.00000000000E+00 0.  1.
          4    1    6    6  502    0 -0.29245247865E+02  0.50626559729E+02  0.27705783587E+02  0.64698867972E+02  0.00000000000E+00 0. -1.
         -3    1    6    6    0  502 -0.90487455080E+02  0.50329779865E+03  0.42919896934E+03  0.66761396700E+03  0.00000000000E+00 0.  1.
<mgrwt>
<rscale>  0 0.97569871E+03</rscale>
<asrwt>0</asrwt>
<pdfrwt beam="1">  1        1 0.23991010E+00 0.97569871E+03</pdfrwt>
<pdfrwt beam="2">  1       -2 0.15002425E+00 0.97569871E+03</pdfrwt>
<totfact> 0.15664774E+00</totfact>
</mgrwt>
</event>
<event>
12    3  0.1182097E-007  0.5201818E+03  0.7818608E-02  0.1008641E+00
         -2   -1    0    0    0  501 -0.00000000000E+00  0.00000000000E+00  0.34477792866E+03  0.34477792866E+03  0.00000000000E+00 0.  1.
          1   -1    0    0  501    0  0.00000000000E+00 -0.00000000000E+00 -0.12119553244E+04  0.12119553244E+04  0.00000000000E+00 0. -1.
        -24    2    1    2    0    0 -0.37965522516E+03 -0.28714080237E+02  0.54633166195E+02  0.39288884627E+03  0.80089164554E+02 0.  0.
    5000000    2    1    2    0    0  0.37965522516E+03  0.28714080237E+02 -0.92181056189E+03  0.11638444067E+04  0.59986373678E+03 0.  0.
        -24    2    4    4    0    0  0.10389684998E+03  0.26129448244E+03 -0.20342238419E+03  0.35606903891E+03  0.79593543055E+02 0.  0.
         24    2    4    4    0    0  0.27575837518E+03 -0.23258040220E+03 -0.71838817770E+03  0.80777536783E+03  0.79266298294E+02 0.  0.
         13    1    3    3    0    0 -0.26907593402E+03 -0.54126955560E+02  0.24883795342E+02  0.27559170680E+03  0.00000000000E+00 0. -1.
        -14    1    3    3    0    0 -0.11057929114E+03  0.25412875323E+02  0.29749370853E+02  0.11729713947E+03  0.00000000000E+00 0.  1.
         15    1    5    5    0    0  0.73268960443E+02  0.13670385729E+03 -0.67511789258E+02  0.16916644047E+03  0.17770000000E+01 0. -1.
        -16    1    5    5    0    0  0.30627889539E+02  0.12459062515E+03 -0.13591059493E+03  0.18690259845E+03  0.00000000000E+00 0.  1.
          4    1    6    6  502    0  0.18807588090E+03 -0.10862202464E+03 -0.40601148847E+03  0.46045261426E+03  0.00000000000E+00 0. -1.
         -3    1    6    6    0  502  0.87682494282E+02 -0.12395837756E+03 -0.31237668923E+03  0.34732275357E+03  0.00000000000E+00 0.  1.
<mgrwt>
<rscale>  0 0.52018177E+03</rscale>
<asrwt>0</asrwt>
<pdfrwt beam="1">  1        1 0.18645467E+00 0.52018177E+03</pdfrwt>
<pdfrwt beam="2">  1       -2 0.53042758E-01 0.52018177E+03</pdfrwt>
<totfact> 0.32473804E+01</totfact>
</mgrwt>
</event>
<event>
12    3  0.1182097E-007  0.9659589E+03  0.7818608E-02  0.9346689E-01
         -2   -1    0    0    0  501 -0.00000000000E+00  0.00000000000E+00  0.14553101748E+04  0.14553101748E+04  0.00000000000E+00 0.  1.
          1   -1    0    0  501    0  0.00000000000E+00 -0.00000000000E+00 -0.10081191401E+04  0.10081191401E+04  0.00000000000E+00 0. -1.
        -24    2    1    2    0    0 -0.95912395694E+03  0.23810572206E+02  0.82783635567E+03  0.12695429468E+04  0.77074988835E+02 0.  0.
    5000000    2    1    2    0    0  0.95912395694E+03 -0.23810572206E+02 -0.38064532094E+03  0.11938863680E+04  0.59999007600E+03 0.  0.
        -24    2    4    4    0    0  0.41278698130E+03  0.53358367513E+02 -0.46608119237E+03  0.62982978850E+03  0.78826881777E+02 0.  0.
         24    2    4    4    0    0  0.54633697564E+03 -0.77168939718E+02  0.85435871422E+02  0.56405657954E+03  0.80133641991E+02 0.  0.
         13    1    3    3    0    0 -0.35490741888E+03 -0.28095089942E+02  0.31252521525E+03  0.47373053546E+03  0.00000000000E+00 0. -1.
        -14    1    3    3    0    0 -0.60421653807E+03  0.51905662148E+02  0.51531114042E+03  0.79581241136E+03  0.00000000000E+00 0.  1.
         15    1    5    5    0    0  0.21978808564E+03  0.45773869728E+02 -0.19755171146E+03  0.29905164466E+03  0.17770000000E+01 0. -1.
        -16    1    5    5    0    0  0.19299889566E+03  0.75844977844E+01 -0.26852948090E+03  0.33077814384E+03  0.00000000000E+00 0.  1.
          4    1    6    6  502    0  0.12474741857E+03 -0.14837615132E+02 -0.14097843315E+02  0.12641527775E+03  0.00000000000E+00 0. -1.
         -3    1    6    6    0  502  0.42158955708E+03 -0.62331324586E+02  0.99533714737E+02  0.43764130179E+03  0.00000000000E+00 0.  1.
<mgrwt>
<rscale>  0 0.96595886E+03</rscale>
<asrwt>0</asrwt>
<pdfrwt beam="1">  1        1 0.15509525E+00 0.96595886E+03</pdfrwt>
<pdfrwt beam="2">  1       -2 0.22389387E+00 0.96595886E+03</pdfrwt>
<totfact> 0.12246593E+00</totfact>
</mgrwt>
</event>
<event>
12    3  0.1182097E-007  0.6895797E+03  0.7818608E-02  0.9735220E-01
         -2   -1    0    0    0  501 -0.00000000000E+00  0.00000000000E+00  0.71806040527E+03  0.71806040527E+03  0.00000000000E+00 0.  1.
          1   -1    0    0  501    0  0.00000000000E+00 -0.00000000000E+00 -0.86467892750E+03  0.86467892750E+03  0.00000000000E+00 0. -1.
        -24    2    1    2    0    0 -0.64450056983E+03 -0.14997755235E+02 -0.24863026801E+03  0.69614756243E+03  0.84843982327E+02 0.  0.
    5000000    2    1    2    0    0  0.64450056983E+03  0.14997755235E+02  0.10201174578E+03  0.88659177033E+03  0.60002721086E+03 0.  0.
        -24    2    4    4    0    0  0.27410502071E+03  0.16728321186E+03 -0.19243662427E+03  0.38293759294E+03  0.80573633256E+02 0.  0.
         24    2    4    4    0    0  0.37039554912E+03 -0.15228545662E+03  0.29444837005E+03  0.50365417740E+03  0.81141633429E+02 0.  0.
         11    1    3    3    0    0 -0.40783444482E+03  0.35891076300E+01 -0.11512340264E+03  0.42378675523E+03  0.00000000000E+00 0. -1.
        -12    1    3    3    0    0 -0.23666612501E+03 -0.18586862865E+02 -0.13350686536E+03  0.27236080720E+03  0.00000000000E+00 0.  1.
         15    1    5    5    0    0  0.33282235660E+02  0.22870707119E+01 -0.44570137724E+02  0.55700922872E+02  0.17770000000E+01 0. -1.
        -16    1    5    5    0    0  0.24082278505E+03  0.16499614115E+03 -0.14786648655E+03  0.32723667006E+03  0.00000000000E+00 0.  1.
          4    1    6    6  502    0  0.21163871407E+03 -0.12972016131E+03  0.17570996721E+03  0.30412539868E+03  0.00000000000E+00 0. -1.
         -3    1    6    6    0  502  0.15875683505E+03 -0.22565295313E+02  0.11873840284E+03  0.19952877872E+03  0.00000000000E+00 0.  1.
<mgrwt>
<rscale>  0 0.68957971E+03</rscale>
<asrwt>0</asrwt>
<pdfrwt beam="1">  1        1 0.13302753E+00 0.68957971E+03</pdfrwt>
<pdfrwt beam="2">  1       -2 0.11047083E+00 0.68957971E+03</pdfrwt>
<totfact> 0.11420382E+01</totfact>
</mgrwt>
</event>
<event>
12    3  0.1182097E-007  0.5952843E+03  0.7818608E-02  0.9915238E-01
          1   -1    0    0  501    0  0.00000000000E+00  0.00000000000E+00  0.12219680978E+04  0.12219680978E+04  0.00000000000E+00 0. -1.
         -2   -1    0    0    0  501 -0.00000000000E+00 -0.00000000000E+00 -0.32293381744E+03  0.32293381744E+03  0.00000000000E+00 0.  1.
        -24    2    1    2    0    0  0.17298238456E+03  0.42781678076E+03  0.18263368863E+03  0.50271113725E+03  0.80083206839E+02 0.  0.
    5000000    2    1    2    0    0 -0.17298238456E+03 -0.42781678076E+03  0.71640059172E+03  0.10421907780E+04  0.59998475534E+03 0.  0.
        -24    2    4    4    0    0  0.19362824227E+03 -0.76660407440E+02  0.33201275744E+03  0.40033083125E+03  0.81630809604E+02 0.  0.
         24    2    4    4    0    0 -0.36661062683E+03 -0.35115637332E+03  0.38438783428E+03  0.64185994674E+03  0.80721954002E+02 0.  0.
         13    1    3    3    0    0  0.15702021447E+03  0.33204410098E+03  0.11687868698E+03  0.38544683189E+03  0.00000000000E+00 0. -1.
        -14    1    3    3    0    0  0.15962170085E+02  0.95772679785E+02  0.65755001655E+02  0.11726430535E+03  0.00000000000E+00 0.  1.
         15    1    5    5    0    0  0.15331392072E+03 -0.41229324865E+02  0.18478925304E+03  0.24362931122E+03  0.17770000000E+01 0. -1.
        -16    1    5    5    0    0  0.40314321545E+02 -0.35431082575E+02  0.14722350440E+03  0.15670152003E+03  0.00000000000E+00 0.  1.
          2    1    6    6  502    0 -0.31179543373E+02 -0.67846975882E+02  0.48299986774E+02  0.88928425060E+02  0.00000000000E+00 0. -1.
         -1    1    6    6    0  502 -0.33543108345E+03 -0.28330939744E+03  0.33608784750E+03  0.55293152168E+03  0.00000000000E+00 0.  1.
<mgrwt>
<rscale>  0 0.59528429E+03</rscale>
<asrwt>0</asrwt>
<pdfrwt beam="1">  1        1 0.18799509E+00 0.59528429E+03</pdfrwt>
<pdfrwt beam="2">  1       -2 0.49682126E-01 0.59528429E+03</pdfrwt>
<totfact> 0.36119995E+01</totfact>
</mgrwt>
</event>
<event>
12    3  0.1182097E-007  0.9038420E+03  0.7818608E-02  0.9420791E-01
         -2   -1    0    0    0  501 -0.00000000000E+00  0.00000000000E+00  0.38507216185E+03  0.38507216185E+03  0.00000000000E+00 0.  1.
          1   -1    0    0  501    0  0.00000000000E+00 -0.00000000000E+00 -0.23380311927E+04  0.23380311927E+04  0.00000000000E+00 0. -1.
        -24    2    1    2    0    0  0.72821868900E+03 -0.34805139410E+03 -0.48915125364E+03  0.94712835974E+03  0.79630075576E+02 0.  0.
    5000000    2    1    2    0    0 -0.72821868900E+03  0.34805139410E+03 -0.14638077772E+04  0.17759749948E+04  0.59992644682E+03 0.  0.
        -24    2    4    4    0    0 -0.81058471298E+03  0.35260279235E+03 -0.12333585337E+04  0.15195989712E+04  0.81433743418E+02 0.  0.
         24    2    4    4    0    0  0.82366023978E+02 -0.45513982504E+01 -0.23044924349E+03  0.25637602357E+03  0.76268830494E+02 0.  0.
         11    1    3    3    0    0  0.26131591006E+03 -0.16203427685E+03 -0.16334250473E+03  0.34816933464E+03  0.00000000000E+00 0. -1.
        -12    1    3    3    0    0  0.46690277894E+03 -0.18601711725E+03 -0.32580874891E+03  0.59895902511E+03  0.00000000000E+00 0.  1.
         15    1    5    5    0    0 -0.56842509428E+03  0.22179536582E+03 -0.89938187528E+03  0.10868261993E+04  0.17770000000E+01 0. -1.
        -16    1    5    5    0    0 -0.24215961871E+03  0.13080742653E+03 -0.33397665839E+03  0.43277277192E+03  0.00000000000E+00 0.  1.
          4    1    6    6  502    0  0.36499746271E+02  0.35801275075E+02 -0.11114334454E+03  0.12233889737E+03  0.00000000000E+00 0. -1.
         -3    1    6    6    0  502  0.45866277708E+02 -0.40352673326E+02 -0.11930589896E+03  0.13403712620E+03  0.00000000000E+00 0.  1.
<mgrwt>
<rscale>  0 0.90384199E+03</rscale>
<asrwt>0</asrwt>
<pdfrwt beam="1">  1        1 0.35969710E+00 0.90384199E+03</pdfrwt>
<pdfrwt beam="2">  1       -2 0.59241872E-01 0.90384199E+03</pdfrwt>
<totfact> 0.42031684E+00</totfact>
</mgrwt>
</event>
<event>
12    3  0.1182097E-007  0.8328544E+03  0.7818608E-02  0.9513643E-01
         -2   -1    0    0    0  501 -0.00000000000E+00  0.00000000000E+00  0.35543428512E+03  0.35543428512E+03  0.00000000000E+00 0.  1.
          1   -1    0    0  501    0  0.00000000000E+00 -0.00000000000E+00 -0.20821131159E+04  0.20821131159E+04  0.00000000000E+00 0. -1.
        -24    2    1    2    0    0 -0.70022255528E+03  0.22361322703E+03 -0.99317549409E+03  0.12382189651E+04  0.80462048474E+02 0.  0.
    5000000    2    1    2    0    0  0.70022255528E+03 -0.22361322703E+03 -0.73350333673E+03  0.11993284360E+04  0.60003920714E+03 0.  0.
        -24    2    4    4    0    0  0.45930984029E+03  0.14227804198E+03 -0.49201497245E+03  0.69261687674E+03  0.80192482242E+02 0.  0.
         24    2    4    4    0    0  0.24091271499E+03 -0.36589126901E+03 -0.24148836427E+03  0.50671155922E+03  0.80775102567E+02 0.  0.
         11    1    3    3    0    0 -0.43764293817E+03  0.10959978431E+03 -0.56233551717E+03  0.72094707706E+03  0.00000000000E+00 0. -1.
        -12    1    3    3    0    0 -0.26257961711E+03  0.11401344272E+03 -0.43083997692E+03  0.51727188804E+03  0.00000000000E+00 0.  1.
         15    1    5    5    0    0  0.40095132136E+03  0.10447292765E+03 -0.44844990415E+03  0.61056287880E+03  0.17770000000E+01 0. -1.
        -16    1    5    5    0    0  0.58358518935E+02  0.37805114324E+02 -0.43565068308E+02  0.82053997940E+02  0.00000000000E+00 0.  1.
          2    1    6    6  502    0  0.15007921576E+03 -0.15999129466E+03 -0.10177935242E+03  0.24182642939E+03  0.00000000000E+00 0. -1.
         -1    1    6    6    0  502  0.90833499229E+02 -0.20589997434E+03 -0.13970901185E+03  0.26488512984E+03  0.00000000000E+00 0.  1.
<mgrwt>
<rscale>  0 0.83285440E+03</rscale>
<asrwt>0</asrwt>
<pdfrwt beam="1">  1        1 0.32032510E+00 0.83285440E+03</pdfrwt>
<pdfrwt beam="2">  1       -2 0.54682197E-01 0.83285440E+03</pdfrwt>
<totfact> 0.74690393E+00</totfact>
</mgrwt>
</event>
<event>
12    3  0.2416213E-007  0.2031364E+04  0.7818608E-02  0.8592096E-01
         -2   -1    0    0    0  501 -0.00000000000E+00  0.00000000000E+00  0.20401333816E+04  0.20401333816E+04  0.00000000000E+00 0.  1.
          1   -1    0    0  501    0  0.00000000000E+00 -0.00000000000E+00 -0.21583246604E+04  0.21583246604E+04  0.00000000000E+00 0. -1.
        -24    2    1    2    0    0 -0.12748873338E+04 -0.15463607817E+04  0.39532505071E+03  0.20443260746E+04  0.80111314654E+02 0.  0.
    5000000    2    1    2    0    0  0.12748873338E+04  0.15463607817E+04 -0.51351632950E+03  0.21541319674E+04  0.60001344278E+03 0.  0.
        -24    2    4    4    0    0  0.50137058423E+03  0.29878708902E+03  0.21517759871E+02  0.58958970355E+03  0.80664845155E+02 0.  0.
         24    2    4    4    0    0  0.77351674954E+03  0.12475736927E+04 -0.53503408937E+03  0.15645422639E+04  0.82235869524E+02 0.  0.
         11    1    3    3    0    0 -0.79117986456E+03 -0.89813835669E+03  0.23959029621E+03  0.12206644076E+04  0.00000000000E+00 0. -1.
        -12    1    3    3    0    0 -0.48370746922E+03 -0.64822242501E+03  0.15573475450E+03  0.82366166708E+03  0.00000000000E+00 0.  1.
         15    1    5    5    0    0  0.31000876548E+03  0.22856724452E+03  0.21265481900E+02  0.38575095384E+03  0.17770000000E+01 0. -1.
        -16    1    5    5    0    0  0.19136181875E+03  0.70219844500E+02  0.25227797031E+00  0.20383874971E+03  0.00000000000E+00 0.  1.
          4    1    6    6  502    0  0.35950206638E+03  0.56472208445E+03 -0.20130273843E+03  0.69905333195E+03  0.00000000000E+00 0. -1.
         -3    1    6    6    0  502  0.41401468316E+03  0.68285160822E+03 -0.33373135094E+03  0.86548893195E+03  0.00000000000E+00 0.  1.
<mgrwt>
<rscale>  0 0.20313639E+04</rscale>
<asrwt>0</asrwt>
<pdfrwt beam="1">  1        1 0.33204995E+00 0.20313639E+04</pdfrwt>
<pdfrwt beam="2">  1       -2 0.31386667E+00 0.20313639E+04</pdfrwt>
<totfact> 0.47209032E-02</totfact>
</mgrwt>
</event>
<event>
12    3  0.1182097E-007  0.8927169E+03  0.7818608E-02  0.9434732E-01
          1   -1    0    0  501    0  0.00000000000E+00  0.00000000000E+00  0.77168287517E+03  0.77168287517E+03  0.00000000000E+00 0. -1.
         -2   -1    0    0    0  501 -0.00000000000E+00 -0.00000000000E+00 -0.11528575862E+04  0.11528575862E+04  0.00000000000E+00 0.  1.
        -24    2    1    2    0    0  0.84247432737E+03  0.56756853827E+02 -0.12263868621E+03  0.85697119505E+03  0.79843904303E+02 0.  0.
    5000000    2    1    2    0    0 -0.84247432737E+03 -0.56756853827E+02 -0.25853602486E+03  0.10675692664E+04  0.59989909951E+03 0.  0.
        -24    2    4    4    0    0  0.19419579681E+02 -0.43376104666E+02  0.94474344793E+02  0.13297617885E+03  0.80614240599E+02 0.  0.
         24    2    4    4    0    0 -0.86189390705E+03 -0.13380749161E+02 -0.35301036965E+03  0.93459308751E+03  0.76208704716E+02 0.  0.
         11    1    3    3    0    0  0.26036783558E+03  0.73555369276E+01 -0.73849897026E+02  0.27073847348E+03  0.00000000000E+00 0. -1.
        -12    1    3    3    0    0  0.58210649179E+03  0.49401316899E+02 -0.48788789181E+02  0.58623272157E+03  0.00000000000E+00 0.  1.
         15    1    5    5    0    0  0.39740876472E+02 -0.17901152813E+02  0.90089472918E+02  0.10009525161E+03  0.17770000000E+01 0. -1.
        -16    1    5    5    0    0 -0.20321296791E+02 -0.25474951853E+02  0.43848718752E+01  0.32880927245E+02  0.00000000000E+00 0.  1.
          2    1    6    6  502    0 -0.52000835819E+03  0.24437052686E+02 -0.23224577697E+03  0.57003856278E+03  0.00000000000E+00 0. -1.
         -3    1    6    6    0  502 -0.34188554885E+03 -0.37817801847E+02 -0.12076459269E+03  0.36455452473E+03  0.00000000000E+00 0.  1.
<mgrwt>
<rscale>  0 0.89271688E+03</rscale>
<asrwt>0</asrwt>
<pdfrwt beam="1">  1        1 0.11872044E+00 0.89271688E+03</pdfrwt>
<pdfrwt beam="2">  1       -2 0.17736271E+00 0.89271688E+03</pdfrwt>
<totfact> 0.39102943E+00</totfact>
</mgrwt>
</event>
<event>
12    3  0.1182097E-007  0.1519477E+04  0.7818608E-02  0.8871603E-01
         -2   -1    0    0    0  501 -0.00000000000E+00  0.00000000000E+00  0.84123258007E+03  0.84123258007E+03  0.00000000000E+00 0.  1.
          1   -1    0    0  501    0  0.00000000000E+00 -0.00000000000E+00 -0.30382165540E+04  0.30382165540E+04  0.00000000000E+00 0. -1.
        -24    2    1    2    0    0  0.67455866556E+03  0.13024262618E+04 -0.16351709217E+04  0.21980361569E+04  0.78964822147E+02 0.  0.
    5000000    2    1    2    0    0 -0.67455866556E+03 -0.13024262618E+04 -0.56181305226E+03  0.16814129772E+04  0.60014342725E+03 0.  0.
        -24    2    4    4    0    0 -0.57603805434E+03 -0.49760905067E+03 -0.33492070843E+03  0.83549276977E+03  0.80260077499E+02 0.  0.
         24    2    4    4    0    0 -0.98520611223E+02 -0.80481721117E+03 -0.22689234382E+03  0.84592020740E+03  0.81632146665E+02 0.  0.
         11    1    3    3    0    0  0.45214007469E+03  0.88135769363E+03 -0.10484351772E+04  0.14423724734E+04  0.00000000000E+00 0. -1.
        -12    1    3    3    0    0  0.22241859087E+03  0.42106856821E+03 -0.58673574451E+03  0.75566368351E+03  0.00000000000E+00 0.  1.
         15    1    5    5    0    0 -0.12252915400E+03 -0.11385685729E+03 -0.38868643562E+02  0.17172858443E+03  0.17770000000E+01 0. -1.
        -16    1    5    5    0    0 -0.45350890034E+03 -0.38375219339E+03 -0.29605206487E+03  0.66376418533E+03  0.00000000000E+00 0.  1.
          2    1    6    6  502    0 -0.48747606588E+02 -0.40925234894E+03 -0.72970817769E+02  0.41855531833E+03  0.00000000000E+00 0. -1.
         -1    1    6    6    0  502 -0.49773004636E+02 -0.39556486223E+03 -0.15392152606E+03  0.42736488907E+03  0.00000000000E+00 0.  1.
<mgrwt>
<rscale>  0 0.15194773E+04</rscale>
<asrwt>0</asrwt>
<pdfrwt beam="1">  1        1 0.46741793E+00 0.15194773E+04</pdfrwt>
<pdfrwt beam="2">  1       -2 0.12942040E+00 0.15194773E+04</pdfrwt>
<totfact> 0.20518898E-01</totfact>
</mgrwt>
</event>
<event>
12    3  0.1182097E-007  0.1360417E+04  0.7818608E-02  0.8982980E-01
         -2   -1    0    0    0  501 -0.00000000000E+00  0.00000000000E+00  0.18680332548E+04  0.18680332548E+04  0.00000000000E+00 0.  1.
          1   -1    0    0  501    0  0.00000000000E+00 -0.00000000000E+00 -0.20148190307E+04  0.20148190307E+04  0.00000000000E+00 0. -1.
        -24    2    1    2    0    0 -0.56665001412E+01  0.13071630316E+04 -0.14416357379E+04  0.19476490131E+04  0.79471862623E+02 0.  0.
    5000000    2    1    2    0    0  0.56665001412E+01 -0.13071630316E+04  0.12948499620E+04  0.19352032724E+04  0.59972325354E+03 0.  0.
        -24    2    4    4    0    0 -0.13213042820E+02 -0.13325515683E+04  0.11193856133E+04  0.17422149663E+04  0.80128463622E+02 0.  0.
         24    2    4    4    0    0  0.18879542961E+02  0.25388536756E+02  0.17546434871E+03  0.19298830607E+03  0.73862938411E+02 0.  0.
         13    1    3    3    0    0  0.21297704939E+02  0.70799208420E+03 -0.82691187502E+03  0.10888019253E+04  0.00000000000E+00 0. -1.
        -14    1    3    3    0    0 -0.26964205080E+02  0.59917094737E+03 -0.61472386290E+03  0.85884708776E+03  0.00000000000E+00 0.  1.
         15    1    5    5    0    0 -0.42255352891E+02 -0.10761245127E+04  0.90425039504E+03  0.14062366146E+04  0.17770000000E+01 0. -1.
        -16    1    5    5    0    0  0.29042310071E+02 -0.25642705565E+03  0.21513521829E+03  0.33597835167E+03  0.00000000000E+00 0.  1.
          4    1    6    6  502    0  0.77755122610E+01  0.50063809447E+02  0.13607165990E+03  0.14519759032E+03  0.00000000000E+00 0. -1.
         -3    1    6    6    0  502  0.11104030700E+02 -0.24675272691E+02  0.39392688815E+02  0.47790715754E+02  0.00000000000E+00 0.  1.
<mgrwt>
<rscale>  0 0.13604170E+04</rscale>
<asrwt>0</asrwt>
<pdfrwt beam="1">  1        1 0.30997216E+00 0.13604170E+04</pdfrwt>
<pdfrwt beam="2">  1       -2 0.28738973E+00 0.13604170E+04</pdfrwt>
<totfact> 0.92804406E-02</totfact>
</mgrwt>
</event>
<event>
12    3  0.1182097E-007  0.1055913E+04  0.7818608E-02  0.9249261E-01
          1   -1    0    0  501    0  0.00000000000E+00  0.00000000000E+00  0.72532437861E+03  0.72532437861E+03  0.00000000000E+00 0. -1.
         -2   -1    0    0    0  501 -0.00000000000E+00 -0.00000000000E+00 -0.17026602483E+04  0.17026602483E+04  0.00000000000E+00 0.  1.
        -24    2    1    2    0    0 -0.35113247704E+03 -0.96583277763E+03 -0.49388454295E+03  0.11435060002E+04  0.86931351828E+02 0.  0.
    5000000    2    1    2    0    0  0.35113247704E+03  0.96583277763E+03 -0.48345132674E+03  0.12844786267E+04  0.60002765469E+03 0.  0.
        -24    2    4    4    0    0  0.28811012094E+03  0.35264104436E+03 -0.47475324406E+03  0.66265371375E+03  0.79725489319E+02 0.  0.
         24    2    4    4    0    0  0.63022356095E+02  0.61319173327E+03 -0.86980826796E+01  0.62182491297E+03  0.81330477832E+02 0.  0.
         13    1    3    3    0    0 -0.27490585334E+03 -0.67919399591E+03 -0.31866740499E+03  0.79901603694E+03  0.00000000000E+00 0. -1.
        -14    1    3    3    0    0 -0.76226623693E+02 -0.28663878172E+03 -0.17521713796E+03  0.34448996325E+03  0.00000000000E+00 0.  1.
         15    1    5    5    0    0  0.86391522394E+02  0.16655019370E+03 -0.18276047751E+03  0.26192940277E+03  0.17770000000E+01 0. -1.
        -16    1    5    5    0    0  0.20171859855E+03  0.18609085066E+03 -0.29199276654E+03  0.40072431098E+03  0.00000000000E+00 0.  1.
          4    1    6    6  502    0 -0.84137183455E+00  0.33496210644E+03 -0.24999635534E+02  0.33589477882E+03  0.00000000000E+00 0. -1.
         -3    1    6    6    0  502  0.63863727929E+02  0.27822962683E+03  0.16301552855E+02  0.28593013415E+03  0.00000000000E+00 0.  1.
<mgrwt>
<rscale>  0 0.10559129E+04</rscale>
<asrwt>0</asrwt>
<pdfrwt beam="1">  1        1 0.11158837E+00 0.10559129E+04</pdfrwt>
<pdfrwt beam="2">  1       -2 0.26194773E+00 0.10559129E+04</pdfrwt>
<totfact> 0.12228453E+00</totfact>
</mgrwt>
</event>
<event>
12    3  0.1182097E-007  0.4892133E+03  0.7818608E-02  0.1016633E+00
          1   -1    0    0  501    0  0.00000000000E+00  0.00000000000E+00  0.91176121336E+03  0.91176121336E+03  0.00000000000E+00 0. -1.
         -2   -1    0    0    0  501 -0.00000000000E+00 -0.00000000000E+00 -0.58320331928E+03  0.58320331928E+03  0.00000000000E+00 0.  1.
        -24    2    1    2    0    0  0.21818174921E+03 -0.38697613656E+03 -0.28045421037E+03  0.53149711043E+03  0.80503467778E+02 0.  0.
    5000000    2    1    2    0    0 -0.21818174921E+03  0.38697613656E+03  0.60901210445E+03  0.96346742221E+03  0.60001660338E+03 0.  0.
        -24    2    4    4    0    0 -0.26941408502E+03  0.36394284429E+03  0.69369860276E+03  0.83218805106E+03  0.79251862718E+02 0.  0.
         24    2    4    4    0    0  0.51232335806E+02  0.23033292277E+02 -0.84686498317E+02  0.13127937114E+03  0.83109479032E+02 0.  0.
         11    1    3    3    0    0  0.61476354754E+02 -0.11983761735E+03 -0.43490483123E+02  0.14153380814E+03  0.00000000000E+00 0. -1.
        -12    1    3    3    0    0  0.15670539446E+03 -0.26713851922E+03 -0.23696372724E+03  0.38996330229E+03  0.00000000000E+00 0.  1.
         15    1    5    5    0    0 -0.25658282957E+03  0.34894804643E+03  0.68538195150E+03  0.81077189437E+03  0.17770000000E+01 0. -1.
        -16    1    5    5    0    0 -0.12831255453E+02  0.14994797855E+02  0.83166512676E+01  0.21416156694E+02  0.00000000000E+00 0.  1.
          2    1    6    6  502    0  0.53774615627E+01 -0.18518911812E+02 -0.62716198465E+02  0.65613937068E+02  0.00000000000E+00 0. -1.
         -1    1    6    6    0  502  0.45854874244E+02  0.41552204090E+02 -0.21970299852E+02  0.65665434074E+02  0.00000000000E+00 0.  1.
<mgrwt>
<rscale>  0 0.48921328E+03</rscale>
<asrwt>0</asrwt>
<pdfrwt beam="1">  1        1 0.14027096E+00 0.48921328E+03</pdfrwt>
<pdfrwt beam="2">  1       -2 0.89723587E-01 0.48921328E+03</pdfrwt>
<totfact> 0.17560334E+01</totfact>
</mgrwt>
</event>
<event>
12    3  0.1182097E-007  0.1304297E+04  0.7818608E-02  0.9026164E-01
          1   -1    0    0  501    0  0.00000000000E+00  0.00000000000E+00  0.34022682753E+04  0.34022682753E+04  0.00000000000E+00 0. -1.
         -2   -1    0    0    0  501 -0.00000000000E+00 -0.00000000000E+00 -0.79034400729E+03  0.79034400729E+03  0.00000000000E+00 0.  1.
        -24    2    1    2    0    0  0.11422418242E+04  0.59069715068E+03  0.24451138579E+04  0.27636649744E+04  0.74985357673E+02 0.  0.
    5000000    2    1    2    0    0 -0.11422418242E+04 -0.59069715068E+03  0.16681041011E+03  0.14289473082E+04  0.60035421868E+03 0.  0.
        -24    2    4    4    0    0 -0.32359925259E+03 -0.32657407464E+03  0.29996914813E+03  0.55487839452E+03  0.80879171477E+02 0.  0.
         24    2    4    4    0    0 -0.81864257161E+03 -0.26412307605E+03 -0.13315873802E+03  0.87406891367E+03  0.79552227953E+02 0.  0.
         11    1    3    3    0    0  0.48608779480E+03  0.21114255175E+03  0.98641758072E+03  0.11197687998E+04  0.00000000000E+00 0. -1.
        -12    1    3    3    0    0  0.65615402940E+03  0.37955459894E+03  0.14586962772E+04  0.16438961747E+04  0.00000000000E+00 0.  1.
         15    1    5    5    0    0 -0.76285584849E+02 -0.76497477192E+02  0.11383354840E+03  0.15694772678E+03  0.17770000000E+01 0. -1.
        -16    1    5    5    0    0 -0.24731366774E+03 -0.25007659745E+03  0.18613559973E+03  0.39793066774E+03  0.00000000000E+00 0.  1.
          4    1    6    6  502    0 -0.48158920738E+03 -0.13806442525E+03 -0.11345328747E+03  0.51367460383E+03  0.00000000000E+00 0. -1.
         -3    1    6    6    0  502 -0.33705336423E+03 -0.12605865079E+03 -0.19705450557E+02  0.36039430984E+03  0.00000000000E+00 0.  1.
<mgrwt>
<rscale>  0 0.13042973E+04</rscale>
<asrwt>0</asrwt>
<pdfrwt beam="1">  1        1 0.52342588E+00 0.13042973E+04</pdfrwt>
<pdfrwt beam="2">  1       -2 0.12159139E+00 0.13042973E+04</pdfrwt>
<totfact> 0.13181040E-01</totfact>
</mgrwt>
</event>
<event>
12    3  0.1182097E-007  0.1411769E+04  0.7818608E-02  0.8945343E-01
         -2   -1    0    0    0  501 -0.00000000000E+00  0.00000000000E+00  0.94273178533E+03  0.94273178533E+03  0.00000000000E+00 0.  1.
          1   -1    0    0  501    0  0.00000000000E+00 -0.00000000000E+00 -0.23123270895E+04  0.23123270895E+04  0.00000000000E+00 0. -1.
        -24    2    1    2    0    0 -0.13956995394E+04 -0.14075777791E+03 -0.85591613747E+03  0.16451509551E+04  0.78353521459E+02 0.  0.
    5000000    2    1    2    0    0  0.13956995394E+04  0.14075777791E+03 -0.51367916673E+03  0.16099079198E+04  0.60012271039E+03 0.  0.
        -24    2    4    4    0    0  0.10534247541E+04  0.15612588124E+03 -0.62565598478E+03  0.12376914592E+04  0.79722854390E+02 0.  0.
         24    2    4    4    0    0  0.34227478530E+03 -0.15368103331E+02  0.11197681805E+03  0.37221646060E+03  0.92833606548E+02 0.  0.
         13    1    3    3    0    0 -0.86089561678E+03 -0.11390673067E+03 -0.56075899965E+03  0.10337149810E+04  0.00000000000E+00 0. -1.
        -14    1    3    3    0    0 -0.53480392261E+03 -0.26851047243E+02 -0.29515713781E+03  0.61143597407E+03  0.00000000000E+00 0.  1.
         15    1    5    5    0    0  0.35427232320E+03  0.17748043297E+02 -0.19061061158E+03  0.40269024697E+03  0.17770000000E+01 0. -1.
        -16    1    5    5    0    0  0.69915243088E+03  0.13837783795E+03 -0.43504537320E+03  0.83500121221E+03  0.00000000000E+00 0.  1.
          2    1    6    6  502    0  0.22350886701E+03  0.29127402949E+02  0.49213998256E+02  0.23070898739E+03  0.00000000000E+00 0. -1.
         -1    1    6    6    0  502  0.11876591829E+03 -0.44495506280E+02  0.62762819793E+02  0.14150747321E+03  0.00000000000E+00 0.  1.
<mgrwt>
<rscale>  0 0.14117691E+04</rscale>
<asrwt>0</asrwt>
<pdfrwt beam="1">  1        1 0.35574263E+00 0.14117691E+04</pdfrwt>
<pdfrwt beam="2">  1       -2 0.14503566E+00 0.14117691E+04</pdfrwt>
<totfact> 0.50129346E-01</totfact>
</mgrwt>
</event>
<event>
12    3  0.1182097E-007  0.9992481E+03  0.7818608E-02  0.9309370E-01
         -2   -1    0    0    0  501 -0.00000000000E+00  0.00000000000E+00  0.50486920144E+03  0.50486920144E+03  0.00000000000E+00 0.  1.
          1   -1    0    0  501    0  0.00000000000E+00 -0.00000000000E+00 -0.21294482922E+04  0.21294482922E+04  0.00000000000E+00 0. -1.
        -24    2    1    2    0    0  0.39047564548E+03  0.83168817844E+03 -0.10442588126E+04  0.13929089043E+04  0.74446572292E+02 0.  0.
    5000000    2    1    2    0    0 -0.39047564548E+03 -0.83168817844E+03 -0.58032027813E+03  0.12414085893E+04  0.60012265793E+03 0.  0.
        -24    2    4    4    0    0 -0.47860152600E+03 -0.38034144555E+03 -0.23065686973E+03  0.65828550509E+03  0.80113536673E+02 0.  0.
         24    2    4    4    0    0  0.88125880513E+02 -0.45134673289E+03 -0.34966340840E+03  0.58312308424E+03  0.79296835347E+02 0.  0.
         11    1    3    3    0    0  0.10556111059E+03  0.18711179038E+03 -0.28631628819E+03  0.35795388957E+03  0.00000000000E+00 0. -1.
        -12    1    3    3    0    0  0.28491453489E+03  0.64457638806E+03 -0.75794252445E+03  0.10349550148E+04  0.00000000000E+00 0.  1.
         15    1    5    5    0    0 -0.33060710354E+03 -0.23201995806E+03 -0.18290093372E+03  0.44338496494E+03  0.17770000000E+01 0. -1.
        -16    1    5    5    0    0 -0.14799442246E+03 -0.14832148749E+03 -0.47755936012E+02  0.21490054015E+03  0.00000000000E+00 0.  1.
          4    1    6    6  502    0  0.78142785336E+02 -0.21206404869E+03 -0.14923571026E+03  0.27082974885E+03  0.00000000000E+00 0. -1.
         -3    1    6    6    0  502  0.99830951771E+01 -0.23928268419E+03 -0.20042769814E+03  0.31229333538E+03  0.00000000000E+00 0.  1.
<mgrwt>
<rscale>  0 0.99924814E+03</rscale>
<asrwt>0</asrwt>
<pdfrwt beam="1">  1        1 0.32760743E+00 0.99924814E+03</pdfrwt>
<pdfrwt beam="2">  1       -2 0.77672185E-01 0.99924814E+03</pdfrwt>
<totfact> 0.31852803E+00</totfact>
</mgrwt>
</event>
<event>
12    3  0.1182097E-007  0.1124317E+04  0.7818608E-02  0.9181809E-01
          1   -1    0    0  501    0  0.00000000000E+00  0.00000000000E+00  0.19901708700E+04  0.19901708700E+04  0.00000000000E+00 0. -1.
         -2   -1    0    0    0  501 -0.00000000000E+00 -0.00000000000E+00 -0.66419962442E+03  0.66419962442E+03  0.00000000000E+00 0.  1.
        -24    2    1    2    0    0  0.27494933820E+02  0.10616741845E+04  0.46770710852E+03  0.11628848263E+04  0.75120799505E+02 0.  0.
    5000000    2    1    2    0    0 -0.27494933820E+02 -0.10616741845E+04  0.85826413708E+03  0.14914856682E+04  0.60000343670E+03 0.  0.
        -24    2    4    4    0    0 -0.23582310560E+03 -0.85453263850E+03  0.49913215729E+03  0.10205526726E+04  0.80970857156E+02 0.  0.
         24    2    4    4    0    0  0.20832817178E+03 -0.20714154595E+03  0.35913197980E+03  0.47093299557E+03  0.80584491009E+02 0.  0.
         13    1    3    3    0    0  0.21421689406E+02  0.90638766488E+02  0.51125003486E+02  0.10624519165E+03  0.00000000000E+00 0. -1.
        -14    1    3    3    0    0  0.60732444146E+01  0.97103541796E+03  0.41658210504E+03  0.10566396346E+04  0.00000000000E+00 0.  1.
         15    1    5    5    0    0 -0.15055278737E+03 -0.41211455700E+03  0.22399271578E+03  0.49262606948E+03  0.17770000000E+01 0. -1.
        -16    1    5    5    0    0 -0.85270318232E+02 -0.44241808150E+03  0.27513944150E+03  0.52792660312E+03  0.00000000000E+00 0.  1.
          2    1    6    6  502    0  0.12272429299E+03 -0.10225540660E+03  0.13529387716E+03  0.20933669880E+03  0.00000000000E+00 0. -1.
         -1    1    6    6    0  502  0.85603878790E+02 -0.10488613935E+03  0.22383810264E+03  0.26159629677E+03  0.00000000000E+00 0.  1.
<mgrwt>
<rscale>  0 0.11243173E+04</rscale>
<asrwt>0</asrwt>
<pdfrwt beam="1">  1        1 0.30618013E+00 0.11243173E+04</pdfrwt>
<pdfrwt beam="2">  1       -2 0.10218456E+00 0.11243173E+04</pdfrwt>
<totfact> 0.20640357E+00</totfact>
</mgrwt>
</event>
<event>
12    3  0.1182097E-007  0.1023375E+04  0.7818608E-02  0.9283272E-01
          1   -1    0    0  501    0  0.00000000000E+00  0.00000000000E+00  0.15608594475E+04  0.15608594475E+04  0.00000000000E+00 0. -1.
         -2   -1    0    0    0  501 -0.00000000000E+00 -0.00000000000E+00 -0.84092640605E+03  0.84092640605E+03  0.00000000000E+00 0.  1.
        -24    2    1    2    0    0  0.81939848361E+03 -0.59337149518E+03  0.68602745006E+03  0.12250741873E+04  0.81666981926E+02 0.  0.
    5000000    2    1    2    0    0 -0.81939848361E+03  0.59337149518E+03  0.33905591359E+02  0.11767116662E+04  0.59999762504E+03 0.  0.
        -24    2    4    4    0    0 -0.14467455943E+03  0.19400034091E+03 -0.23171457624E+03  0.34474947386E+03  0.81201566895E+02 0.  0.
         24    2    4    4    0    0 -0.67472392417E+03  0.39937115427E+03  0.26562016760E+03  0.83196219236E+03  0.82808957008E+02 0.  0.
         11    1    3    3    0    0  0.32322056521E+03 -0.18597282597E+03  0.24520703067E+03  0.44630025058E+03  0.00000000000E+00 0. -1.
        -12    1    3    3    0    0  0.49617791840E+03 -0.40739866921E+03  0.44082041939E+03  0.77877393673E+03  0.00000000000E+00 0.  1.
         15    1    5    5    0    0 -0.31901530693E+02  0.24715920839E+02 -0.84496009916E+02  0.93655313914E+02  0.17770000000E+01 0. -1.
        -16    1    5    5    0    0 -0.11277302874E+03  0.16928442007E+03 -0.14721856632E+03  0.25109415995E+03  0.00000000000E+00 0.  1.
          2    1    6    6  502    0 -0.37841702174E+03  0.17810445302E+03  0.15383785818E+03  0.44563070489E+03  0.00000000000E+00 0. -1.
         -1    1    6    6    0  502 -0.29630690243E+03  0.22126670125E+03  0.11178230941E+03  0.38633148746E+03  0.00000000000E+00 0.  1.
<mgrwt>
<rscale>  0 0.10233752E+04</rscale>
<asrwt>0</asrwt>
<pdfrwt beam="1">  1        1 0.24013222E+00 0.10233752E+04</pdfrwt>
<pdfrwt beam="2">  1       -2 0.12937329E+00 0.10233752E+04</pdfrwt>
<totfact> 0.22823772E+00</totfact>
</mgrwt>
</event>
<event>
12    3  0.1385735E-007  0.6909724E+03  0.7818608E-02  0.9732796E-01
         -2   -1    0    0    0  501 -0.00000000000E+00  0.00000000000E+00  0.56752343784E+03  0.56752343784E+03  0.00000000000E+00 0.  1.
          1   -1    0    0  501    0  0.00000000000E+00 -0.00000000000E+00 -0.10843573178E+04  0.10843573178E+04  0.00000000000E+00 0. -1.
        -24    2    1    2    0    0  0.22970621175E+03  0.62358098661E+03 -0.15615657367E+03  0.68652774393E+03  0.72919662040E+02 0.  0.
    5000000    2    1    2    0    0 -0.22970621175E+03 -0.62358098661E+03 -0.36067730626E+03  0.96535301167E+03  0.60016674959E+03 0.  0.
        -24    2    4    4    0    0 -0.17101342090E+03 -0.13269133636E+03 -0.40224283906E+03  0.46337211565E+03  0.77857787738E+02 0.  0.
         24    2    4    4    0    0 -0.58692790848E+02 -0.49088965024E+03  0.41565532805E+02  0.50198089602E+03  0.76417498210E+02 0.  0.
         11    1    3    3    0    0  0.93747167162E+02  0.21758795985E+03 -0.89256652757E+02  0.25317938637E+03  0.00000000000E+00 0. -1.
        -12    1    3    3    0    0  0.13595904459E+03  0.40599302676E+03 -0.66899920915E+02  0.43334835756E+03  0.00000000000E+00 0.  1.
         15    1    5    5    0    0 -0.10139038745E+03 -0.72871320763E+02 -0.15134943177E+03  0.19621429174E+03  0.17770000000E+01 0. -1.
        -16    1    5    5    0    0 -0.69623033448E+02 -0.59820015601E+02 -0.25089340729E+03  0.26715782391E+03  0.00000000000E+00 0.  1.
          4    1    6    6  502    0 -0.61493800711E+02 -0.19868418525E+03  0.13606534342E+02  0.20842751922E+03  0.00000000000E+00 0. -1.
         -3    1    6    6    0  502  0.28010098632E+01 -0.29220546500E+03  0.27958998464E+02  0.29355337679E+03  0.00000000000E+00 0.  1.
<mgrwt>
<rscale>  0 0.69097244E+03</rscale>
<asrwt>0</asrwt>
<pdfrwt beam="1">  1        1 0.16682420E+00 0.69097244E+03</pdfrwt>
<pdfrwt beam="2">  1       -2 0.87311298E-01 0.69097244E+03</pdfrwt>
<totfact> 0.13366025E+01</totfact>
</mgrwt>
</event>
<event>
12    3  0.1182097E-007  0.1890621E+04  0.7818608E-02  0.8659539E-01
          1   -1    0    0  501    0  0.00000000000E+00  0.00000000000E+00  0.38543232792E+04  0.38543232792E+04  0.00000000000E+00 0. -1.
         -2   -1    0    0    0  501 -0.00000000000E+00 -0.00000000000E+00 -0.96771857227E+03  0.96771857227E+03  0.00000000000E+00 0.  1.
        -24    2    1    2    0    0  0.95963142824E+03  0.15757318357E+04  0.18842916459E+04  0.26383697840E+04  0.81343801857E+02 0.  0.
    5000000    2    1    2    0    0 -0.95963142824E+03 -0.15757318357E+04  0.10023130610E+04  0.21836720675E+04  0.59997410761E+03 0.  0.
        -24    2    4    4    0    0  0.54239146501E+02 -0.24504030337E+03  0.16621991141E+03  0.31161560225E+03  0.80551780394E+02 0.  0.
         24    2    4    4    0    0 -0.10138705747E+04 -0.13306915323E+04  0.83609314960E+03  0.18720564652E+04  0.82886413737E+02 0.  0.
         13    1    3    3    0    0  0.57316582339E+03  0.94869651318E+03  0.11882993291E+04  0.16249921325E+04  0.00000000000E+00 0. -1.
        -14    1    3    3    0    0  0.38646560486E+03  0.62703532254E+03  0.69599231673E+03  0.10133776514E+04  0.00000000000E+00 0.  1.
         15    1    5    5    0    0  0.64599411901E+02 -0.12405528997E+03  0.10925566901E+03  0.17749016290E+03  0.17770000000E+01 0. -1.
        -16    1    5    5    0    0 -0.10360265400E+02 -0.12098501340E+03  0.56964242403E+02  0.13412543935E+03  0.00000000000E+00 0.  1.
          2    1    6    6  502    0 -0.82983290092E+03 -0.11390343410E+04  0.70245050967E+03  0.15746296682E+04  0.00000000000E+00 0. -1.
         -1    1    6    6    0  502 -0.18403767383E+03 -0.19165719133E+03  0.13364263993E+03  0.29742679702E+03  0.00000000000E+00 0.  1.
<mgrwt>
<rscale>  0 0.18906214E+04</rscale>
<asrwt>0</asrwt>
<pdfrwt beam="1">  1        1 0.59297281E+00 0.18906214E+04</pdfrwt>
<pdfrwt beam="2">  1       -2 0.14887978E+00 0.18906214E+04</pdfrwt>
<totfact> 0.31396283E-02</totfact>
</mgrwt>
</event>
<event>
12    3  0.1182097E-007  0.5020031E+03  0.7818608E-02  0.1013257E+00
          1   -1    0    0  501    0  0.00000000000E+00  0.00000000000E+00  0.47925000635E+03  0.47925000635E+03  0.00000000000E+00 0. -1.
         -2   -1    0    0    0  501 -0.00000000000E+00 -0.00000000000E+00 -0.78785917727E+03  0.78785917727E+03  0.00000000000E+00 0.  1.
        -24    2    1    2    0    0 -0.46291715326E+03 -0.13803137410E+02 -0.10003077223E+03  0.48093344325E+03  0.82510629939E+02 0.  0.
    5000000    2    1    2    0    0  0.46291715326E+03  0.13803137410E+02 -0.20857839868E+03  0.78617574038E+03  0.60007043668E+03 0.  0.
        -24    2    4    4    0    0  0.17998047284E+03 -0.10711141114E+03 -0.36806361923E+03  0.43076316989E+03  0.78868597880E+02 0.  0.
         24    2    4    4    0    0  0.28293668042E+03  0.12091454855E+03  0.15948522055E+03  0.35541257048E+03  0.78797630070E+02 0.  0.
         11    1    3    3    0    0 -0.26289680033E+03  0.28370099889E+02 -0.75870839540E+02  0.27509266526E+03  0.00000000000E+00 0. -1.
        -12    1    3    3    0    0 -0.20002035293E+03 -0.42173237299E+02 -0.24159932695E+02  0.20584077798E+03  0.00000000000E+00 0.  1.
         15    1    5    5    0    0  0.16427639144E+03 -0.62845126063E+02 -0.27354089477E+03  0.32521380889E+03  0.17770000000E+01 0. -1.
        -16    1    5    5    0    0  0.15704081403E+02 -0.44266285079E+02 -0.94522724468E+02  0.10554936100E+03  0.00000000000E+00 0.  1.
          4    1    6    6  502    0  0.28134634524E+03  0.12503800058E+03  0.14509108557E+03  0.34035524188E+03  0.00000000000E+00 0. -1.
         -3    1    6    6    0  502  0.15903351815E+01 -0.41234520250E+01  0.14394134984E+02  0.15057328599E+02  0.00000000000E+00 0.  1.
<mgrwt>
<rscale>  0 0.50200315E+03</rscale>
<asrwt>0</asrwt>
<pdfrwt beam="1">  1        1 0.73730772E-01 0.50200315E+03</pdfrwt>
<pdfrwt beam="2">  1       -2 0.12120910E+00 0.50200315E+03</pdfrwt>
<totfact> 0.22218624E+01</totfact>
</mgrwt>
</event>
<event>
12    3  0.1182097E-007  0.4123639E+03  0.7818608E-02  0.1039581E+00
          1   -1    0    0  501    0  0.00000000000E+00  0.00000000000E+00  0.32149557950E+03  0.32149557950E+03  0.00000000000E+00 0. -1.
         -2   -1    0    0    0  501 -0.00000000000E+00 -0.00000000000E+00 -0.80301048796E+03  0.80301048796E+03  0.00000000000E+00 0.  1.
        -24    2    1    2    0    0 -0.36481220447E+02 -0.28631559387E+03  0.50980975507E+01  0.29963863632E+03  0.80310790268E+02 0.  0.
    5000000    2    1    2    0    0  0.36481220447E+02  0.28631559387E+03 -0.48661300601E+03  0.82486743115E+03  0.60025541447E+03 0.  0.
        -24    2    4    4    0    0 -0.10603645961E+03 -0.62064818201E+02 -0.40559773944E+03  0.43082998647E+03  0.77518891737E+02 0.  0.
         24    2    4    4    0    0  0.14251768006E+03  0.34838041208E+03 -0.81015266576E+02  0.39403744468E+03  0.83796382636E+02 0.  0.
         11    1    3    3    0    0 -0.60993867932E+02 -0.16722524566E+03  0.20352148316E+01  0.17801313662E+03  0.00000000000E+00 0. -1.
        -12    1    3    3    0    0  0.24512647485E+02 -0.11909034822E+03  0.30628827192E+01  0.12162549969E+03  0.00000000000E+00 0.  1.
         15    1    5    5    0    0  0.10186107062E+02 -0.42595941397E+01 -0.12103515807E+02  0.16478887803E+02  0.17770000000E+01 0. -1.
        -16    1    5    5    0    0 -0.11622256668E+03 -0.57805224061E+02 -0.39349422363E+03  0.41435109867E+03  0.00000000000E+00 0.  1.
          2    1    6    6  502    0  0.81757575532E+02  0.10376719053E+03 -0.44272634504E+02  0.13932694339E+03  0.00000000000E+00 0. -1.
         -1    1    6    6    0  502  0.60760104529E+02  0.24461322154E+03 -0.36742632071E+02  0.25471050129E+03  0.00000000000E+00 0.  1.
<mgrwt>
<rscale>  0 0.41236390E+03</rscale>
<asrwt>0</asrwt>
<pdfrwt beam="1">  1        1 0.49460858E-01 0.41236390E+03</pdfrwt>
<pdfrwt beam="2">  1       -2 0.12354008E+00 0.41236390E+03</pdfrwt>
<totfact> 0.36137285E+01</totfact>
</mgrwt>
</event>
<event>
12    3  0.1182097E-007  0.8896583E+03  0.7818608E-02  0.9438602E-01
          1   -1    0    0  501    0  0.00000000000E+00  0.00000000000E+00  0.16060710507E+04  0.16060710507E+04  0.00000000000E+00 0. -1.
         -2   -1    0    0    0  501 -0.00000000000E+00 -0.00000000000E+00 -0.64957892254E+03  0.64957892254E+03  0.00000000000E+00 0.  1.
        -24    2    1    2    0    0  0.54697652853E+03 -0.64877567101E+03  0.13692045147E+02  0.85242691069E+03  0.79692985316E+02 0.  0.
    5000000    2    1    2    0    0 -0.54697652853E+03  0.64877567101E+03  0.94280008305E+03  0.14032230626E+04  0.60005814111E+03 0.  0.
        -24    2    4    4    0    0 -0.52158174933E+03  0.38401471545E+03  0.91442761796E+03  0.11233659360E+04  0.79109637781E+02 0.  0.
         24    2    4    4    0    0 -0.25394779198E+02  0.26476095555E+03  0.28372465093E+02  0.27985712657E+03  0.82290680646E+02 0.  0.
         13    1    3    3    0    0  0.43736091367E+03 -0.49835017434E+03 -0.19620705486E+02  0.66334187049E+03  0.00000000000E+00 0. -1.
        -14    1    3    3    0    0  0.10961561486E+03 -0.15042549667E+03  0.33312750633E+02  0.18908504019E+03  0.00000000000E+00 0.  1.
         15    1    5    5    0    0 -0.43484025601E+03  0.35381267326E+03  0.78017596636E+03  0.96070138556E+03  0.17770000000E+01 0. -1.
        -16    1    5    5    0    0 -0.86741493324E+02  0.30202042190E+02  0.13425165160E+03  0.16266455046E+03  0.00000000000E+00 0.  1.
          4    1    6    6  502    0 -0.52674168547E+02  0.13137610554E+03  0.24563924375E+02  0.14365805066E+03  0.00000000000E+00 0. -1.
         -3    1    6    6    0  502  0.27279389349E+02  0.13338485002E+03  0.38085407174E+01  0.13619907591E+03  0.00000000000E+00 0.  1.
<mgrwt>
<rscale>  0 0.88965827E+03</rscale>
<asrwt>0</asrwt>
<pdfrwt beam="1">  1        1 0.24708785E+00 0.88965827E+03</pdfrwt>
<pdfrwt beam="2">  1       -2 0.99935219E-01 0.88965827E+03</pdfrwt>
<totfact> 0.40729667E+00</totfact>
</mgrwt>
</event>
<event>
12    3  0.1182097E-007  0.3738404E+03  0.7818608E-02  0.1053234E+00
          1   -1    0    0  501    0  0.00000000000E+00  0.00000000000E+00  0.99141641709E+03  0.99141641709E+03  0.00000000000E+00 0. -1.
         -2   -1    0    0    0  501 -0.00000000000E+00 -0.00000000000E+00 -0.18565939928E+03  0.18565939928E+03  0.00000000000E+00 0.  1.
        -24    2    1    2    0    0  0.98313692377E+02 -0.81004987166E+02  0.43567349876E+03  0.46073045859E+03  0.78954213931E+02 0.  0.
    5000000    2    1    2    0    0 -0.98313692377E+02  0.81004987166E+02  0.37008351905E+03  0.71634535778E+03  0.59996789121E+03 0.  0.
        -24    2    4    4    0    0  0.23944294706E+03  0.12775767399E+02  0.10478894497E+03  0.27420911551E+03  0.81937603766E+02 0.  0.
         24    2    4    4    0    0 -0.33775663943E+03  0.68229219767E+02  0.26529457408E+03  0.44213624227E+03  0.79802705353E+02 0.  0.
         13    1    3    3    0    0  0.34970124381E+02 -0.76244243233E+02  0.20570321136E+03  0.22214838597E+03  0.00000000000E+00 0. -1.
        -14    1    3    3    0    0  0.63343567996E+02 -0.47607439328E+01  0.22997028740E+03  0.23858207262E+03  0.00000000000E+00 0.  1.
         15    1    5    5    0    0  0.64711094736E+02  0.39476494201E+02  0.21519265366E+02  0.78817230903E+02  0.17770000000E+01 0. -1.
        -16    1    5    5    0    0  0.17473185232E+03 -0.26700726802E+02  0.83269679609E+02  0.19539188461E+03  0.00000000000E+00 0.  1.
          2    1    6    6  502    0 -0.73134661373E+02  0.34724912447E+02  0.29642136733E+02  0.86215743973E+02  0.00000000000E+00 0. -1.
         -1    1    6    6    0  502 -0.26462197806E+03  0.33504307319E+02  0.23565243734E+03  0.35592049830E+03  0.00000000000E+00 0.  1.
<mgrwt>
<rscale>  0 0.37384044E+03</rscale>
<asrwt>0</asrwt>
<pdfrwt beam="1">  1        1 0.15252560E+00 0.37384044E+03</pdfrwt>
<pdfrwt beam="2">  1       -2 0.28562985E-01 0.37384044E+03</pdfrwt>
<totfact> 0.15876842E+02</totfact>
</mgrwt>
</event>
<event>
12    3  0.1182097E-007  0.6627237E+03  0.7818608E-02  0.9783193E-01
          1   -1    0    0  501    0  0.00000000000E+00  0.00000000000E+00  0.13171504413E+04  0.13171504413E+04  0.00000000000E+00 0. -1.
         -2   -1    0    0    0  501 -0.00000000000E+00 -0.00000000000E+00 -0.17601333148E+04  0.17601333148E+04  0.00000000000E+00 0.  1.
        -24    2    1    2    0    0 -0.13702568379E+03 -0.55622859219E+03 -0.15727101807E+04  0.16757337130E+04  0.80621830984E+02 0.  0.
    5000000    2    1    2    0    0  0.13702568379E+03  0.55622859219E+03  0.11297273072E+04  0.14015500430E+04  0.59991036810E+03 0.  0.
        -24    2    4    4    0    0 -0.19527667045E+02 -0.67398701482E+02  0.65547770164E+01  0.10545401184E+03  0.78445323443E+02 0.  0.
         24    2    4    4    0    0  0.15655335084E+03  0.62362729367E+03  0.11231725302E+04  0.12960960312E+04  0.70202823881E+02 0.  0.
         13    1    3    3    0    0 -0.13289273896E+02 -0.19799017403E+03 -0.58956445987E+03  0.62206347438E+03  0.00000000000E+00 0. -1.
        -14    1    3    3    0    0 -0.12373640990E+03 -0.35823841816E+03 -0.98314572083E+03  0.10536702386E+04  0.00000000000E+00 0.  1.
         15    1    5    5    0    0  0.19330523869E+02 -0.61053143410E+02  0.13503686050E+02  0.65472610603E+02  0.17770000000E+01 0. -1.
        -16    1    5    5    0    0 -0.38858190913E+02 -0.63455580728E+01 -0.69489090332E+01  0.39981401239E+02  0.00000000000E+00 0.  1.
          2    1    6    6  502    0  0.34476127704E+02  0.75322135843E+02  0.18336254008E+03  0.20120598559E+03  0.00000000000E+00 0. -1.
         -1    1    6    6    0  502  0.12207722313E+03  0.54830515783E+03  0.93980999008E+03  0.10948900456E+04  0.00000000000E+00 0.  1.
<mgrwt>
<rscale>  0 0.66272372E+03</rscale>
<asrwt>0</asrwt>
<pdfrwt beam="1">  1        1 0.20263853E+00 0.66272372E+03</pdfrwt>
<pdfrwt beam="2">  1       -2 0.27078974E+00 0.66272372E+03</pdfrwt>
<totfact> 0.39695969E-01</totfact>
</mgrwt>
</event>
<event>
12    3  0.1182097E-007  0.1070167E+04  0.7818608E-02  0.9234767E-01
         -2   -1    0    0    0  501 -0.00000000000E+00  0.00000000000E+00  0.89612403376E+03  0.89612403376E+03  0.00000000000E+00 0.  1.
          1   -1    0    0  501    0  0.00000000000E+00 -0.00000000000E+00 -0.17087679897E+04  0.17087679897E+04  0.00000000000E+00 0. -1.
        -24    2    1    2    0    0  0.69636686652E+03 -0.77463241786E+03  0.16224855630E+03  0.10571702888E+04  0.79386584909E+02 0.  0.
    5000000    2    1    2    0    0 -0.69636686652E+03  0.77463241786E+03 -0.97489251225E+03  0.15477217347E+04  0.60003746720E+03 0.  0.
        -24    2    4    4    0    0 -0.66973397135E+03  0.58438520970E+03 -0.48522702592E+03  0.10157908280E+04  0.79599458897E+02 0.  0.
         24    2    4    4    0    0 -0.26632895169E+02  0.19024720816E+03 -0.48966548632E+03  0.53193090671E+03  0.79214201334E+02 0.  0.
         13    1    3    3    0    0  0.27585222775E+03 -0.29290985399E+03  0.24797004263E+02  0.40311974094E+03  0.00000000000E+00 0. -1.
        -14    1    3    3    0    0  0.42051463877E+03 -0.48172256387E+03  0.13745155203E+03  0.65405054783E+03  0.00000000000E+00 0.  1.
         15    1    5    5    0    0 -0.18787632458E+03  0.11913341292E+03 -0.12830530403E+03  0.25681840313E+03  0.17770000000E+01 0. -1.
        -16    1    5    5    0    0 -0.48185764677E+03  0.46525179677E+03 -0.35692172189E+03  0.75897242487E+03  0.00000000000E+00 0.  1.
          2    1    6    6  502    0 -0.46675835719E+02  0.17486474901E+03 -0.40554265831E+03  0.44409589257E+03  0.00000000000E+00 0. -1.
         -1    1    6    6    0  502  0.20042940550E+02  0.15382459151E+02 -0.84122828017E+02  0.87835014140E+02  0.00000000000E+00 0.  1.
<mgrwt>
<rscale>  0 0.10701674E+04</rscale>
<asrwt>0</asrwt>
<pdfrwt beam="1">  1        1 0.26288738E+00 0.10701674E+04</pdfrwt>
<pdfrwt beam="2">  1       -2 0.13786524E+00 0.10701674E+04</pdfrwt>
<totfact> 0.15286440E+00</totfact>
</mgrwt>
</event>
<event>
12    3  0.1182097E-007  0.5988377E+03  0.7818608E-02  0.9907820E-01
          1   -1    0    0  501    0  0.00000000000E+00  0.00000000000E+00  0.12642923728E+04  0.12642923728E+04  0.00000000000E+00 0. -1.
         -2   -1    0    0    0  501 -0.00000000000E+00 -0.00000000000E+00 -0.64320802094E+03  0.64320802094E+03  0.00000000000E+00 0.  1.
        -24    2    1    2    0    0 -0.90878975815E+02 -0.45594181047E+03 -0.41153306959E+03  0.62597658361E+03  0.79657347904E+02 0.  0.
    5000000    2    1    2    0    0  0.90878975815E+02  0.45594181047E+03  0.10326174214E+04  0.12815238101E+04  0.59988550080E+03 0.  0.
        -24    2    4    4    0    0 -0.23869660681E+03  0.15616290075E+03  0.30969746087E+03  0.42860666162E+03  0.80176252373E+02 0.  0.
         24    2    4    4    0    0  0.32957558262E+03  0.29977890972E+03  0.72291996058E+03  0.85291714850E+03  0.79793066367E+02 0.  0.
         13    1    3    3    0    0 -0.32720645736E+02 -0.14236685162E+03 -0.82581419011E+02  0.16780539879E+03  0.00000000000E+00 0. -1.
        -14    1    3    3    0    0 -0.58158330080E+02 -0.31357495886E+03 -0.32895165058E+03  0.45817118482E+03  0.00000000000E+00 0.  1.
         15    1    5    5    0    0 -0.18722805558E+03  0.13725216604E+03  0.28730563311E+03  0.36937810767E+03  0.17770000000E+01 0. -1.
        -16    1    5    5    0    0 -0.51468551228E+02  0.18910734713E+02  0.22391827757E+02  0.59228553952E+02  0.00000000000E+00 0.  1.
          4    1    6    6  502    0  0.56322486595E+02  0.57590070869E+02  0.19543686178E+03  0.21138686265E+03  0.00000000000E+00 0. -1.
         -1    1    6    6    0  502  0.27325309603E+03  0.24218883885E+03  0.52748309880E+03  0.64153028586E+03  0.00000000000E+00 0.  1.
<mgrwt>
<rscale>  0 0.59883774E+03</rscale>
<asrwt>0</asrwt>
<pdfrwt beam="1">  1        1 0.19450652E+00 0.59883774E+03</pdfrwt>
<pdfrwt beam="2">  1       -2 0.98955081E-01 0.59883774E+03</pdfrwt>
<totfact> 0.74981448E+00</totfact>
</mgrwt>
</event>
<event>
12    3  0.1182097E-007  0.6325863E+03  0.7818608E-02  0.9840015E-01
          1   -1    0    0  501    0  0.00000000000E+00  0.00000000000E+00  0.23446591540E+04  0.23446591540E+04  0.00000000000E+00 0. -1.
         -2   -1    0    0    0  501 -0.00000000000E+00 -0.00000000000E+00 -0.19263468858E+03  0.19263468858E+03  0.00000000000E+00 0.  1.
        -24    2    1    2    0    0 -0.47710409326E+03 -0.23969873887E+03  0.81702649114E+03  0.97933425548E+03  0.80495313514E+02 0.  0.
    5000000    2    1    2    0    0  0.47710409326E+03  0.23969873887E+03  0.13349979743E+04  0.15579595871E+04  0.59994556626E+03 0.  0.
        -24    2    4    4    0    0 -0.73395213378E+02 -0.54881040418E+02  0.48648066477E+02  0.12597960314E+03  0.71452362395E+02 0.  0.
         24    2    4    4    0    0  0.55049930664E+03  0.29457977929E+03  0.12863499078E+04  0.14319799840E+04  0.77742241845E+02 0.  0.
         11    1    3    3    0    0 -0.39694427018E+03 -0.23048875582E+03  0.68356010735E+03  0.82337369436E+03  0.00000000000E+00 0. -1.
        -12    1    3    3    0    0 -0.80159823081E+02 -0.92099830534E+01  0.13346638379E+03  0.15596056112E+03  0.00000000000E+00 0.  1.
         15    1    5    5    0    0 -0.29273369156E+02 -0.31557158895E+01 -0.14786014939E+02  0.32995039799E+02  0.17770000000E+01 0. -1.
        -16    1    5    5    0    0 -0.44121844221E+02 -0.51725324529E+02  0.63434081416E+02  0.92984563343E+02  0.00000000000E+00 0.  1.
          4    1    6    6  502    0  0.42792911646E+03  0.25965386858E+03  0.98839991985E+03  0.11079159994E+04  0.00000000000E+00 0. -1.
         -3    1    6    6    0  502  0.12257019018E+03  0.34925910707E+02  0.29794998798E+03  0.32406398457E+03  0.00000000000E+00 0.  1.
<mgrwt>
<rscale>  0 0.63258635E+03</rscale>
<asrwt>0</asrwt>
<pdfrwt beam="1">  1        1 0.36071677E+00 0.63258635E+03</pdfrwt>
<pdfrwt beam="2">  1       -2 0.29636108E-01 0.63258635E+03</pdfrwt>
<totfact> 0.16997880E+01</totfact>
</mgrwt>
</event>
<event>
12    3  0.1182097E-007  0.4566792E+03  0.7818608E-02  0.1025749E+00
         -2   -1    0    0    0  501 -0.00000000000E+00  0.00000000000E+00  0.79340425094E+02  0.79340425094E+02  0.00000000000E+00 0.  1.
          1   -1    0    0  501    0  0.00000000000E+00 -0.00000000000E+00 -0.38020928202E+04  0.38020928202E+04  0.00000000000E+00 0. -1.
        -24    2    1    2    0    0 -0.22162029291E+03  0.26404270726E+03 -0.18785706054E+04  0.19117049066E+04  0.82182875270E+02 0.  0.
    5000000    2    1    2    0    0  0.22162029291E+03 -0.26404270726E+03 -0.18441817897E+04  0.19697283387E+04  0.59999095765E+03 0.  0.
        -24    2    4    4    0    0  0.43464481500E+02 -0.34861096107E+03 -0.54597133173E+03  0.65410904773E+03  0.79719432514E+02 0.  0.
         24    2    4    4    0    0  0.17815581141E+03  0.84568253810E+02 -0.12982104580E+04  0.13156192910E+04  0.81316928447E+02 0.  0.
         13    1    3    3    0    0 -0.27960617928E+02  0.34109188877E+02 -0.43083777130E+03  0.43308938812E+03  0.00000000000E+00 0. -1.
        -14    1    3    3    0    0 -0.19365967498E+03  0.22993351838E+03 -0.14477328341E+04  0.14786155185E+04  0.00000000000E+00 0.  1.
         15    1    5    5    0    0  0.25808493633E+02 -0.32968412875E+03 -0.52640751419E+03  0.62166368063E+03  0.17770000000E+01 0. -1.
        -16    1    5    5    0    0  0.17655987867E+02 -0.18926832319E+02 -0.19563817535E+02  0.32445367092E+02  0.00000000000E+00 0.  1.
          4    1    6    6  502    0  0.71968023061E+02  0.77298141070E+02 -0.71815834096E+03  0.72588277404E+03  0.00000000000E+00 0. -1.
         -3    1    6    6    0  502  0.10618778834E+03  0.72701127402E+01 -0.58005211702E+03  0.58973651692E+03  0.00000000000E+00 0.  1.
<mgrwt>
<rscale>  0 0.45667925E+03</rscale>
<asrwt>0</asrwt>
<pdfrwt beam="1">  1        1 0.58493745E+00 0.45667925E+03</pdfrwt>
<pdfrwt beam="2">  1       -2 0.12206217E-01 0.45667925E+03</pdfrwt>
<totfact> 0.71913643E+00</totfact>
</mgrwt>
</event>
<event>
12    3  0.1182097E-007  0.8468773E+03  0.7818608E-02  0.9494538E-01
         -2   -1    0    0    0  501 -0.00000000000E+00  0.00000000000E+00  0.21498809241E+04  0.21498809241E+04  0.00000000000E+00 0.  1.
          1   -1    0    0  501    0  0.00000000000E+00 -0.00000000000E+00 -0.44678216033E+03  0.44678216033E+03  0.00000000000E+00 0. -1.
        -24    2    1    2    0    0  0.74497782020E+03 -0.90976060805E+02  0.13976899538E+04  0.15884433519E+04  0.79664792055E+02 0.  0.
    5000000    2    1    2    0    0 -0.74497782020E+03  0.90976060805E+02  0.30540880997E+03  0.10082197325E+04  0.59996990889E+03 0.  0.
        -24    2    4    4    0    0 -0.18905752946E+03  0.28930905315E+03  0.65574128969E+02  0.36618509672E+03  0.10173043295E+03 0.  0.
         24    2    4    4    0    0 -0.55592029074E+03 -0.19833299234E+03  0.23983468100E+03  0.64203463579E+03  0.79400590861E+02 0.  0.
         13    1    3    3    0    0  0.26492289049E+03  0.15103230898E+01  0.45431917927E+03  0.52592046512E+03  0.00000000000E+00 0. -1.
        -14    1    3    3    0    0  0.48005492972E+03 -0.92486383895E+02  0.94337077452E+03  0.10625228868E+04  0.00000000000E+00 0.  1.
         15    1    5    5    0    0 -0.85610042066E+01  0.32804647684E+02 -0.22108413888E+02  0.40513891400E+02  0.17770000000E+01 0. -1.
        -16    1    5    5    0    0 -0.18049652525E+03  0.25650440546E+03  0.87682542856E+02  0.32567120532E+03  0.00000000000E+00 0.  1.
          4    1    6    6  502    0 -0.15768834557E+03 -0.80514161992E+02  0.10269953728E+03  0.20468351074E+03  0.00000000000E+00 0. -1.
         -3    1    6    6    0  502 -0.39823194517E+03 -0.11781883035E+03  0.13713514372E+03  0.43735112505E+03  0.00000000000E+00 0.  1.
<mgrwt>
<rscale>  0 0.84687727E+03</rscale>
<asrwt>0</asrwt>
<pdfrwt beam="1">  1        1 0.68735718E-01 0.84687727E+03</pdfrwt>
<pdfrwt beam="2">  1       -2 0.33075090E+00 0.84687727E+03</pdfrwt>
<totfact> 0.96415777E-01</totfact>
</mgrwt>
</event>
<event>
12    3  0.1182097E-007  0.6700326E+03  0.7818608E-02  0.9769899E-01
          1   -1    0    0  501    0  0.00000000000E+00  0.00000000000E+00  0.10580386604E+04  0.10580386604E+04  0.00000000000E+00 0. -1.
         -2   -1    0    0    0  501 -0.00000000000E+00 -0.00000000000E+00 -0.45000914177E+03  0.45000914177E+03  0.00000000000E+00 0.  1.
        -24    2    1    2    0    0 -0.53401610583E+03 -0.74634356525E+02  0.98878898292E+02  0.55400824900E+03  0.80028838364E+02 0.  0.
    5000000    2    1    2    0    0  0.53401610583E+03  0.74634356525E+02  0.50915062038E+03  0.95403955321E+03  0.60017799559E+03 0.  0.
        -24    2    4    4    0    0  0.26659273360E+03 -0.25354388422E+03  0.23394037117E+03  0.44332315277E+03  0.80318949733E+02 0.  0.
         24    2    4    4    0    0  0.26742337224E+03  0.32817824074E+03  0.27521024921E+03  0.51071640045E+03  0.76644260692E+02 0.  0.
         11    1    3    3    0    0 -0.25527280563E+03 -0.76048189413E+02  0.46988665113E+02  0.27047267340E+03  0.00000000000E+00 0. -1.
        -12    1    3    3    0    0 -0.27874330020E+03  0.14138328882E+01  0.51890233178E+02  0.28353557560E+03  0.00000000000E+00 0.  1.
         15    1    5    5    0    0  0.17967062150E+03 -0.14812983760E+03  0.10495156380E+03  0.25542507608E+03  0.17770000000E+01 0. -1.
        -16    1    5    5    0    0  0.86922112096E+02 -0.10541404662E+03  0.12898880738E+03  0.18789807669E+03  0.00000000000E+00 0.  1.
          2    1    6    6  502    0  0.46690703564E+02  0.85469262418E+02  0.32665703093E+02  0.10272324360E+03  0.00000000000E+00 0. -1.
         -1    1    6    6    0  502  0.22073266867E+03  0.24270897832E+03  0.24254454612E+03  0.40799315684E+03  0.00000000000E+00 0.  1.
<mgrwt>
<rscale>  0 0.67003261E+03</rscale>
<asrwt>0</asrwt>
<pdfrwt beam="1">  1        1 0.16277518E+00 0.67003261E+03</pdfrwt>
<pdfrwt beam="2">  1       -2 0.69232176E-01 0.67003261E+03</pdfrwt>
<totfact> 0.23534655E+01</totfact>
</mgrwt>
</event>
<event>
12    3  0.1182097E-007  0.4161678E+03  0.7818608E-02  0.1038321E+00
          1   -1    0    0  501    0  0.00000000000E+00  0.00000000000E+00  0.79156980453E+03  0.79156980453E+03  0.00000000000E+00 0. -1.
         -2   -1    0    0    0  501 -0.00000000000E+00 -0.00000000000E+00 -0.26865813224E+03  0.26865813224E+03  0.00000000000E+00 0.  1.
        -24    2    1    2    0    0  0.17657771503E+03  0.12194585971E+03  0.31599594989E+03  0.39019270317E+03  0.79664440723E+02 0.  0.
    5000000    2    1    2    0    0 -0.17657771503E+03 -0.12194585971E+03  0.20691572239E+03  0.67003523360E+03  0.60006884267E+03 0.  0.
        -24    2    4    4    0    0 -0.10594028524E+03 -0.34810784604E+03  0.19623830885E+03  0.42066618123E+03  0.77769824895E+02 0.  0.
         24    2    4    4    0    0 -0.70637429788E+02  0.22616198633E+03  0.10677413546E+02  0.24936905237E+03  0.77019650544E+02 0.  0.
         11    1    3    3    0    0  0.18433228307E+02  0.32910584408E+02  0.10669048692E+03  0.11316249587E+03  0.00000000000E+00 0. -1.
        -12    1    3    3    0    0  0.15814448673E+03  0.89035275299E+02  0.20930546297E+03  0.27703020730E+03  0.00000000000E+00 0.  1.
         15    1    5    5    0    0 -0.54758254986E+02 -0.19573412321E+03  0.15242874469E+03  0.25406297136E+03  0.17770000000E+01 0. -1.
        -16    1    5    5    0    0 -0.51182030259E+02 -0.15237372282E+03  0.43809564155E+02  0.16660320987E+03  0.00000000000E+00 0.  1.
          4    1    6    6  502    0 -0.30341072292E+01  0.13800266800E+03  0.48891757545E+01  0.13812257680E+03  0.00000000000E+00 0. -1.
         -3    1    6    6    0  502 -0.67603322558E+02  0.88159318328E+02  0.57882377916E+01  0.11124647557E+03  0.00000000000E+00 0.  1.
<mgrwt>
<rscale>  0 0.41616781E+03</rscale>
<asrwt>0</asrwt>
<pdfrwt beam="1">  1        1 0.12177997E+00 0.41616781E+03</pdfrwt>
<pdfrwt beam="2">  1       -2 0.41332021E-01 0.41616781E+03</pdfrwt>
<totfact> 0.11420906E+02</totfact>
</mgrwt>
</event>
<event>
12    3  0.1182097E-007  0.7357518E+03  0.7818608E-02  0.9657973E-01
         -2   -1    0    0    0  501 -0.00000000000E+00  0.00000000000E+00  0.53548006284E+03  0.53548006284E+03  0.00000000000E+00 0.  1.
          1   -1    0    0  501    0  0.00000000000E+00 -0.00000000000E+00 -0.13760692764E+04  0.13760692764E+04  0.00000000000E+00 0. -1.
        -24    2    1    2    0    0  0.31958801687E+03 -0.58689451470E+03  0.11052102017E+02  0.67394623408E+03  0.86600840430E+02 0.  0.
    5000000    2    1    2    0    0 -0.31958801687E+03  0.58689451470E+03 -0.85164131554E+03  0.12376031051E+04  0.59982234333E+03 0.  0.
        -24    2    4    4    0    0  0.99458042517E+02  0.78434826533E+02 -0.42318248491E+03  0.44741122217E+03  0.71059566276E+02 0.  0.
         24    2    4    4    0    0 -0.41904605939E+03  0.50845968816E+03 -0.42845883063E+03  0.79019188295E+03  0.81825350329E+02 0.  0.
         11    1    3    3    0    0  0.64522009003E+02 -0.18513610355E+03  0.26309235820E+02  0.19781466673E+03  0.00000000000E+00 0. -1.
        -12    1    3    3    0    0  0.25506600787E+03 -0.40175841114E+03 -0.15257133802E+02  0.47613156735E+03  0.00000000000E+00 0.  1.
         15    1    5    5    0    0  0.53383974657E+02  0.49869937305E+01 -0.10901985015E+03  0.12150392714E+03  0.17770000000E+01 0. -1.
        -16    1    5    5    0    0  0.46074067860E+02  0.73447832803E+02 -0.31416263476E+03  0.32590729503E+03  0.00000000000E+00 0.  1.
          2    1    6    6  502    0 -0.67120933562E+02  0.69935551525E+02 -0.31548906279E+02  0.10193887667E+03  0.00000000000E+00 0. -1.
         -1    1    6    6    0  502 -0.35192512582E+03  0.43852413664E+03 -0.39690992436E+03  0.68825300628E+03  0.00000000000E+00 0.  1.
<mgrwt>
<rscale>  0 0.73575177E+03</rscale>
<asrwt>0</asrwt>
<pdfrwt beam="1">  1        1 0.21170297E+00 0.73575177E+03</pdfrwt>
<pdfrwt beam="2">  1       -2 0.82381548E-01 0.73575177E+03</pdfrwt>
<totfact> 0.93559509E+00</totfact>
</mgrwt>
</event>
<event>
12    3  0.1182097E-007  0.5579378E+03  0.7818608E-02  0.9996732E-01
         -2   -1    0    0    0  501 -0.00000000000E+00  0.00000000000E+00  0.20308994551E+04  0.20308994551E+04  0.00000000000E+00 0.  1.
          1   -1    0    0  501    0  0.00000000000E+00 -0.00000000000E+00 -0.21364519517E+03  0.21364519517E+03  0.00000000000E+00 0. -1.
        -24    2    1    2    0    0  0.34159340765E+03  0.38669511882E+03  0.63909533809E+03  0.82532946677E+03  0.80664158551E+02 0.  0.
    5000000    2    1    2    0    0 -0.34159340765E+03 -0.38669511882E+03  0.11781589218E+04  0.14192151835E+04  0.59991176091E+03 0.  0.
        -24    2    4    4    0    0 -0.36077437555E+03 -0.25224170708E+03  0.11796146252E+04  0.12615887017E+04  0.79569840772E+02 0.  0.
         24    2    4    4    0    0  0.19180967900E+02 -0.13445341175E+03 -0.14557033288E+01  0.15762648177E+03  0.79989744496E+02 0.  0.
         13    1    3    3    0    0  0.24539496345E+03  0.28034211549E+03  0.40088035215E+03  0.54728004398E+03  0.00000000000E+00 0. -1.
        -14    1    3    3    0    0  0.96198444207E+02  0.10635300334E+03  0.23821498593E+03  0.27804942278E+03  0.00000000000E+00 0.  1.
         15    1    5    5    0    0 -0.24764646987E+03 -0.14703964554E+03  0.85230852844E+03  0.89965683279E+03  0.17770000000E+01 0. -1.
        -16    1    5    5    0    0 -0.11312790569E+03 -0.10520206154E+03  0.32730609671E+03  0.36193186892E+03  0.00000000000E+00 0.  1.
          4    1    6    6  502    0  0.46324975269E+02 -0.11506772625E+03  0.22693981638E+01  0.12406343186E+03  0.00000000000E+00 0. -1.
         -3    1    6    6    0  502 -0.27144007369E+02 -0.19385685501E+02 -0.37251014926E+01  0.33563049914E+02  0.00000000000E+00 0.  1.
<mgrwt>
<rscale>  0 0.55793780E+03</rscale>
<asrwt>0</asrwt>
<pdfrwt beam="1">  1        1 0.32868493E-01 0.55793780E+03</pdfrwt>
<pdfrwt beam="2">  1       -2 0.31244606E+00 0.55793780E+03</pdfrwt>
<totfact> 0.34215355E+00</totfact>
</mgrwt>
</event>
<event>
12    3  0.1182097E-007  0.2130799E+04  0.7818608E-02  0.8547796E-01
         -2   -1    0    0    0  501 -0.00000000000E+00  0.00000000000E+00  0.15649466993E+04  0.15649466993E+04  0.00000000000E+00 0.  1.
          1   -1    0    0  501    0  0.00000000000E+00 -0.00000000000E+00 -0.30404291568E+04  0.30404291568E+04  0.00000000000E+00 0. -1.
        -24    2    1    2    0    0  0.21075668880E+03 -0.20963949019E+04 -0.33275006078E+03  0.21345153326E+04  0.78378154998E+02 0.  0.
    5000000    2    1    2    0    0 -0.21075668880E+03  0.20963949019E+04 -0.11427323967E+04  0.24708605236E+04  0.60002035778E+03 0.  0.
        -24    2    4    4    0    0 -0.34919735519E+03  0.15324085090E+04 -0.64007003251E+03  0.16989132079E+04  0.80011312923E+02 0.  0.
         24    2    4    4    0    0  0.13844066639E+03  0.56398639293E+03 -0.50266236415E+03  0.77194731563E+03  0.77374002436E+02 0.  0.
         13    1    3    3    0    0  0.85917020359E+02 -0.10633148542E+04 -0.20201307033E+03  0.10857391465E+04  0.00000000000E+00 0. -1.
        -14    1    3    3    0    0  0.12483966844E+03 -0.10330800477E+04 -0.13073699045E+03  0.10487761861E+04  0.00000000000E+00 0.  1.
         15    1    5    5    0    0 -0.16178635791E+03  0.54752643996E+03 -0.24655526089E+03  0.62189443032E+03  0.17770000000E+01 0. -1.
        -16    1    5    5    0    0 -0.18741099728E+03  0.98488206906E+03 -0.39351477162E+03  0.10770187776E+04  0.00000000000E+00 0.  1.
          2    1    6    6  502    0  0.95304675440E+02  0.39366110507E+03 -0.39572877965E+03  0.56626258383E+03  0.00000000000E+00 0. -1.
         -1    1    6    6    0  502  0.43135990952E+02  0.17032528786E+03 -0.10693358450E+03  0.20568473179E+03  0.00000000000E+00 0.  1.
<mgrwt>
<rscale>  0 0.21307992E+04</rscale>
<asrwt>0</asrwt>
<pdfrwt beam="1">  1        1 0.46775833E+00 0.21307992E+04</pdfrwt>
<pdfrwt beam="2">  1       -2 0.24076103E+00 0.21307992E+04</pdfrwt>
<totfact> 0.31482106E-02</totfact>
</mgrwt>
</event>
<event>
12    3  0.1182097E-007  0.1200148E+04  0.7818608E-02  0.9112727E-01
          1   -1    0    0  501    0  0.00000000000E+00  0.00000000000E+00  0.21277315747E+04  0.21277315747E+04  0.00000000000E+00 0. -1.
         -2   -1    0    0    0  501 -0.00000000000E+00 -0.00000000000E+00 -0.71501234404E+03  0.71501234404E+03  0.00000000000E+00 0.  1.
        -24    2    1    2    0    0 -0.89873121566E+02  0.11553611707E+04  0.64518521443E+03  0.13287534693E+04  0.79907500586E+02 0.  0.
    5000000    2    1    2    0    0  0.89873121566E+02 -0.11553611707E+04  0.76753401622E+03  0.15139904494E+04  0.60010165982E+03 0.  0.
        -24    2    4    4    0    0  0.24679408178E+03 -0.81835883151E+03  0.73848444963E+03  0.11324877070E+04  0.80935951663E+02 0.  0.
         24    2    4    4    0    0 -0.15692096022E+03 -0.33700233917E+03  0.29049566591E+02  0.38150274238E+03  0.80657924399E+02 0.  0.
         13    1    3    3    0    0 -0.55052432947E+02  0.27717999315E+03  0.16579447953E+03  0.32763902152E+03  0.00000000000E+00 0. -1.
        -14    1    3    3    0    0 -0.34820688618E+02  0.87818117753E+03  0.47939073491E+03  0.10011144478E+04  0.00000000000E+00 0.  1.
         15    1    5    5    0    0  0.75324429784E+02 -0.38661624336E+03  0.34938588637E+03  0.52651642393E+03  0.17770000000E+01 0. -1.
        -16    1    5    5    0    0  0.17146965200E+03 -0.43174258816E+03  0.38909856327E+03  0.60597128308E+03  0.00000000000E+00 0.  1.
          4    1    6    6  502    0 -0.28127283218E+02 -0.15440153549E+03  0.11714577173E+02  0.15737919031E+03  0.00000000000E+00 0. -1.
         -3    1    6    6    0  502 -0.12879367700E+03 -0.18260080368E+03  0.17334989418E+02  0.22412355208E+03  0.00000000000E+00 0.  1.
<mgrwt>
<rscale>  0 0.12001482E+04</rscale>
<asrwt>0</asrwt>
<pdfrwt beam="1">  1        1 0.32734332E+00 0.12001482E+04</pdfrwt>
<pdfrwt beam="2">  1       -2 0.11000190E+00 0.12001482E+04</pdfrwt>
<totfact> 0.13818124E+00</totfact>
</mgrwt>
</event>
<event>
12    3  0.1182097E-007  0.8589429E+03  0.7818608E-02  0.9478412E-01
         -4   -1    0    0    0  501 -0.00000000000E+00  0.00000000000E+00  0.57243476641E+03  0.57243476641E+03  0.00000000000E+00 0.  1.
          1   -1    0    0  501    0  0.00000000000E+00 -0.00000000000E+00 -0.16204079638E+04  0.16204079638E+04  0.00000000000E+00 0. -1.
        -24    2    1    2    0    0  0.23790903644E+03 -0.78883689256E+03 -0.16417619358E+03  0.84383330404E+03  0.78971322581E+02 0.  0.
    5000000    2    1    2    0    0 -0.23790903644E+03  0.78883689256E+03 -0.88379700379E+03  0.13490094261E+04  0.59988743547E+03 0.  0.
        -24    2    4    4    0    0 -0.29189405943E+03  0.70810712819E+03 -0.43912133832E+03  0.88692261402E+03  0.84772204058E+02 0.  0.
         24    2    4    4    0    0  0.53985022993E+02  0.80729764372E+02 -0.44467566547E+03  0.46208681212E+03  0.79725133492E+02 0.  0.
         13    1    3    3    0    0  0.23711485002E+03 -0.74624580612E+03 -0.16875416405E+03  0.80098952748E+03  0.00000000000E+00 0. -1.
        -14    1    3    3    0    0  0.79418641571E+00 -0.42591086435E+02  0.45779704738E+01  0.42843776555E+02  0.00000000000E+00 0.  1.
         15    1    5    5    0    0 -0.20144040035E+03  0.56881466743E+03 -0.32477708029E+03  0.68528218303E+03  0.17770000000E+01 0. -1.
        -16    1    5    5    0    0 -0.90453659080E+02  0.13929246076E+03 -0.11434425803E+03  0.20164043099E+03  0.00000000000E+00 0.  1.
          4    1    6    6  502    0  0.59684624976E+02  0.21781456290E+02 -0.27904171724E+03  0.28618344861E+03  0.00000000000E+00 0. -1.
         -3    1    6    6    0  502 -0.56996019834E+01  0.58948308082E+02 -0.16563394823E+03  0.17590336351E+03  0.00000000000E+00 0.  1.
<mgrwt>
<rscale>  0 0.85894292E+03</rscale>
<asrwt>0</asrwt>
<pdfrwt beam="1">  1        1 0.24929353E+00 0.85894292E+03</pdfrwt>
<pdfrwt beam="2">  1       -4 0.88066887E-01 0.85894292E+03</pdfrwt>
<totfact> 0.29328204E+00</totfact>
</mgrwt>
</event>
<event>
12    3  0.1182097E-007  0.3431398E+04  0.7818608E-02  0.8130243E-01
          1   -1    0    0  501    0  0.00000000000E+00  0.00000000000E+00  0.29521435911E+04  0.29521435911E+04  0.00000000000E+00 0. -1.
         -2   -1    0    0    0  501 -0.00000000000E+00 -0.00000000000E+00 -0.40114421230E+04  0.40114421230E+04  0.00000000000E+00 0.  1.
        -24    2    1    2    0    0 -0.27702334375E+04 -0.19877577325E+04 -0.33579603756E+03  0.34268119033E+04  0.70048128355E+02 0.  0.
    5000000    2    1    2    0    0  0.27702334375E+04  0.19877577325E+04 -0.72350249438E+03  0.35367738107E+04  0.59994918738E+03 0.  0.
        -24    2    4    4    0    0  0.21419347254E+04  0.17886823658E+04 -0.49847189667E+03  0.28358548375E+04  0.79557866614E+02 0.  0.
         24    2    4    4    0    0  0.62829871214E+03  0.19907536672E+03 -0.22503059771E+03  0.70091897324E+03  0.79109821296E+02 0.  0.
         11    1    3    3    0    0 -0.14189922292E+04 -0.99896844984E+03 -0.20239605769E+03  0.17471236575E+04  0.00000000000E+00 0. -1.
        -12    1    3    3    0    0 -0.13512412083E+04 -0.98878928266E+03 -0.13339997987E+03  0.16796882459E+04  0.00000000000E+00 0.  1.
         15    1    5    5    0    0  0.11879456347E+04  0.10397584395E+04 -0.26712315032E+03  0.16011465825E+04  0.17770000000E+01 0. -1.
        -16    1    5    5    0    0  0.95398909073E+03  0.74892392626E+03 -0.23134874634E+03  0.12347082550E+04  0.00000000000E+00 0.  1.
          4    1    6    6  502    0  0.18673566161E+02 -0.37089657520E+01  0.28165804322E+01  0.19245561188E+02  0.00000000000E+00 0. -1.
         -3    1    6    6    0  502  0.60962514598E+03  0.20278433247E+03 -0.22784717814E+03  0.68167341205E+03  0.00000000000E+00 0.  1.
<mgrwt>
<rscale>  0 0.34313983E+04</rscale>
<asrwt>0</asrwt>
<pdfrwt beam="1">  1        1 0.45417594E+00 0.34313983E+04</pdfrwt>
<pdfrwt beam="2">  1       -2 0.61714494E+00 0.34313983E+04</pdfrwt>
<totfact> 0.18628499E-04</totfact>
</mgrwt>
</event>
<event>
12    3  0.1182097E-007  0.1524188E+04  0.7818608E-02  0.8868526E-01
          1   -1    0    0  501    0  0.00000000000E+00  0.00000000000E+00  0.31524487863E+04  0.31524487863E+04  0.00000000000E+00 0. -1.
         -2   -1    0    0    0  501 -0.00000000000E+00 -0.00000000000E+00 -0.74799455086E+03  0.74799455086E+03  0.00000000000E+00 0.  1.
        -24    2    1    2    0    0  0.10347457958E+04  0.10482280815E+04  0.12760707987E+04  0.19503970801E+04  0.78810621605E+02 0.  0.
    5000000    2    1    2    0    0 -0.10347457958E+04 -0.10482280815E+04  0.11283834367E+04  0.19500462570E+04  0.59995854134E+03 0.  0.
        -24    2    4    4    0    0 -0.45764394742E+03 -0.83970886807E+03  0.80109906529E+03  0.12499704407E+04  0.78213965976E+02 0.  0.
         24    2    4    4    0    0 -0.57710184837E+03 -0.20851921348E+03  0.32728437145E+03  0.70007581632E+03  0.80400765028E+02 0.  0.
         11    1    3    3    0    0  0.44353498124E+03  0.45103704521E+03  0.59985682357E+03  0.87177170435E+03  0.00000000000E+00 0. -1.
        -12    1    3    3    0    0  0.59121081455E+03  0.59719103634E+03  0.67621397513E+03  0.10786253758E+04  0.00000000000E+00 0.  1.
         15    1    5    5    0    0 -0.34959658960E+03 -0.67123795642E+03  0.66939811588E+03  0.10103836721E+04  0.17770000000E+01 0. -1.
        -16    1    5    5    0    0 -0.10804735782E+03 -0.16847091164E+03  0.13170094942E+03  0.23958676858E+03  0.00000000000E+00 0.  1.
          2    1    6    6  502    0 -0.57729717564E+03 -0.21201051520E+03  0.32338035409E+03  0.69483475803E+03  0.00000000000E+00 0. -1.
         -1    1    6    6    0  502  0.19532726571E+00  0.34913017231E+01  0.39040173573E+01  0.52410582890E+01  0.00000000000E+00 0.  1.
<mgrwt>
<rscale>  0 0.15241879E+04</rscale>
<asrwt>0</asrwt>
<pdfrwt beam="1">  1        1 0.48499211E+00 0.15241879E+04</pdfrwt>
<pdfrwt beam="2">  1       -2 0.11507609E+00 0.15241879E+04</pdfrwt>
<totfact> 0.22706772E-01</totfact>
</mgrwt>
</event>
<event>
12    3  0.1182097E-007  0.5176354E+03  0.7818608E-02  0.1009276E+00
         -2   -1    0    0    0  501 -0.00000000000E+00  0.00000000000E+00  0.57452427826E+03  0.57452427826E+03  0.00000000000E+00 0.  1.
          1   -1    0    0  501    0  0.00000000000E+00 -0.00000000000E+00 -0.10248598927E+04  0.10248598927E+04  0.00000000000E+00 0. -1.
        -24    2    1    2    0    0  0.26905149854E+03 -0.35741743910E+03  0.29592533104E+03  0.54255697810E+03  0.81610895692E+02 0.  0.
    5000000    2    1    2    0    0 -0.26905149854E+03  0.35741743910E+03 -0.74626094550E+03  0.10568271929E+04  0.59986863745E+03 0.  0.
        -24    2    4    4    0    0  0.87695393294E+02  0.10445261297E+03 -0.54788351609E+03  0.57051999818E+03  0.81950538486E+02 0.  0.
         24    2    4    4    0    0 -0.35674689184E+03  0.25296482613E+03 -0.19837742941E+03  0.48630719470E+03  0.76691166551E+02 0.  0.
         13    1    3    3    0    0  0.20245127989E+02 -0.75701038726E+02  0.41377227890E+02  0.88614826408E+02  0.00000000000E+00 0. -1.
        -14    1    3    3    0    0  0.24880637055E+03 -0.28171640038E+03  0.25454810315E+03  0.45394215170E+03  0.00000000000E+00 0.  1.
         15    1    5    5    0    0  0.48364231389E+02  0.42939251281E+02 -0.40424709377E+03  0.40939192557E+03  0.17770000000E+01 0. -1.
        -16    1    5    5    0    0  0.39331161905E+02  0.61513361693E+02 -0.14363642233E+03  0.16112807261E+03  0.00000000000E+00 0.  1.
          2    1    6    6  502    0 -0.17088866884E+03  0.77138827452E+02 -0.70789361914E+02  0.20041075221E+03  0.00000000000E+00 0. -1.
         -1    1    6    6    0  502 -0.18585822299E+03  0.17582599868E+03 -0.12758806750E+03  0.28589644250E+03  0.00000000000E+00 0.  1.
<mgrwt>
<rscale>  0 0.51763543E+03</rscale>
<asrwt>0</asrwt>
<pdfrwt beam="1">  1        1 0.15767075E+00 0.51763543E+03</pdfrwt>
<pdfrwt beam="2">  1       -2 0.88388351E-01 0.51763543E+03</pdfrwt>
<totfact> 0.14773267E+01</totfact>
</mgrwt>
</event>
<event>
12    3  0.1182097E-007  0.5136716E+03  0.7818608E-02  0.1010271E+00
         -2   -1    0    0    0  501 -0.00000000000E+00  0.00000000000E+00  0.10847852101E+03  0.10847852101E+03  0.00000000000E+00 0.  1.
          1   -1    0    0  501    0  0.00000000000E+00 -0.00000000000E+00 -0.26311920327E+04  0.26311920327E+04  0.00000000000E+00 0. -1.
        -24    2    1    2    0    0  0.19298951726E+02  0.34608091297E+03 -0.11198640900E+04  0.11750692040E+04  0.80917280706E+02 0.  0.
    5000000    2    1    2    0    0 -0.19298951726E+02 -0.34608091297E+03 -0.14028494217E+04  0.15646013497E+04  0.59987201606E+03 0.  0.
        -24    2    4    4    0    0  0.27692429208E+02  0.15552891755E+03 -0.44868573434E+03  0.48271736592E+03  0.82103911790E+02 0.  0.
         24    2    4    4    0    0 -0.46991380934E+02 -0.50160983052E+03 -0.95416368740E+03  0.10818839838E+04  0.78892332418E+02 0.  0.
         11    1    3    3    0    0  0.29811082522E+02  0.16996132756E+03 -0.66947695801E+03  0.69135732499E+03  0.00000000000E+00 0. -1.
        -12    1    3    3    0    0 -0.10512130796E+02  0.17611958541E+03 -0.45038713195E+03  0.48371187900E+03  0.00000000000E+00 0.  1.
         15    1    5    5    0    0 -0.74869011667E+01  0.13100706866E+03 -0.37695854777E+03  0.39914885719E+03  0.17770000000E+01 0. -1.
        -16    1    5    5    0    0  0.35179330375E+02  0.24521848889E+02 -0.71727186568E+02  0.83568508731E+02  0.00000000000E+00 0.  1.
          4    1    6    6  502    0 -0.26384865921E+02 -0.17481217043E+03 -0.41481342254E+03  0.45091643528E+03  0.00000000000E+00 0. -1.
         -3    1    6    6    0  502 -0.20606515013E+02 -0.32679766009E+03 -0.53935026485E+03  0.63096754853E+03  0.00000000000E+00 0.  1.
<mgrwt>
<rscale>  0 0.51367156E+03</rscale>
<asrwt>0</asrwt>
<pdfrwt beam="1">  1        1 0.40479882E+00 0.51367156E+03</pdfrwt>
<pdfrwt beam="2">  1       -2 0.16689001E-01 0.51367156E+03</pdfrwt>
<totfact> 0.30676567E+01</totfact>
</mgrwt>
</event>
<event>
12    3  0.1182097E-007  0.1030618E+04  0.7818608E-02  0.9275586E-01
         -2   -1    0    0    0  501 -0.00000000000E+00  0.00000000000E+00  0.14661582396E+04  0.14661582396E+04  0.00000000000E+00 0.  1.
          1   -1    0    0  501    0  0.00000000000E+00 -0.00000000000E+00 -0.83515047110E+03  0.83515047110E+03  0.00000000000E+00 0. -1.
        -24    2    1    2    0    0 -0.93300207027E+03  0.40267316611E+03  0.42043503116E+03  0.11025747498E+04  0.79163891239E+02 0.  0.
    5000000    2    1    2    0    0  0.93300207027E+03 -0.40267316611E+03  0.21057273736E+03  0.11987339609E+04  0.59998640777E+03 0.  0.
        -24    2    4    4    0    0  0.89846601844E+03 -0.34753428524E+03  0.27935322493E+01  0.96663536539E+03  0.79717376434E+02 0.  0.
         24    2    4    4    0    0  0.34536051830E+02 -0.55138880869E+02  0.20777920512E+03  0.23209859552E+03  0.80402269287E+02 0.  0.
         11    1    3    3    0    0 -0.55672554845E+03  0.23712437287E+03  0.20819880333E+03  0.63993597041E+03  0.00000000000E+00 0. -1.
        -12    1    3    3    0    0 -0.37627652181E+03  0.16554879324E+03  0.21223622783E+03  0.46263877941E+03  0.00000000000E+00 0.  1.
         15    1    5    5    0    0  0.18699906041E+03 -0.61642143476E+02 -0.29990087070E+02  0.19917571513E+03  0.17770000000E+01 0. -1.
        -16    1    5    5    0    0  0.71146695802E+03 -0.28589214176E+03  0.32783619319E+02  0.76745965026E+03  0.00000000000E+00 0.  1.
          2    1    6    6  502    0  0.32826929571E+02 -0.74675307037E+01  0.16377662390E+03  0.16720093857E+03  0.00000000000E+00 0. -1.
         -1    1    6    6    0  502  0.17091222584E+01 -0.47671350166E+02  0.44002581212E+02  0.64897656960E+02  0.00000000000E+00 0.  1.
<mgrwt>
<rscale>  0 0.10306185E+04</rscale>
<asrwt>0</asrwt>
<pdfrwt beam="1">  1        1 0.12848469E+00 0.10306185E+04</pdfrwt>
<pdfrwt beam="2">  1       -2 0.22556281E+00 0.10306185E+04</pdfrwt>
<totfact> 0.16394019E+00</totfact>
</mgrwt>
</event>
<event>
12    3  0.1182097E-007  0.3842438E+03  0.7818608E-02  0.1049376E+00
         -2   -1    0    0    0  501 -0.00000000000E+00  0.00000000000E+00  0.14272571029E+03  0.14272571029E+03  0.00000000000E+00 0.  1.
          1   -1    0    0  501    0  0.00000000000E+00 -0.00000000000E+00 -0.22039305488E+04  0.22039305488E+04  0.00000000000E+00 0. -1.
        -24    2    1    2    0    0 -0.34822054041E+03 -0.30663500392E+02 -0.11263813261E+04  0.11821108649E+04  0.80333119447E+02 0.  0.
    5000000    2    1    2    0    0  0.34822054041E+03  0.30663500392E+02 -0.93482351235E+03  0.11645453941E+04  0.60006098088E+03 0.  0.
        -24    2    4    4    0    0  0.40254750829E+02  0.59034626415E+02  0.57197773128E+02  0.12230973405E+03  0.81132938519E+02 0.  0.
         24    2    4    4    0    0  0.30796578958E+03 -0.28371126023E+02 -0.99202128547E+03  0.10422356601E+04  0.80629349451E+02 0.  0.
         13    1    3    3    0    0 -0.20673900916E+03 -0.41241491094E+02 -0.56405355174E+03  0.60216134692E+03  0.00000000000E+00 0. -1.
        -14    1    3    3    0    0 -0.14148153125E+03  0.10577990702E+02 -0.56232777440E+03  0.57994951800E+03  0.00000000000E+00 0.  1.
         15    1    5    5    0    0 -0.76442130154E+00  0.60835766159E+02  0.13493862681E+02  0.62344340907E+02  0.17770000000E+01 0. -1.
        -16    1    5    5    0    0  0.41019172130E+02 -0.18011397442E+01  0.43703910447E+02  0.59965393144E+02  0.00000000000E+00 0.  1.
          2    1    6    6  502    0  0.96695662110E+02  0.15955983050E+02 -0.40771195672E+03  0.41932527246E+03  0.00000000000E+00 0. -1.
         -1    1    6    6    0  502  0.21127012747E+03 -0.44327109073E+02 -0.58430932875E+03  0.62291038764E+03  0.00000000000E+00 0.  1.
<mgrwt>
<rscale>  0 0.38424379E+03</rscale>
<asrwt>0</asrwt>
<pdfrwt beam="1">  1        1 0.33906624E+00 0.38424379E+03</pdfrwt>
<pdfrwt beam="2">  1       -2 0.21957802E-01 0.38424379E+03</pdfrwt>
<totfact> 0.38047757E+01</totfact>
</mgrwt>
</event>
<event>
12    3  0.1182097E-007  0.6213315E+03  0.7818608E-02  0.9862112E-01
          1   -1    0    0  501    0  0.00000000000E+00  0.00000000000E+00  0.35822294237E+03  0.35822294237E+03  0.00000000000E+00 0. -1.
         -2   -1    0    0    0  501 -0.00000000000E+00 -0.00000000000E+00 -0.14509808170E+04  0.14509808170E+04  0.00000000000E+00 0.  1.
        -24    2    1    2    0    0 -0.56905985351E+03 -0.14042372428E+03 -0.34289324565E+03  0.68407174029E+03  0.82646407914E+02 0.  0.
    5000000    2    1    2    0    0  0.56905985351E+03  0.14042372428E+03 -0.74986462903E+03  0.11251320191E+04  0.60006429604E+03 0.  0.
        -24    2    4    4    0    0  0.48536755061E+03  0.21534923732E+03 -0.22461400242E+03  0.58213375706E+03  0.80444439344E+02 0.  0.
         24    2    4    4    0    0  0.83692302892E+02 -0.74925513038E+02 -0.52525062661E+03  0.54299826206E+03  0.79628247415E+02 0.  0.
         11    1    3    3    0    0 -0.14836457512E+03  0.20971345267E-01 -0.89576987536E+02  0.17330921581E+03  0.00000000000E+00 0. -1.
        -12    1    3    3    0    0 -0.42069527839E+03 -0.14044469563E+03 -0.25331625811E+03  0.51076252448E+03  0.00000000000E+00 0.  1.
         15    1    5    5    0    0  0.43369626011E+02 -0.22905479181E+01 -0.27828583893E+02  0.51611615753E+02  0.17770000000E+01 0. -1.
        -16    1    5    5    0    0  0.44199792460E+03  0.21763978524E+03 -0.19678541853E+03  0.53052214131E+03  0.00000000000E+00 0.  1.
          4    1    6    6  502    0  0.51296314261E+02 -0.30582714651E+02 -0.11995742299E+03  0.13400148366E+03  0.00000000000E+00 0. -1.
         -3    1    6    6    0  502  0.32395988631E+02 -0.44342798387E+02 -0.40529320362E+03  0.40899677841E+03  0.00000000000E+00 0.  1.
<mgrwt>
<rscale>  0 0.62133151E+03</rscale>
<asrwt>0</asrwt>
<pdfrwt beam="1">  1        1 0.55111221E-01 0.62133151E+03</pdfrwt>
<pdfrwt beam="2">  1       -2 0.22322782E+00 0.62133151E+03</pdfrwt>
<totfact> 0.59786051E+00</totfact>
</mgrwt>
</event>
<event>
12    3  0.1182097E-007  0.8315800E+03  0.7818608E-02  0.9515399E-01
          1   -1    0    0  501    0  0.00000000000E+00  0.00000000000E+00  0.12963113205E+04  0.12963113205E+04  0.00000000000E+00 0. -1.
         -4   -1    0    0    0  501 -0.00000000000E+00 -0.00000000000E+00 -0.56925293792E+03  0.56925293792E+03  0.00000000000E+00 0.  1.
        -24    2    1    2    0    0 -0.38924954328E+03  0.64047076222E+03  0.38482372152E+03  0.84632365308E+03  0.80351881845E+02 0.  0.
    5000000    2    1    2    0    0  0.38924954328E+03 -0.64047076222E+03  0.34223466101E+03  0.10192406053E+04  0.60000737004E+03 0.  0.
        -24    2    4    4    0    0  0.15880296433E+02 -0.51968297007E+03  0.32420456294E+03  0.61832394608E+03  0.83026083064E+02 0.  0.
         24    2    4    4    0    0  0.37336924684E+03 -0.12078779214E+03  0.18030098077E+02  0.40091665922E+03  0.80092433995E+02 0.  0.
         13    1    3    3    0    0 -0.25064581538E+03  0.37847397101E+03  0.19302299817E+03  0.49327857173E+03  0.00000000000E+00 0. -1.
        -14    1    3    3    0    0 -0.13860372789E+03  0.26199679121E+03  0.19180072335E+03  0.35304508135E+03  0.00000000000E+00 0.  1.
         15    1    5    5    0    0  0.86696032370E+01 -0.62588800565E+02  0.10972471226E+02  0.64156627329E+02  0.17770000000E+01 0. -1.
        -16    1    5    5    0    0  0.72106931960E+01 -0.45709416951E+03  0.31323209171E+03  0.55416731875E+03  0.00000000000E+00 0.  1.
          2    1    6    6  502    0  0.10970775318E+03 -0.37862237553E+02 -0.31185645629E+02  0.12017439258E+03  0.00000000000E+00 0. -1.
         -1    1    6    6    0  502  0.26366149367E+03 -0.82925554587E+02  0.49215743706E+02  0.28074226664E+03  0.00000000000E+00 0.  1.
<mgrwt>
<rscale>  0 0.83157999E+03</rscale>
<asrwt>0</asrwt>
<pdfrwt beam="1">  1        1 0.19943251E+00 0.83157999E+03</pdfrwt>
<pdfrwt beam="2">  1       -4 0.87577375E-01 0.83157999E+03</pdfrwt>
<totfact> 0.49909070E+00</totfact>
</mgrwt>
</event>
<event>
12    3  0.1182097E-007  0.6007385E+03  0.7818608E-02  0.9903875E-01
         -2   -1    0    0    0  501 -0.00000000000E+00  0.00000000000E+00  0.50398076763E+03  0.50398076763E+03  0.00000000000E+00 0.  1.
          1   -1    0    0  501    0  0.00000000000E+00 -0.00000000000E+00 -0.87939398343E+03  0.87939398343E+03  0.00000000000E+00 0. -1.
        -24    2    1    2    0    0  0.41548988572E+03 -0.32258332017E+03 -0.11903907287E+03  0.54517661745E+03  0.79720761136E+02 0.  0.
    5000000    2    1    2    0    0 -0.41548988572E+03  0.32258332017E+03 -0.25637414293E+03  0.83819813362E+03  0.60013045786E+03 0.  0.
        -24    2    4    4    0    0 -0.51972340365E+02 -0.78304984839E+02  0.11810278329E+03  0.17529710706E+03  0.89151632114E+02 0.  0.
         24    2    4    4    0    0 -0.36351754535E+03  0.40088830501E+03 -0.37447692622E+03  0.66290102656E+03  0.79676620570E+02 0.  0.
         13    1    3    3    0    0  0.52185616063E+02 -0.18434071799E+02 -0.30402320148E+02  0.63146295199E+02  0.00000000000E+00 0. -1.
        -14    1    3    3    0    0  0.36330426965E+03 -0.30414924837E+03 -0.88636752725E+02  0.48203032225E+03  0.00000000000E+00 0.  1.
         15    1    5    5    0    0  0.17886286421E+02 -0.51541972364E+02  0.45749100313E+02  0.71222412664E+02  0.17770000000E+01 0. -1.
        -16    1    5    5    0    0 -0.69858626786E+02 -0.26763012475E+02  0.72353682976E+02  0.10407469439E+03  0.00000000000E+00 0.  1.
          2    1    6    6  502    0 -0.14468895196E+03  0.12841048520E+03 -0.17292039524E+03  0.25947178771E+03  0.00000000000E+00 0. -1.
         -1    1    6    6    0  502 -0.21882859339E+03  0.27247781981E+03 -0.20155653099E+03  0.40342923885E+03  0.00000000000E+00 0.  1.
<mgrwt>
<rscale>  0 0.60073846E+03</rscale>
<asrwt>0</asrwt>
<pdfrwt beam="1">  1        1 0.13529138E+00 0.60073846E+03</pdfrwt>
<pdfrwt beam="2">  1       -2 0.77535503E-01 0.60073846E+03</pdfrwt>
<totfact> 0.25531945E+01</totfact>
</mgrwt>
</event>
<event>
12    3  0.1182097E-007  0.3907400E+03  0.7818608E-02  0.1047034E+00
          1   -1    0    0  501    0  0.00000000000E+00  0.00000000000E+00  0.69779312911E+03  0.69779312911E+03  0.00000000000E+00 0. -1.
         -2   -1    0    0    0  501 -0.00000000000E+00 -0.00000000000E+00 -0.16363615244E+04  0.16363615244E+04  0.00000000000E+00 0.  1.
        -24    2    1    2    0    0 -0.15184243690E+03  0.71448423174E+02 -0.14902124511E+04  0.15019777594E+04  0.83922806286E+02 0.  0.
    5000000    2    1    2    0    0  0.15184243690E+03 -0.71448423174E+02  0.55164405586E+03  0.83217689408E+03  0.60003851199E+03 0.  0.
        -24    2    4    4    0    0  0.36865211765E+03 -0.35708394867E+02  0.41287603596E+03  0.56042883937E+03  0.80214647130E+02 0.  0.
         24    2    4    4    0    0 -0.21680968075E+03 -0.35740028307E+02  0.13876801990E+03  0.27174805472E+03  0.79414448348E+02 0.  0.
         11    1    3    3    0    0 -0.49847992261E+02 -0.15197467165E+02 -0.33312308092E+03  0.33717469119E+03  0.00000000000E+00 0. -1.
        -12    1    3    3    0    0 -0.10199444464E+03  0.86645890339E+02 -0.11570893702E+04  0.11648030682E+04  0.00000000000E+00 0.  1.
         15    1    5    5    0    0  0.32024093499E+02 -0.21999570878E+02  0.23131633738E+02  0.45252114776E+02  0.17770000000E+01 0. -1.
        -16    1    5    5    0    0  0.33662802415E+03 -0.13708823989E+02  0.38974440222E+03  0.51517672459E+03  0.00000000000E+00 0.  1.
          4    1    6    6  502    0 -0.48686130208E+02 -0.83247695507E+01 -0.39070639871E+01  0.49547010118E+02  0.00000000000E+00 0. -1.
         -3    1    6    6    0  502 -0.16812355054E+03 -0.27415258756E+02  0.14267508389E+03  0.22220104460E+03  0.00000000000E+00 0.  1.
<mgrwt>
<rscale>  0 0.39073998E+03</rscale>
<asrwt>0</asrwt>
<pdfrwt beam="1">  1        1 0.10735279E+00 0.39073998E+03</pdfrwt>
<pdfrwt beam="2">  1       -2 0.25174792E+00 0.39073998E+03</pdfrwt>
<totfact> 0.16908095E+00</totfact>
</mgrwt>
</event>
<event>
12    3  0.1182097E-007  0.5921439E+03  0.7818608E-02  0.9921840E-01
          1   -1    0    0  501    0  0.00000000000E+00  0.00000000000E+00  0.37782915812E+03  0.37782915812E+03  0.00000000000E+00 0. -1.
         -2   -1    0    0    0  501 -0.00000000000E+00 -0.00000000000E+00 -0.12156772319E+04  0.12156772319E+04  0.00000000000E+00 0.  1.
        -24    2    1    2    0    0  0.33867278455E+03 -0.42236346381E+03 -0.34609849224E+03  0.64747349083E+03  0.79671854764E+02 0.  0.
    5000000    2    1    2    0    0 -0.33867278455E+03  0.42236346381E+03 -0.49174958158E+03  0.94603289924E+03  0.60005870121E+03 0.  0.
        -24    2    4    4    0    0 -0.22369281548E+03  0.49729484532E+02 -0.49171116136E+03  0.54828646072E+03  0.79540426666E+02 0.  0.
         24    2    4    4    0    0 -0.11497996907E+03  0.37263397928E+03 -0.38420217753E-01  0.39774643851E+03  0.78267183880E+02 0.  0.
         11    1    3    3    0    0  0.22244998922E+03 -0.22523097573E+03 -0.22661115977E+03  0.38931427904E+03  0.00000000000E+00 0. -1.
        -12    1    3    3    0    0  0.11622279533E+03 -0.19713248808E+03 -0.11948733246E+03  0.25815921179E+03  0.00000000000E+00 0.  1.
         15    1    5    5    0    0 -0.75743235875E+02  0.55358961200E+02 -0.21097416307E+03  0.23090021130E+03  0.17770000000E+01 0. -1.
        -16    1    5    5    0    0 -0.14794957960E+03 -0.56294766672E+01 -0.28073699829E+03  0.31738624942E+03  0.00000000000E+00 0.  1.
          4    1    6    6  502    0 -0.80981347427E+02  0.34122813629E+03 -0.79231525236E+01  0.35079537621E+03  0.00000000000E+00 0. -1.
         -3    1    6    6    0  502 -0.33998621645E+02  0.31405842993E+02  0.78847323059E+01  0.46951062303E+02  0.00000000000E+00 0.  1.
<mgrwt>
<rscale>  0 0.59214387E+03</rscale>
<asrwt>0</asrwt>
<pdfrwt beam="1">  1        1 0.58127563E-01 0.59214387E+03</pdfrwt>
<pdfrwt beam="2">  1       -2 0.18702726E+00 0.59214387E+03</pdfrwt>
<totfact> 0.95544492E+00</totfact>
</mgrwt>
</event>
<event>
12    3  0.1182097E-007  0.7654724E+03  0.7818608E-02  0.9611385E-01
         -2   -1    0    0    0  501 -0.00000000000E+00  0.00000000000E+00  0.81743457354E+03  0.81743457354E+03  0.00000000000E+00 0.  1.
          1   -1    0    0  501    0  0.00000000000E+00 -0.00000000000E+00 -0.88398381577E+03  0.88398381577E+03  0.00000000000E+00 0. -1.
        -24    2    1    2    0    0 -0.65150689824E+03  0.78691323076E+02 -0.37493158569E+03  0.76027459151E+03  0.82402656299E+02 0.  0.
    5000000    2    1    2    0    0  0.65150689824E+03 -0.78691323076E+02  0.30838234346E+03  0.94114379780E+03  0.59999867966E+03 0.  0.
        -24    2    4    4    0    0  0.33237024493E+03  0.24631651713E+03  0.19964242943E+03  0.46625251876E+03  0.79953144380E+02 0.  0.
         24    2    4    4    0    0  0.31913665332E+03 -0.32500784020E+03  0.10873991403E+03  0.47489127904E+03  0.78861006354E+02 0.  0.
         11    1    3    3    0    0 -0.28790768908E+03  0.23744861252E+02 -0.11997343510E+03  0.31280709869E+03  0.00000000000E+00 0. -1.
        -12    1    3    3    0    0 -0.36359920917E+03  0.54946461824E+02 -0.25495815060E+03  0.44746749282E+03  0.00000000000E+00 0.  1.
         15    1    5    5    0    0  0.22374587591E+03  0.16122515627E+03  0.17346908158E+03  0.32580737867E+03  0.17770000000E+01 0. -1.
        -16    1    5    5    0    0  0.10862436902E+03  0.85091360855E+02  0.26173347846E+02  0.14044514009E+03  0.00000000000E+00 0.  1.
          2    1    6    6  502    0  0.12340929236E+03 -0.17414085401E+03  0.30044674620E+02  0.21554018871E+03  0.00000000000E+00 0. -1.
         -1    1    6    6    0  502  0.19572736095E+03 -0.15086698619E+03  0.78695239414E+02  0.25935109033E+03  0.00000000000E+00 0.  1.
<mgrwt>
<rscale>  0 0.76547236E+03</rscale>
<asrwt>0</asrwt>
<pdfrwt beam="1">  1        1 0.13599751E+00 0.76547236E+03</pdfrwt>
<pdfrwt beam="2">  1       -2 0.12575917E+00 0.76547236E+03</pdfrwt>
<totfact> 0.79278470E+00</totfact>
</mgrwt>
</event>
<event>
12    3  0.1182097E-007  0.4449459E+03  0.7818608E-02  0.1029240E+00
         -4   -1    0    0    0  501 -0.00000000000E+00  0.00000000000E+00  0.23511240028E+04  0.23511240028E+04  0.00000000000E+00 0.  1.
          1   -1    0    0  501    0  0.00000000000E+00 -0.00000000000E+00 -0.10318745341E+03  0.10318745341E+03  0.00000000000E+00 0. -1.
        -24    2    1    2    0    0 -0.18307735863E+03 -0.24097610729E+03  0.72887058885E+03  0.79323206185E+03  0.79862163319E+02 0.  0.
    5000000    2    1    2    0    0  0.18307735863E+03  0.24097610729E+03  0.15190659605E+04  0.16610793944E+04  0.60003046453E+03 0.  0.
        -24    2    4    4    0    0 -0.16368213167E+03  0.72728795423E+02  0.18411375920E+03  0.26928877253E+03  0.80853254551E+02 0.  0.
         24    2    4    4    0    0  0.34675949030E+03  0.16824731187E+03  0.13349522013E+04  0.13917906218E+04  0.80215042690E+02 0.  0.
         13    1    3    3    0    0 -0.88913414260E+02 -0.11326117878E+03  0.44882444136E+03  0.47135662615E+03  0.00000000000E+00 0. -1.
        -14    1    3    3    0    0 -0.94163944369E+02 -0.12771492851E+03  0.28004614749E+03  0.32187543570E+03  0.00000000000E+00 0.  1.
         15    1    5    5    0    0 -0.16122677773E+03  0.46756375496E+02  0.17258260539E+03  0.24076574906E+03  0.17770000000E+01 0. -1.
        -16    1    5    5    0    0 -0.24553539445E+01  0.25972419927E+02  0.11531153806E+02  0.28523023472E+02  0.00000000000E+00 0.  1.
          4    1    6    6  502    0  0.11513047324E+03  0.16402045943E+02  0.36591434794E+03  0.38394968812E+03  0.00000000000E+00 0. -1.
         -3    1    6    6    0  502  0.23162901706E+03  0.15184526593E+03  0.96903785340E+03  0.10078409337E+04  0.00000000000E+00 0.  1.
<mgrwt>
<rscale>  0 0.44494587E+03</rscale>
<asrwt>0</asrwt>
<pdfrwt beam="1">  1        1 0.15874995E-01 0.44494587E+03</pdfrwt>
<pdfrwt beam="2">  1       -4 0.36171135E+00 0.44494587E+03</pdfrwt>
<totfact> 0.22902720E+00</totfact>
</mgrwt>
</event>
<event>
12    3  0.1182097E-007  0.7101059E+03  0.7818608E-02  0.9700104E-01
          1   -1    0    0  501    0  0.00000000000E+00  0.00000000000E+00  0.22577362035E+04  0.22577362035E+04  0.00000000000E+00 0. -1.
         -2   -1    0    0    0  501 -0.00000000000E+00 -0.00000000000E+00 -0.76046019679E+03  0.76046019679E+03  0.00000000000E+00 0.  1.
        -24    2    1    2    0    0  0.53741371842E+03 -0.38313271070E+03  0.19195220783E+04  0.20313551501E+04  0.78959217654E+02 0.  0.
    5000000    2    1    2    0    0 -0.53741371842E+03  0.38313271070E+03 -0.42224607156E+03  0.98684125021E+03  0.59996644024E+03 0.  0.
        -24    2    4    4    0    0 -0.35795302400E+03  0.36429814809E+02 -0.45678943409E+03  0.58689913131E+03  0.79602163503E+02 0.  0.
         24    2    4    4    0    0 -0.17946069442E+03  0.34670289589E+03  0.34543362531E+02  0.39994211890E+03  0.79695769764E+02 0.  0.
         11    1    3    3    0    0  0.21461434723E+03 -0.16243066075E+03  0.66871374718E+03  0.72084749653E+03  0.00000000000E+00 0. -1.
        -12    1    3    3    0    0  0.32279937119E+03 -0.22070204995E+03  0.12508083311E+04  0.13105076536E+04  0.00000000000E+00 0.  1.
         15    1    5    5    0    0 -0.12260920588E+03 -0.72306551169E+01 -0.10612090624E+03  0.16232715179E+03  0.17770000000E+01 0. -1.
        -16    1    5    5    0    0 -0.23534381813E+03  0.43660469926E+02 -0.35066852785E+03  0.42457197952E+03  0.00000000000E+00 0.  1.
          4    1    6    6  502    0 -0.11130993654E+03  0.13251830549E+03  0.26076688888E+02  0.17501713335E+03  0.00000000000E+00 0. -1.
         -3    1    6    6    0  502 -0.68150757878E+02  0.21418459039E+03  0.84666736429E+01  0.22492498555E+03  0.00000000000E+00 0.  1.
<mgrwt>
<rscale>  0 0.71010586E+03</rscale>
<asrwt>0</asrwt>
<pdfrwt beam="1">  1        1 0.34734403E+00 0.71010586E+03</pdfrwt>
<pdfrwt beam="2">  1       -2 0.11699388E+00 0.71010586E+03</pdfrwt>
<totfact> 0.10465486E+00</totfact>
</mgrwt>
</event>
<event>
12    3  0.1182097E-007  0.6038433E+03  0.7818608E-02  0.9897464E-01
         -2   -1    0    0    0  501 -0.00000000000E+00  0.00000000000E+00  0.18829774119E+03  0.18829774119E+03  0.00000000000E+00 0.  1.
          1   -1    0    0  501    0  0.00000000000E+00 -0.00000000000E+00 -0.23809679283E+04  0.23809679283E+04  0.00000000000E+00 0. -1.
        -24    2    1    2    0    0 -0.43198797846E+03  0.30741310784E+03 -0.80814271570E+03  0.96986127184E+03  0.80123687327E+02 0.  0.
    5000000    2    1    2    0    0  0.43198797846E+03 -0.30741310784E+03 -0.13845274714E+04  0.15994043977E+04  0.60005139423E+03 0.  0.
        -24    2    4    4    0    0  0.36761329081E+03 -0.40944506980E+03 -0.13549765792E+04  0.14647062880E+04  0.81352215300E+02 0.  0.
         24    2    4    4    0    0  0.64374687641E+02  0.10203196196E+03 -0.29550892174E+02  0.13469810969E+03  0.52112415553E+02 0.  0.
         13    1    3    3    0    0 -0.34486123329E+03  0.23491987267E+03 -0.68833909937E+03  0.80493933468E+03  0.00000000000E+00 0. -1.
        -14    1    3    3    0    0 -0.87126745167E+02  0.72493235175E+02 -0.11980361633E+03  0.16492193716E+03  0.00000000000E+00 0.  1.
         15    1    5    5    0    0  0.19764422599E+03 -0.24586402858E+03 -0.86934838486E+03  0.92481464770E+03  0.17770000000E+01 0. -1.
        -16    1    5    5    0    0  0.16996906482E+03 -0.16358104122E+03 -0.48562819439E+03  0.53989164026E+03  0.00000000000E+00 0.  1.
          2    1    6    6  502    0  0.33856877914E+02  0.22831341437E+02  0.84530574169E+01  0.41701468962E+02  0.00000000000E+00 0. -1.
         -1    1    6    6    0  502  0.30517809728E+02  0.79200620522E+02 -0.38003949591E+02  0.92996640725E+02  0.00000000000E+00 0.  1.
<mgrwt>
<rscale>  0 0.60384334E+03</rscale>
<asrwt>0</asrwt>
<pdfrwt beam="1">  1        1 0.36630276E+00 0.60384334E+03</pdfrwt>
<pdfrwt beam="2">  1       -2 0.28968883E-01 0.60384334E+03</pdfrwt>
<totfact> 0.16840118E+01</totfact>
</mgrwt>
</event>
<event>
12    3  0.1182097E-007  0.4156550E+03  0.7818608E-02  0.1038490E+00
         -2   -1    0    0    0  501 -0.00000000000E+00  0.00000000000E+00  0.22107022534E+03  0.22107022534E+03  0.00000000000E+00 0.  1.
          1   -1    0    0  501    0  0.00000000000E+00 -0.00000000000E+00 -0.12704156992E+04  0.12704156992E+04  0.00000000000E+00 0. -1.
        -24    2    1    2    0    0  0.95818788873E+02 -0.33642370166E+03 -0.43788788693E+03  0.56609171964E+03  0.79698721330E+02 0.  0.
    5000000    2    1    2    0    0 -0.95818788873E+02  0.33642370166E+03 -0.61145758692E+03  0.92539420489E+03  0.60009324817E+03 0.  0.
        -24    2    4    4    0    0 -0.20337091191E+03  0.12331133259E+03  0.13717666735E+02  0.25163203361E+03  0.81025263977E+02 0.  0.
         24    2    4    4    0    0  0.10755212304E+03  0.21311236908E+03 -0.62517525365E+03  0.67376217128E+03  0.78275313115E+02 0.  0.
         11    1    3    3    0    0  0.38209024415E+02 -0.15615766252E+03 -0.26393860345E+03  0.30904486972E+03  0.00000000000E+00 0. -1.
        -12    1    3    3    0    0  0.57609764457E+02 -0.18026603914E+03 -0.17394928348E+03  0.25704684992E+03  0.00000000000E+00 0.  1.
         15    1    5    5    0    0 -0.25311568669E+02  0.36396506789E+02 -0.23222753024E+02  0.50078290725E+02  0.17770000000E+01 0. -1.
        -16    1    5    5    0    0 -0.17805934324E+03  0.86914825798E+02  0.36940419759E+02  0.20155374288E+03  0.00000000000E+00 0.  1.
          4    1    6    6  502    0  0.37939529246E+02  0.81661561546E+02 -0.14140418345E+03  0.16763997617E+03  0.00000000000E+00 0. -1.
         -3    1    6    6    0  502  0.69612593790E+02  0.13145080753E+03 -0.48377107021E+03  0.50612219511E+03  0.00000000000E+00 0.  1.
<mgrwt>
<rscale>  0 0.41565498E+03</rscale>
<asrwt>0</asrwt>
<pdfrwt beam="1">  1        1 0.19544857E+00 0.41565498E+03</pdfrwt>
<pdfrwt beam="2">  1       -2 0.34010805E-01 0.41565498E+03</pdfrwt>
<totfact> 0.71682947E+01</totfact>
</mgrwt>
</event>
<event>
12    3  0.1182097E-007  0.8732216E+03  0.7818608E-02  0.9459689E-01
         -2   -1    0    0    0  501 -0.00000000000E+00  0.00000000000E+00  0.82449165425E+03  0.82449165425E+03  0.00000000000E+00 0.  1.
          1   -1    0    0  501    0  0.00000000000E+00 -0.00000000000E+00 -0.99302786780E+03  0.99302786780E+03  0.00000000000E+00 0. -1.
        -24    2    1    2    0    0  0.32147766960E+03  0.71204346370E+03  0.11128003634E+03  0.79349426580E+03  0.83042863166E+02 0.  0.
    5000000    2    1    2    0    0 -0.32147766960E+03 -0.71204346370E+03 -0.27981624990E+03  0.10240252562E+04  0.59998067091E+03 0.  0.
        -24    2    4    4    0    0 -0.46357748134E+03 -0.39034398205E+03 -0.25663920688E+03  0.66271114226E+03  0.77780910538E+02 0.  0.
         24    2    4    4    0    0  0.14209981175E+03 -0.32169948165E+03 -0.23177043015E+02  0.36131411398E+03  0.79547474133E+02 0.  0.
         11    1    3    3    0    0  0.93933396282E+02  0.17125405941E+03 -0.49261562626E+01  0.19538603537E+03  0.00000000000E+00 0. -1.
        -12    1    3    3    0    0  0.22754427331E+03  0.54078940429E+03  0.11620619261E+03  0.59810823043E+03  0.00000000000E+00 0.  1.
         15    1    5    5    0    0 -0.21374484582E+03 -0.20204758621E+03 -0.16236867453E+03  0.33597147261E+03  0.17770000000E+01 0. -1.
        -16    1    5    5    0    0 -0.24983263553E+03 -0.18829639583E+03 -0.94270532349E+02  0.32673966966E+03  0.00000000000E+00 0.  1.
          4    1    6    6  502    0  0.14441176594E+03 -0.27443911600E+03 -0.36243691518E+02  0.31222618677E+03  0.00000000000E+00 0. -1.
         -3    1    6    6    0  502 -0.23119541923E+01 -0.47260365654E+02  0.13066648504E+02  0.49087927203E+02  0.00000000000E+00 0.  1.
<mgrwt>
<rscale>  0 0.87322161E+03</rscale>
<asrwt>0</asrwt>
<pdfrwt beam="1">  1        1 0.15277352E+00 0.87322161E+03</pdfrwt>
<pdfrwt beam="2">  1       -2 0.12684487E+00 0.87322161E+03</pdfrwt>
<totfact> 0.62685301E+00</totfact>
</mgrwt>
</event>
<event>
12    3  0.1182097E-007  0.6239364E+03  0.7818608E-02  0.9856953E-01
         -2   -1    0    0    0  501 -0.00000000000E+00  0.00000000000E+00  0.87826332234E+03  0.87826332234E+03  0.00000000000E+00 0.  1.
          1   -1    0    0  501    0  0.00000000000E+00 -0.00000000000E+00 -0.12921728924E+04  0.12921728924E+04  0.00000000000E+00 0. -1.
        -24    2    1    2    0    0 -0.23710683738E+03  0.47341417985E+03 -0.10302464127E+04  0.11604209610E+04  0.69487393650E+02 0.  0.
    5000000    2    1    2    0    0  0.23710683738E+03 -0.47341417985E+03  0.61633684263E+03  0.10100152537E+04  0.59993255553E+03 0.  0.
        -24    2    4    4    0    0  0.32835513254E+03 -0.51497419625E+03  0.33678951648E+03  0.70225705445E+03  0.81989488631E+02 0.  0.
         24    2    4    4    0    0 -0.91248295165E+02  0.41560016396E+02  0.27954732615E+03  0.30775819929E+03  0.80715025478E+02 0.  0.
         11    1    3    3    0    0 -0.12346980934E+03  0.22374831664E+03 -0.56929468772E+03  0.62402287176E+03  0.00000000000E+00 0. -1.
        -12    1    3    3    0    0 -0.11363702804E+03  0.24966586322E+03 -0.46095172496E+03  0.53639808924E+03  0.00000000000E+00 0.  1.
         15    1    5    5    0    0  0.19342950771E+03 -0.22866103835E+03  0.17291042301E+03  0.34583524550E+03  0.17770000000E+01 0. -1.
        -16    1    5    5    0    0  0.13492562483E+03 -0.28631315790E+03  0.16387909347E+03  0.35642180895E+03  0.00000000000E+00 0.  1.
          2    1    6    6  502    0 -0.89655765842E+02  0.36703414544E+02  0.28456025991E+03  0.30059913258E+03  0.00000000000E+00 0. -1.
         -1    1    6    6    0  502 -0.15925293230E+01  0.48566018525E+01 -0.50129337619E+01  0.71590667059E+01  0.00000000000E+00 0.  1.
<mgrwt>
<rscale>  0 0.62393642E+03</rscale>
<asrwt>0</asrwt>
<pdfrwt beam="1">  1        1 0.19879583E+00 0.62393642E+03</pdfrwt>
<pdfrwt beam="2">  1       -2 0.13511743E+00 0.62393642E+03</pdfrwt>
<totfact> 0.33283802E+00</totfact>
</mgrwt>
</event>
<event>
12    3  0.1182097E-007  0.4661307E+03  0.7818608E-02  0.1023018E+00
         -2   -1    0    0    0  501 -0.00000000000E+00  0.00000000000E+00  0.14545321553E+03  0.14545321553E+03  0.00000000000E+00 0.  1.
          1   -1    0    0  501    0  0.00000000000E+00 -0.00000000000E+00 -0.27560266040E+04  0.27560266040E+04  0.00000000000E+00 0. -1.
        -24    2    1    2    0    0  0.38430500375E+03 -0.83822696702E+02 -0.16751781425E+04  0.17226001476E+04  0.80080453977E+02 0.  0.
    5000000    2    1    2    0    0 -0.38430500375E+03  0.83822696702E+02 -0.93539524598E+03  0.11788796719E+04  0.60006369183E+03 0.  0.
        -24    2    4    4    0    0 -0.70144839436E+02 -0.13235619095E+03  0.24896538907E+01  0.16365232864E+03  0.65859141425E+02 0.  0.
         24    2    4    4    0    0 -0.31416016431E+03  0.21617888765E+03 -0.93788489987E+03  0.10152273433E+04  0.75023681723E+02 0.  0.
         13    1    3    3    0    0  0.24055632245E+03 -0.22313607012E+02 -0.11242504426E+04  0.11499149095E+04  0.00000000000E+00 0. -1.
        -14    1    3    3    0    0  0.14374868130E+03 -0.61509089690E+02 -0.55092769988E+03  0.57268523814E+03  0.00000000000E+00 0.  1.
         15    1    5    5    0    0 -0.34334496817E+02 -0.55968632055E+02  0.33542857496E+02  0.73753823384E+02  0.17770000000E+01 0. -1.
        -16    1    5    5    0    0 -0.35810342620E+02 -0.76387558895E+02 -0.31053203605E+02  0.89898505253E+02  0.00000000000E+00 0.  1.
          2    1    6    6  502    0 -0.15309591104E+03  0.76850193771E+02 -0.49492858449E+03  0.52373525182E+03  0.00000000000E+00 0. -1.
         -1    1    6    6    0  502 -0.16106425327E+03  0.13932869388E+03 -0.44295631538E+03  0.49149209145E+03  0.00000000000E+00 0.  1.
<mgrwt>
<rscale>  0 0.46613067E+03</rscale>
<asrwt>0</asrwt>
<pdfrwt beam="1">  1        1 0.42400402E+00 0.46613067E+03</pdfrwt>
<pdfrwt beam="2">  1       -2 0.22377422E-01 0.46613067E+03</pdfrwt>
<totfact> 0.15322921E+01</totfact>
</mgrwt>
</event>
<event>
12    3  0.1182097E-007  0.4712693E+03  0.7818608E-02  0.1021563E+00
          1   -1    0    0  501    0  0.00000000000E+00  0.00000000000E+00  0.62763329000E+03  0.62763329000E+03  0.00000000000E+00 0. -1.
         -2   -1    0    0    0  501 -0.00000000000E+00 -0.00000000000E+00 -0.60893500567E+03  0.60893500567E+03  0.00000000000E+00 0.  1.
        -24    2    1    2    0    0  0.13061249910E+03  0.29489725159E+03 -0.33252725593E+03  0.47005714334E+03  0.79720312018E+02 0.  0.
    5000000    2    1    2    0    0 -0.13061249910E+03 -0.29489725159E+03  0.35122554026E+03  0.76651115233E+03  0.60012994643E+03 0.  0.
        -24    2    4    4    0    0 -0.15710459032E+03 -0.42877517074E+03  0.38764068946E+03  0.60415666746E+03  0.78803396945E+02 0.  0.
         24    2    4    4    0    0  0.26492091225E+02  0.13387791914E+03 -0.36415149207E+02  0.16235448487E+03  0.80048657292E+02 0.  0.
         13    1    3    3    0    0  0.38089689145E+02  0.18350301252E+03 -0.18957711405E+03  0.26657768511E+03  0.00000000000E+00 0. -1.
        -14    1    3    3    0    0  0.92522809950E+02  0.11139423907E+03 -0.14295014188E+03  0.20347945823E+03  0.00000000000E+00 0.  1.
         15    1    5    5    0    0 -0.11417142937E+03 -0.21258377210E+03  0.17687060568E+03  0.29918780778E+03  0.17770000000E+01 0. -1.
        -16    1    5    5    0    0 -0.42933160950E+02 -0.21619139863E+03  0.21077008379E+03  0.30496885968E+03  0.00000000000E+00 0.  1.
          2    1    6    6  502    0 -0.72761531990E+01  0.10166728786E+03  0.19434707928E+01  0.10194585281E+03  0.00000000000E+00 0. -1.
         -1    1    6    6    0  502  0.33768244424E+02  0.32210631281E+02 -0.38358620000E+02  0.60408632059E+02  0.00000000000E+00 0.  1.
<mgrwt>
<rscale>  0 0.47126929E+03</rscale>
<asrwt>0</asrwt>
<pdfrwt beam="1">  1        1 0.96558968E-01 0.47126929E+03</pdfrwt>
<pdfrwt beam="2">  1       -2 0.93682309E-01 0.47126929E+03</pdfrwt>
<totfact> 0.28374595E+01</totfact>
</mgrwt>
</event>
<event>
12    3  0.1182097E-007  0.7839392E+03  0.7818608E-02  0.9583560E-01
         -2   -1    0    0    0  501 -0.00000000000E+00  0.00000000000E+00  0.81531647496E+03  0.81531647496E+03  0.00000000000E+00 0.  1.
          1   -1    0    0  501    0  0.00000000000E+00 -0.00000000000E+00 -0.10183347856E+04  0.10183347856E+04  0.00000000000E+00 0. -1.
        -24    2    1    2    0    0 -0.20092014458E+03 -0.66037797732E+03  0.33626138096E+03  0.77200012818E+03  0.80277669063E+02 0.  0.
    5000000    2    1    2    0    0  0.20092014458E+03  0.66037797732E+03 -0.53927969162E+03  0.10616511324E+04  0.59984378276E+03 0.  0.
        -24    2    4    4    0    0  0.19088054173E+03 -0.21446696250E+02 -0.22565887929E+03  0.30678680250E+03  0.79378022105E+02 0.  0.
         24    2    4    4    0    0  0.10039602852E+02  0.68182467357E+03 -0.31362081233E+03  0.75486432991E+03  0.80476478114E+02 0.  0.
         13    1    3    3    0    0 -0.17478347459E+03 -0.56354019973E+03  0.25439559050E+03  0.64252932709E+03  0.00000000000E+00 0. -1.
        -14    1    3    3    0    0 -0.26136669988E+02 -0.96837777590E+02  0.81865790458E+02  0.12947080109E+03  0.00000000000E+00 0.  1.
         15    1    5    5    0    0  0.64407955404E+02 -0.18620265931E+02 -0.29263819094E+02  0.73175322750E+02  0.17770000000E+01 0. -1.
        -16    1    5    5    0    0  0.12647258633E+03 -0.28264303183E+01 -0.19639506020E+03  0.23361147975E+03  0.00000000000E+00 0.  1.
          4    1    6    6  502    0 -0.21439971073E+02  0.35333869010E+03 -0.12915240394E+03  0.37681327700E+03  0.00000000000E+00 0. -1.
         -3    1    6    6    0  502  0.31479573924E+02  0.32848598347E+03 -0.18446840839E+03  0.37805105291E+03  0.00000000000E+00 0.  1.
<mgrwt>
<rscale>  0 0.78393918E+03</rscale>
<asrwt>0</asrwt>
<pdfrwt beam="1">  1        1 0.15666689E+00 0.78393918E+03</pdfrwt>
<pdfrwt beam="2">  1       -2 0.12543330E+00 0.78393918E+03</pdfrwt>
<totfact> 0.62271018E+00</totfact>
</mgrwt>
</event>
<event>
12    3  0.1182097E-007  0.5878568E+03  0.7818608E-02  0.9930925E-01
          1   -1    0    0  501    0  0.00000000000E+00  0.00000000000E+00  0.51815591752E+03  0.51815591752E+03  0.00000000000E+00 0. -1.
         -2   -1    0    0    0  501 -0.00000000000E+00 -0.00000000000E+00 -0.98429695554E+03  0.98429695554E+03  0.00000000000E+00 0.  1.
        -24    2    1    2    0    0 -0.10010787283E+02  0.54564810267E+03  0.28460178143E+02  0.55256514976E+03  0.81769157915E+02 0.  0.
    5000000    2    1    2    0    0  0.10010787283E+02 -0.54564810267E+03 -0.49460121616E+03  0.94988772329E+03  0.59985352881E+03 0.  0.
        -24    2    4    4    0    0  0.13057083703E+03 -0.10373116252E+03 -0.44655543631E+03  0.48320415731E+03  0.79155558089E+02 0.  0.
         24    2    4    4    0    0 -0.12056004975E+03 -0.44191694015E+03 -0.48045779849E+02  0.46668356599E+03  0.75231949431E+02 0.  0.
         13    1    3    3    0    0 -0.41872370466E+02  0.31772741936E+03 -0.15603699871E+01  0.32047845977E+03  0.00000000000E+00 0. -1.
        -14    1    3    3    0    0  0.31861583183E+02  0.22792068331E+03  0.30020548130E+02  0.23208669000E+03  0.00000000000E+00 0.  1.
         15    1    5    5    0    0  0.85291035454E+02 -0.72722004469E+02 -0.38380618920E+03  0.39984171776E+03  0.17770000000E+01 0. -1.
        -16    1    5    5    0    0  0.45279801579E+02 -0.31009158054E+02 -0.62749247112E+02  0.83362439548E+02  0.00000000000E+00 0.  1.
          2    1    6    6  502    0 -0.45845463015E+02 -0.15506668630E+03  0.18883136829E+02  0.16280066503E+03  0.00000000000E+00 0. -1.
         -1    1    6    6    0  502 -0.74714586735E+02 -0.28685025385E+03 -0.66928916677E+02  0.30388290095E+03  0.00000000000E+00 0.  1.
<mgrwt>
<rscale>  0 0.58785676E+03</rscale>
<asrwt>0</asrwt>
<pdfrwt beam="1">  1        1 0.79716295E-01 0.58785676E+03</pdfrwt>
<pdfrwt beam="2">  1       -2 0.15143030E+00 0.58785676E+03</pdfrwt>
<totfact> 0.11201375E+01</totfact>
</mgrwt>
</event>
<event>
12    3  0.1182097E-007  0.1151301E+04  0.7818608E-02  0.9156584E-01
          1   -1    0    0  501    0  0.00000000000E+00  0.00000000000E+00  0.19177760418E+04  0.19177760418E+04  0.00000000000E+00 0. -1.
         -2   -1    0    0    0  501 -0.00000000000E+00 -0.00000000000E+00 -0.83025024581E+03  0.83025024581E+03  0.00000000000E+00 0.  1.
        -24    2    1    2    0    0 -0.10384509227E+04  0.31335901195E+03 -0.17002664958E+02  0.10877600359E+04  0.79740928949E+02 0.  0.
    5000000    2    1    2    0    0  0.10384509227E+04 -0.31335901195E+03  0.11045284609E+04  0.16602662517E+04  0.59993892723E+03 0.  0.
        -24    2    4    4    0    0  0.76266326108E+02  0.13131813431E+03  0.11726522448E+03  0.20948654865E+03  0.84098016021E+02 0.  0.
         24    2    4    4    0    0  0.96218459660E+03 -0.44467714626E+03  0.98726323646E+03  0.14507797031E+04  0.80846066677E+02 0.  0.
         11    1    3    3    0    0 -0.52569125888E+03  0.13927513885E+03  0.26787535655E+02  0.54448731484E+03  0.00000000000E+00 0. -1.
        -12    1    3    3    0    0 -0.51275966384E+03  0.17408387311E+03 -0.43790200613E+02  0.54327272102E+03  0.00000000000E+00 0.  1.
         15    1    5    5    0    0  0.17722370184E+02  0.57529298147E+01  0.54057945760E+02  0.57206624050E+02  0.17770000000E+01 0. -1.
        -16    1    5    5    0    0  0.58543955924E+02  0.12556520449E+03  0.63207278721E+02  0.15227992460E+03  0.00000000000E+00 0.  1.
          4    1    6    6  502    0  0.37212676721E+03 -0.17686276257E+03  0.43781866620E+03  0.60120208926E+03  0.00000000000E+00 0. -1.
         -3    1    6    6    0  502  0.59005782939E+03 -0.26781438369E+03  0.54944457026E+03  0.84957761383E+03  0.00000000000E+00 0.  1.
<mgrwt>
<rscale>  0 0.11513010E+04</rscale>
<asrwt>0</asrwt>
<pdfrwt beam="1">  1        1 0.29504247E+00 0.11513010E+04</pdfrwt>
<pdfrwt beam="2">  1       -2 0.12773081E+00 0.11513010E+04</pdfrwt>
<totfact> 0.13290617E+00</totfact>
</mgrwt>
</event>
<event>
12    3  0.1182097E-007  0.5812008E+03  0.7818608E-02  0.9945195E-01
         -2   -1    0    0    0  501 -0.00000000000E+00  0.00000000000E+00  0.49586837153E+03  0.49586837153E+03  0.00000000000E+00 0.  1.
          1   -1    0    0  501    0  0.00000000000E+00 -0.00000000000E+00 -0.11317756888E+04  0.11317756888E+04  0.00000000000E+00 0. -1.
        -24    2    1    2    0    0  0.24537446556E+02 -0.50901410869E+03 -0.66275095268E+03  0.83997342138E+03  0.81357693028E+02 0.  0.
    5000000    2    1    2    0    0 -0.24537446556E+02  0.50901410869E+03  0.26843635383E+02  0.78767063897E+03  0.60000583798E+03 0.  0.
        -24    2    4    4    0    0 -0.18553802285E+03  0.39090744356E+03 -0.19214568800E+03  0.48024753714E+03  0.80527909199E+02 0.  0.
         24    2    4    4    0    0  0.16100057629E+03  0.11810666514E+03  0.21898932338E+03  0.30742310183E+03  0.81745151961E+02 0.  0.
         11    1    3    3    0    0  0.44791091232E+02 -0.36937646847E+03 -0.43926349873E+03  0.57567146761E+03  0.00000000000E+00 0. -1.
        -12    1    3    3    0    0 -0.20253644676E+02 -0.13963764023E+03 -0.22348745395E+03  0.26430195376E+03  0.00000000000E+00 0.  1.
         15    1    5    5    0    0 -0.11102269629E+03  0.26260725046E+03 -0.16498902196E+03  0.32941333031E+03  0.17770000000E+01 0. -1.
        -16    1    5    5    0    0 -0.74515326555E+02  0.12830019309E+03 -0.27156666036E+02  0.15083420683E+03  0.00000000000E+00 0.  1.
          2    1    6    6  502    0  0.80533380383E+02  0.10272308666E+02  0.80081743641E+02  0.11403609668E+03  0.00000000000E+00 0. -1.
         -1    1    6    6    0  502  0.80467195909E+02  0.10783435647E+03  0.13890757974E+03  0.19338700515E+03  0.00000000000E+00 0.  1.
<mgrwt>
<rscale>  0 0.58120083E+03</rscale>
<asrwt>0</asrwt>
<pdfrwt beam="1">  1        1 0.17411934E+00 0.58120083E+03</pdfrwt>
<pdfrwt beam="2">  1       -2 0.76287442E-01 0.58120083E+03</pdfrwt>
<totfact> 0.16959429E+01</totfact>
</mgrwt>
</event>
<event>
12    3  0.1182097E-007  0.6631760E+03  0.7818608E-02  0.9782365E-01
         -2   -1    0    0    0  501 -0.00000000000E+00  0.00000000000E+00  0.42723352642E+03  0.42723352642E+03  0.00000000000E+00 0.  1.
          1   -1    0    0  501    0  0.00000000000E+00 -0.00000000000E+00 -0.11772183911E+04  0.11772183911E+04  0.00000000000E+00 0. -1.
        -24    2    1    2    0    0  0.26709932926E+03  0.49642967543E+03 -0.45716169109E+03  0.73058964850E+03  0.83546085206E+02 0.  0.
    5000000    2    1    2    0    0 -0.26709932926E+03 -0.49642967543E+03 -0.29282317358E+03  0.87386226902E+03  0.60008781015E+03 0.  0.
        -24    2    4    4    0    0  0.12075387434E+03  0.58868916152E+01 -0.14926350693E+03  0.21909514737E+03  0.10538944653E+03 0.  0.
         24    2    4    4    0    0 -0.38785320360E+03 -0.50231656704E+03 -0.14355966666E+03  0.65476712165E+03  0.73202217401E+02 0.  0.
         11    1    3    3    0    0  0.58795370501E+02  0.92219735743E+02 -0.50160247074E+02  0.12032217435E+03  0.00000000000E+00 0. -1.
        -12    1    3    3    0    0  0.20830395876E+03  0.40420993968E+03 -0.40700144402E+03  0.61026747415E+03  0.00000000000E+00 0.  1.
         15    1    5    5    0    0  0.66208294476E+02 -0.10215891006E+02 -0.88452235611E+01  0.67596585678E+02  0.17770000000E+01 0. -1.
        -16    1    5    5    0    0  0.54545579863E+02  0.16102782621E+02 -0.14041828337E+03  0.15149856169E+03  0.00000000000E+00 0.  1.
          2    1    6    6  502    0 -0.13290348186E+03 -0.12138403837E+03 -0.51777234524E+02  0.18729202406E+03  0.00000000000E+00 0. -1.
         -1    1    6    6    0  502 -0.25494972174E+03 -0.38093252868E+03 -0.91782432132E+02  0.46747509759E+03  0.00000000000E+00 0.  1.
<mgrwt>
<rscale>  0 0.66317604E+03</rscale>
<asrwt>0</asrwt>
<pdfrwt beam="1">  1        1 0.18111052E+00 0.66317604E+03</pdfrwt>
<pdfrwt beam="2">  1       -2 0.65728236E-01 0.66317604E+03</pdfrwt>
<totfact> 0.21511577E+01</totfact>
</mgrwt>
</event>
<event>
12    3  0.1182097E-007  0.6062448E+03  0.7818608E-02  0.9892534E-01
          1   -1    0    0  501    0  0.00000000000E+00  0.00000000000E+00  0.40793454235E+03  0.40793454235E+03  0.00000000000E+00 0. -1.
         -2   -1    0    0    0  501 -0.00000000000E+00 -0.00000000000E+00 -0.12312223343E+04  0.12312223343E+04  0.00000000000E+00 0.  1.
        -24    2    1    2    0    0 -0.79005646082E+02 -0.45731755450E+03  0.60102381071E+02  0.47478735004E+03  0.80184124233E+02 0.  0.
    5000000    2    1    2    0    0  0.79005646082E+02  0.45731755450E+03 -0.88339017297E+03  0.11643695266E+04  0.59999746578E+03 0.  0.
        -24    2    4    4    0    0 -0.25098951543E+03  0.21587584854E+03 -0.43154332476E+03  0.54983192177E+03  0.80544287285E+02 0.  0.
         24    2    4    4    0    0  0.32999516151E+03  0.24144170596E+03 -0.45184684821E+03  0.61453760480E+03  0.79372473074E+02 0.  0.
         11    1    3    3    0    0 -0.72566510916E+02 -0.37710666482E+03  0.19163247598E+02  0.38450301068E+03  0.00000000000E+00 0. -1.
        -12    1    3    3    0    0 -0.64391351655E+01 -0.80210889674E+02  0.40939133473E+02  0.90284339359E+02  0.00000000000E+00 0.  1.
         15    1    5    5    0    0 -0.58005095865E+02  0.39746820360E+02 -0.15035385011E+03  0.16599349037E+03  0.17770000000E+01 0. -1.
        -16    1    5    5    0    0 -0.19298441956E+03  0.17612902818E+03 -0.28118947465E+03  0.38383843140E+03  0.00000000000E+00 0.  1.
          4    1    6    6  502    0  0.10443294883E+03  0.33713068444E+02 -0.11213049486E+03  0.15689505940E+03  0.00000000000E+00 0. -1.
         -3    1    6    6    0  502  0.22556221268E+03  0.20772863751E+03 -0.33971635335E+03  0.45764254540E+03  0.00000000000E+00 0.  1.
<mgrwt>
<rscale>  0 0.60624482E+03</rscale>
<asrwt>0</asrwt>
<pdfrwt beam="1">  1        1 0.62759161E-01 0.60624482E+03</pdfrwt>
<pdfrwt beam="2">  1       -2 0.18941882E+00 0.60624482E+03</pdfrwt>
<totfact> 0.83116014E+00</totfact>
</mgrwt>
</event>
<event>
12    3  0.1182097E-007  0.6528418E+03  0.7818608E-02  0.9801461E-01
          1   -1    0    0  501    0  0.00000000000E+00  0.00000000000E+00  0.19770340658E+04  0.19770340658E+04  0.00000000000E+00 0. -1.
         -2   -1    0    0    0  501 -0.00000000000E+00 -0.00000000000E+00 -0.27273462906E+03  0.27273462906E+03  0.00000000000E+00 0.  1.
        -24    2    1    2    0    0  0.40217934758E+03  0.35574488252E+03  0.27110879356E+03  0.60598439097E+03  0.73582981030E+02 0.  0.
    5000000    2    1    2    0    0 -0.40217934758E+03 -0.35574488252E+03  0.14331906431E+04  0.16437843038E+04  0.59974058467E+03 0.  0.
        -24    2    4    4    0    0 -0.50772007194E+03 -0.16611270209E+03  0.76378257862E+03  0.93547485030E+03  0.79851530359E+02 0.  0.
         24    2    4    4    0    0  0.10554072435E+03 -0.18963218043E+03  0.66940806452E+03  0.70830945354E+03  0.80597250401E+02 0.  0.
         13    1    3    3    0    0  0.29787917682E+03  0.21888360216E+03  0.19319320614E+03  0.41709189656E+03  0.00000000000E+00 0. -1.
        -14    1    3    3    0    0  0.10430017076E+03  0.13686128036E+03  0.77915587417E+02  0.18889249441E+03  0.00000000000E+00 0.  1.
         15    1    5    5    0    0 -0.31270717601E+03 -0.12159699895E+03  0.53576049903E+03  0.63215036038E+03  0.17770000000E+01 0. -1.
        -16    1    5    5    0    0 -0.19501289593E+03 -0.44515703142E+02  0.22802207958E+03  0.30332448992E+03  0.00000000000E+00 0.  1.
          2    1    6    6  502    0  0.66164658272E+01 -0.81821895481E+02  0.29857139994E+03  0.30965057898E+03  0.00000000000E+00 0. -1.
         -1    1    6    6    0  502  0.98924258526E+02 -0.10781028495E+03  0.37083666458E+03  0.39865887456E+03  0.00000000000E+00 0.  1.
<mgrwt>
<rscale>  0 0.65284181E+03</rscale>
<asrwt>0</asrwt>
<pdfrwt beam="1">  1        1 0.30415908E+00 0.65284181E+03</pdfrwt>
<pdfrwt beam="2">  1       -2 0.41959175E-01 0.65284181E+03</pdfrwt>
<totfact> 0.15391138E+01</totfact>
</mgrwt>
</event>
<event>
12    3  0.1182097E-007  0.1186481E+04  0.7818608E-02  0.9124772E-01
          1   -1    0    0  501    0  0.00000000000E+00  0.00000000000E+00  0.15118128224E+04  0.15118128224E+04  0.00000000000E+00 0. -1.
         -2   -1    0    0    0  501 -0.00000000000E+00 -0.00000000000E+00 -0.10565195707E+04  0.10565195707E+04  0.00000000000E+00 0.  1.
        -24    2    1    2    0    0  0.27089580853E+03 -0.11377486302E+04 -0.14321235832E+02  0.11724656923E+04  0.81327838584E+02 0.  0.
    5000000    2    1    2    0    0 -0.27089580853E+03  0.11377486302E+04  0.46961448755E+03  0.13958667007E+04  0.60004132746E+03 0.  0.
        -24    2    4    4    0    0 -0.30172595099E+03  0.10305454294E+04  0.20257927066E+03  0.10957296232E+04  0.80762706217E+02 0.  0.
         24    2    4    4    0    0  0.30830142452E+02  0.10720320076E+03  0.26703521689E+03  0.30013707747E+03  0.79570310299E+02 0.  0.
         13    1    3    3    0    0  0.13314367345E+03 -0.45445425579E+03  0.25902858869E+02  0.47426455326E+03  0.00000000000E+00 0. -1.
        -14    1    3    3    0    0  0.13775213509E+03 -0.68329437440E+03 -0.40224094700E+02  0.69820113907E+03  0.00000000000E+00 0.  1.
         15    1    5    5    0    0 -0.25532678661E+03  0.91751077038E+03  0.20189131117E+03  0.97354046705E+03  0.17770000000E+01 0. -1.
        -16    1    5    5    0    0 -0.46399164380E+02  0.11303465905E+03  0.68795948946E+00  0.12218915619E+03  0.00000000000E+00 0.  1.
          4    1    6    6  502    0  0.11713076016E+02  0.10803246710E+03  0.17392331121E+03  0.20507932192E+03  0.00000000000E+00 0. -1.
         -3    1    6    6    0  502  0.19117066437E+02 -0.82926634476E+00  0.93111905681E+02  0.95057755556E+02  0.00000000000E+00 0.  1.
<mgrwt>
<rscale>  0 0.11864812E+04</rscale>
<asrwt>0</asrwt>
<pdfrwt beam="1">  1        1 0.23258659E+00 0.11864812E+04</pdfrwt>
<pdfrwt beam="2">  1       -2 0.16254147E+00 0.11864812E+04</pdfrwt>
<totfact> 0.13264487E+00</totfact>
</mgrwt>
</event>
<event>
12    3  0.1182097E-007  0.5450916E+03  0.7818608E-02  0.1002636E+00
         -2   -1    0    0    0  501 -0.00000000000E+00  0.00000000000E+00  0.16589843091E+04  0.16589843091E+04  0.00000000000E+00 0.  1.
          1   -1    0    0  501    0  0.00000000000E+00 -0.00000000000E+00 -0.33565514244E+03  0.33565514244E+03  0.00000000000E+00 0. -1.
        -24    2    1    2    0    0 -0.46659691167E+03  0.19672806809E+03  0.10400237359E+04  0.11596169573E+04  0.81532238089E+02 0.  0.
    5000000    2    1    2    0    0  0.46659691167E+03 -0.19672806809E+03  0.28330543080E+03  0.83502249419E+03  0.60048812472E+03 0.  0.
        -24    2    4    4    0    0  0.30848351473E+03 -0.25673569469E+03 -0.87064268277E+02  0.41867885341E+03  0.81464714422E+02 0.  0.
         24    2    4    4    0    0  0.15811339694E+03  0.60007626605E+02  0.37036969907E+03  0.41634364078E+03  0.86991675927E+02 0.  0.
         13    1    3    3    0    0 -0.12952670436E+03  0.87673093473E+02  0.27061917694E+03  0.31256755652E+03  0.00000000000E+00 0. -1.
        -14    1    3    3    0    0 -0.33707020731E+03  0.10905497461E+03  0.76940455892E+03  0.84704940082E+03  0.00000000000E+00 0.  1.
         15    1    5    5    0    0  0.11518373094E+03 -0.48279087364E+02 -0.18813873603E+02  0.12631421820E+03  0.17770000000E+01 0. -1.
        -16    1    5    5    0    0  0.19329978379E+03 -0.20845660733E+03 -0.68250394674E+02  0.29236463522E+03  0.00000000000E+00 0.  1.
          2    1    6    6  502    0  0.13838230760E+03  0.59335498763E+02  0.23202340130E+03  0.27659577585E+03  0.00000000000E+00 0. -1.
         -1    1    6    6    0  502  0.19731089340E+02  0.67212784240E+00  0.13834629778E+03  0.13974786492E+03  0.00000000000E+00 0.  1.
<mgrwt>
<rscale>  0 0.54509158E+03</rscale>
<asrwt>0</asrwt>
<pdfrwt beam="1">  1        1 0.51639254E-01 0.54509158E+03</pdfrwt>
<pdfrwt beam="2">  1       -2 0.25522835E+00 0.54509158E+03</pdfrwt>
<totfact> 0.42078832E+00</totfact>
</mgrwt>
</event>
<event>
12    3  0.1182097E-007  0.7177122E+03  0.7818608E-02  0.9687412E-01
         -2   -1    0    0    0  501 -0.00000000000E+00  0.00000000000E+00  0.19185939226E+04  0.19185939226E+04  0.00000000000E+00 0.  1.
          1   -1    0    0  501    0  0.00000000000E+00 -0.00000000000E+00 -0.40223894958E+03  0.40223894958E+03  0.00000000000E+00 0. -1.
        -24    2    1    2    0    0  0.54914922778E+03 -0.29038860485E+03  0.61889060840E+02  0.62926074148E+03  0.79046876729E+02 0.  0.
    5000000    2    1    2    0    0 -0.54914922778E+03  0.29038860485E+03  0.14544659122E+04  0.16915721307E+04  0.60004563782E+03 0.  0.
        -24    2    4    4    0    0 -0.88903003988E+02  0.33427800710E+03  0.88620914034E+03  0.95466575093E+03  0.79840625168E+02 0.  0.
         24    2    4    4    0    0 -0.46024622379E+03 -0.43889402250E+02  0.56825677189E+03  0.73690637981E+03  0.79764576534E+02 0.  0.
         11    1    3    3    0    0  0.10915718913E+03 -0.37088466395E+02 -0.13215249965E+02  0.11604089413E+03  0.00000000000E+00 0. -1.
        -12    1    3    3    0    0  0.43999203864E+03 -0.25330013845E+03  0.75104310806E+02  0.51321984735E+03  0.00000000000E+00 0.  1.
         15    1    5    5    0    0 -0.29216462787E+02  0.40161768181E+02  0.19271694398E+03  0.19902147509E+03  0.17770000000E+01 0. -1.
        -16    1    5    5    0    0 -0.59686541202E+02  0.29411623892E+03  0.69349219636E+03  0.75564427584E+03  0.00000000000E+00 0.  1.
          2    1    6    6  502    0 -0.41110015546E+03 -0.44369106626E+02  0.54029471564E+03  0.68036044505E+03  0.00000000000E+00 0. -1.
         -1    1    6    6    0  502 -0.49146068328E+02  0.47970437528E+00  0.27962056251E+02  0.56545934763E+02  0.00000000000E+00 0.  1.
<mgrwt>
<rscale>  0 0.71771219E+03</rscale>
<asrwt>0</asrwt>
<pdfrwt beam="1">  1        1 0.61882917E-01 0.71771219E+03</pdfrwt>
<pdfrwt beam="2">  1       -2 0.29516829E+00 0.71771219E+03</pdfrwt>
<totfact> 0.18605524E+00</totfact>
</mgrwt>
</event>
<event>
12    3  0.1182097E-007  0.8542080E+03  0.7818608E-02  0.9484706E-01
          1   -1    0    0  501    0  0.00000000000E+00  0.00000000000E+00  0.23121641593E+04  0.23121641593E+04  0.00000000000E+00 0. -1.
         -2   -1    0    0    0  501 -0.00000000000E+00 -0.00000000000E+00 -0.48715073249E+03  0.48715073249E+03  0.00000000000E+00 0.  1.
        -24    2    1    2    0    0  0.58489199866E+03  0.57153463218E+03  0.15405003514E+04  0.17459594729E+04  0.80514982488E+02 0.  0.
    5000000    2    1    2    0    0 -0.58489199866E+03 -0.57153463218E+03  0.28451307548E+03  0.10533554190E+04  0.59988287412E+03 0.  0.
        -24    2    4    4    0    0  0.24208237287E+02 -0.10347764814E+03 -0.12191799407E+03  0.18075438497E+03  0.80712378165E+02 0.  0.
         24    2    4    4    0    0 -0.60910023595E+03 -0.46805698404E+03  0.40643106956E+03  0.87260103400E+03  0.78523324515E+02 0.  0.
         11    1    3    3    0    0  0.26388871812E+03  0.30463993776E+03  0.70920246179E+03  0.81572720871E+03  0.00000000000E+00 0. -1.
        -12    1    3    3    0    0  0.32100328054E+03  0.26689469442E+03  0.83129788958E+03  0.93023226414E+03  0.00000000000E+00 0.  1.
         15    1    5    5    0    0 -0.65098256894E+01 -0.69947993881E+02 -0.11498087652E+03  0.13475481206E+03  0.17770000000E+01 0. -1.
        -16    1    5    5    0    0  0.30718062976E+02 -0.33529654261E+02 -0.69371175508E+01  0.45999572909E+02  0.00000000000E+00 0.  1.
          2    1    6    6  502    0 -0.31078906568E+03 -0.18942499268E+03  0.18990975048E+03  0.41053304924E+03  0.00000000000E+00 0. -1.
         -1    1    6    6    0  502 -0.29831117027E+03 -0.27863199136E+03  0.21652131908E+03  0.46206798476E+03  0.00000000000E+00 0.  1.
<mgrwt>
<rscale>  0 0.85420798E+03</rscale>
<asrwt>0</asrwt>
<pdfrwt beam="1">  1        1 0.35571756E+00 0.85420798E+03</pdfrwt>
<pdfrwt beam="2">  1       -2 0.74946268E-01 0.85420798E+03</pdfrwt>
<totfact> 0.26496070E+00</totfact>
</mgrwt>
</event>
<event>
12    3  0.1182097E-007  0.6360293E+03  0.7818608E-02  0.9833353E-01
          1   -1    0    0  501    0  0.00000000000E+00  0.00000000000E+00  0.49047157559E+03  0.49047157559E+03  0.00000000000E+00 0. -1.
         -2   -1    0    0    0  501 -0.00000000000E+00 -0.00000000000E+00 -0.94845954603E+03  0.94845954603E+03  0.00000000000E+00 0.  1.
        -24    2    1    2    0    0 -0.16379241244E+03 -0.46853248084E+03  0.56629470603E+02  0.50551815872E+03  0.77402014694E+02 0.  0.
    5000000    2    1    2    0    0  0.16379241244E+03  0.46853248084E+03 -0.51461744104E+03  0.93341296290E+03  0.60006500374E+03 0.  0.
        -24    2    4    4    0    0 -0.20814059056E+03  0.93723480360E+02 -0.14283197759E+03  0.28263745513E+03  0.85885743906E+02 0.  0.
         24    2    4    4    0    0  0.37193300300E+03  0.37480900048E+03 -0.37178546345E+03  0.65077550777E+03  0.80426271362E+02 0.  0.
         13    1    3    3    0    0 -0.15160516473E+03 -0.36677535898E+03  0.22539148145E+02  0.39751264525E+03  0.00000000000E+00 0. -1.
        -14    1    3    3    0    0 -0.12187247703E+02 -0.10175712185E+03  0.34090322457E+02  0.10800551347E+03  0.00000000000E+00 0.  1.
         15    1    5    5    0    0 -0.49242460992E+01  0.30061722661E+02 -0.12568841137E+02  0.33001346420E+02  0.17770000000E+01 0. -1.
        -16    1    5    5    0    0 -0.20321634447E+03  0.63661757699E+02 -0.13026313646E+03  0.24963610871E+03  0.00000000000E+00 0.  1.
          2    1    6    6  502    0  0.91422342418E+02  0.11477114611E+03 -0.65178550068E+02  0.16055747900E+03  0.00000000000E+00 0. -1.
         -1    1    6    6    0  502  0.28051066058E+03  0.26003785436E+03 -0.30660691338E+03  0.49021802877E+03  0.00000000000E+00 0.  1.
<mgrwt>
<rscale>  0 0.63602925E+03</rscale>
<asrwt>0</asrwt>
<pdfrwt beam="1">  1        1 0.75457165E-01 0.63602925E+03</pdfrwt>
<pdfrwt beam="2">  1       -2 0.14591685E+00 0.63602925E+03</pdfrwt>
<totfact> 0.13235085E+01</totfact>
</mgrwt>
</event>
<event>
12    3  0.1182097E-007  0.1858772E+04  0.7818608E-02  0.8675655E-01
          1   -1    0    0  501    0  0.00000000000E+00  0.00000000000E+00  0.14276678002E+04  0.14276678002E+04  0.00000000000E+00 0. -1.
         -2   -1    0    0    0  501 -0.00000000000E+00 -0.00000000000E+00 -0.25516894130E+04  0.25516894130E+04  0.00000000000E+00 0.  1.
        -24    2    1    2    0    0  0.16136747983E+04 -0.82972162920E+03 -0.97731018883E+03  0.20626178936E+04  0.82903757063E+02 0.  0.
    5000000    2    1    2    0    0 -0.16136747983E+04  0.82972162920E+03 -0.14671142396E+03  0.19167393197E+04  0.59998420065E+03 0.  0.
        -24    2    4    4    0    0 -0.32860031651E+02  0.16581238786E+03  0.39305003106E+02  0.19024462365E+03  0.77939745373E+02 0.  0.
         24    2    4    4    0    0 -0.15808147667E+04  0.66390924134E+03 -0.18601642706E+03  0.17264946961E+04  0.80193622388E+02 0.  0.
         13    1    3    3    0    0  0.62698825414E+03 -0.34671358543E+03 -0.42484698169E+03  0.83295830568E+03  0.00000000000E+00 0. -1.
        -14    1    3    3    0    0  0.98668654419E+03 -0.48300804378E+03 -0.55246320714E+03  0.12296595879E+04  0.00000000000E+00 0.  1.
         15    1    5    5    0    0  0.24334880482E+02  0.74102367500E+02  0.14513379375E+02  0.79354541061E+02  0.17770000000E+01 0. -1.
        -16    1    5    5    0    0 -0.57194912133E+02  0.91710020363E+02  0.24791623730E+02  0.11089008259E+03  0.00000000000E+00 0.  1.
          2    1    6    6  502    0 -0.23550867026E+03  0.13022517583E+03 -0.33056868805E+02  0.27113776344E+03  0.00000000000E+00 0. -1.
         -1    1    6    6    0  502 -0.13453060964E+04  0.53368406551E+03 -0.15295955826E+03  0.14553569326E+04  0.00000000000E+00 0.  1.
<mgrwt>
<rscale>  0 0.18587718E+04</rscale>
<asrwt>0</asrwt>
<pdfrwt beam="1">  1        1 0.21964120E+00 0.18587718E+04</pdfrwt>
<pdfrwt beam="2">  1       -2 0.39256760E+00 0.18587718E+04</pdfrwt>
<totfact> 0.48515946E-02</totfact>
</mgrwt>
</event>
<event>
12    3  0.1182097E-007  0.2290761E+03  0.7818608E-02  0.1127292E+00
         -2   -1    0    0    0  501 -0.00000000000E+00  0.00000000000E+00  0.16385546277E+03  0.16385546277E+03  0.00000000000E+00 0.  1.
          1   -1    0    0  501    0  0.00000000000E+00 -0.00000000000E+00 -0.12307238141E+04  0.12307238141E+04  0.00000000000E+00 0. -1.
        -24    2    1    2    0    0  0.93324711358E+02  0.81879377503E+02  0.18897419843E+02  0.14786189068E+03  0.78053135929E+02 0.  0.
    5000000    2    1    2    0    0 -0.93324711358E+02 -0.81879377503E+02 -0.10857657711E+04  0.12467173861E+04  0.60000266411E+03 0.  0.
        -24    2    4    4    0    0  0.74082565170E+01  0.10249504470E+03 -0.99676555362E+03  0.10052958315E+04  0.80734277263E+02 0.  0.
         24    2    4    4    0    0 -0.10073296788E+03 -0.18437442220E+03 -0.89000217518E+02  0.24142155463E+03  0.78881366272E+02 0.  0.
         11    1    3    3    0    0  0.40454883279E+02  0.68901071942E+02 -0.18248205753E+02  0.81957015008E+02  0.00000000000E+00 0. -1.
        -12    1    3    3    0    0  0.52869828079E+02  0.12978305561E+02  0.37145625596E+02  0.65904875672E+02  0.00000000000E+00 0.  1.
         15    1    5    5    0    0  0.10227132096E+02  0.81408843822E+02 -0.40937219643E+03  0.41751736134E+03  0.17770000000E+01 0. -1.
        -16    1    5    5    0    0 -0.28188755791E+01  0.21086200873E+02 -0.58739335719E+03  0.58777847017E+03  0.00000000000E+00 0.  1.
          2    1    6    6  502    0 -0.11053669615E+03 -0.16286853281E+03 -0.63908783749E+02  0.20695132958E+03  0.00000000000E+00 0. -1.
         -1    1    6    6    0  502  0.98037282736E+01 -0.21505889385E+02 -0.25091433769E+02  0.34470225048E+02  0.00000000000E+00 0.  1.
<mgrwt>
<rscale>  0 0.22907611E+03</rscale>
<asrwt>0</asrwt>
<pdfrwt beam="1">  1        1 0.18934212E+00 0.22907611E+03</pdfrwt>
<pdfrwt beam="2">  1       -2 0.25208534E-01 0.22907611E+03</pdfrwt>
<totfact> 0.13662895E+02</totfact>
</mgrwt>
</event>
<event>
12    3  0.1182097E-007  0.8184364E+03  0.7818608E-02  0.9533708E-01
         -2   -1    0    0    0  501 -0.00000000000E+00  0.00000000000E+00  0.11540398208E+04  0.11540398208E+04  0.00000000000E+00 0.  1.
          1   -1    0    0  501    0  0.00000000000E+00 -0.00000000000E+00 -0.80822295607E+03  0.80822295607E+03  0.00000000000E+00 0. -1.
        -24    2    1    2    0    0 -0.47876628818E+03  0.65049801589E+03 -0.17352781128E+03  0.82996753005E+03  0.79808347168E+02 0.  0.
    5000000    2    1    2    0    0  0.47876628818E+03 -0.65049801589E+03  0.51934467604E+03  0.11322952468E+04  0.60000733839E+03 0.  0.
        -24    2    4    4    0    0  0.23897632201E+03 -0.20974182915E+03  0.53125353478E+03  0.62425108630E+03  0.79735708122E+02 0.  0.
         24    2    4    4    0    0  0.23978996616E+03 -0.44075618674E+03 -0.11908858735E+02  0.50804416055E+03  0.78751534132E+02 0.  0.
         13    1    3    3    0    0 -0.15329146906E+03  0.24951769383E+03 -0.93149999732E+02  0.30730160505E+03  0.00000000000E+00 0. -1.
        -14    1    3    3    0    0 -0.32547481912E+03  0.40098032206E+03 -0.80377811550E+02  0.52266592499E+03  0.00000000000E+00 0.  1.
         15    1    5    5    0    0  0.58201550481E+02 -0.22504671472E+02  0.15163287856E+03  0.16398039001E+03  0.17770000000E+01 0. -1.
        -16    1    5    5    0    0  0.18077477153E+03 -0.18723715767E+03  0.37962065621E+03  0.46027069629E+03  0.00000000000E+00 0.  1.
          2    1    6    6  502    0  0.12565029330E+03 -0.28787126370E+03  0.19413918540E+02  0.31469788830E+03  0.00000000000E+00 0. -1.
         -1    1    6    6    0  502  0.11413967286E+03 -0.15288492304E+03 -0.31322777275E+02  0.19334627224E+03  0.00000000000E+00 0.  1.
<mgrwt>
<rscale>  0 0.81843645E+03</rscale>
<asrwt>0</asrwt>
<pdfrwt beam="1">  1        1 0.12434199E+00 0.81843645E+03</pdfrwt>
<pdfrwt beam="2">  1       -2 0.17754459E+00 0.81843645E+03</pdfrwt>
<totfact> 0.36539163E+00</totfact>
</mgrwt>
</event>
<event>
12    3  0.1182097E-007  0.5821187E+03  0.7818608E-02  0.9943214E-01
          1   -1    0    0  501    0  0.00000000000E+00  0.00000000000E+00  0.12951342984E+04  0.12951342984E+04  0.00000000000E+00 0. -1.
         -2   -1    0    0    0  501 -0.00000000000E+00 -0.00000000000E+00 -0.52976629373E+03  0.52976629373E+03  0.00000000000E+00 0.  1.
        -24    2    1    2    0    0 -0.71234096900E+02 -0.42830622452E+03 -0.29718482177E+03  0.52973547531E+03  0.61484445071E+02 0.  0.
    5000000    2    1    2    0    0  0.71234096900E+02  0.42830622452E+03  0.10625528265E+04  0.12951651168E+04  0.59992803928E+03 0.  0.
        -24    2    4    4    0    0 -0.21168623490E+03  0.81213398021E+01  0.29622076016E+03  0.37306032518E+03  0.80933610233E+02 0.  0.
         24    2    4    4    0    0  0.28292033180E+03  0.42018488472E+03  0.76633206629E+03  0.92210479165E+03  0.80082204442E+02 0.  0.
         13    1    3    3    0    0 -0.19579701433E+02 -0.28736873178E+03 -0.20576879211E+03  0.35398439021E+03  0.00000000000E+00 0. -1.
        -14    1    3    3    0    0 -0.51654395468E+02 -0.14093749274E+03 -0.91416029665E+02  0.17575108509E+03  0.00000000000E+00 0.  1.
         15    1    5    5    0    0 -0.11619667480E+03  0.31714583800E+02  0.11329998053E+03  0.16537087222E+03  0.17770000000E+01 0. -1.
        -16    1    5    5    0    0 -0.95489560091E+02 -0.23593243998E+02  0.18292077963E+03  0.20768945296E+03  0.00000000000E+00 0.  1.
          4    1    6    6  502    0  0.89459927608E+02  0.11112312894E+03  0.15803650623E+03  0.21290130515E+03  0.00000000000E+00 0. -1.
         -3    1    6    6    0  502  0.19346040419E+03  0.30906175577E+03  0.60829556006E+03  0.70920348650E+03  0.00000000000E+00 0.  1.
<mgrwt>
<rscale>  0 0.58211874E+03</rscale>
<asrwt>0</asrwt>
<pdfrwt beam="1">  1        1 0.19925143E+00 0.58211874E+03</pdfrwt>
<pdfrwt beam="2">  1       -2 0.81502507E-01 0.58211874E+03</pdfrwt>
<totfact> 0.11172209E+01</totfact>
</mgrwt>
</event>
<event>
12    3  0.1182097E-007  0.4286645E+03  0.7818608E-02  0.1034283E+00
         -2   -1    0    0    0  501 -0.00000000000E+00  0.00000000000E+00  0.23311318632E+03  0.23311318632E+03  0.00000000000E+00 0.  1.
          1   -1    0    0  501    0  0.00000000000E+00 -0.00000000000E+00 -0.10570205643E+04  0.10570205643E+04  0.00000000000E+00 0. -1.
        -24    2    1    2    0    0 -0.25938343222E+03 -0.12569989659E+03 -0.40460570104E+03  0.50343613797E+03  0.81620725231E+02 0.  0.
    5000000    2    1    2    0    0  0.25938343222E+03  0.12569989659E+03 -0.41930167693E+03  0.78669761265E+03  0.59999917380E+03 0.  0.
        -24    2    4    4    0    0 -0.10853064767E+03 -0.87154363034E+02  0.29862700793E+02  0.16314536314E+03  0.79685909253E+02 0.  0.
         24    2    4    4    0    0  0.36791407989E+03  0.21285425962E+03 -0.44916437773E+03  0.62355224951E+03  0.80006647447E+02 0.  0.
         13    1    3    3    0    0 -0.15337940185E+03 -0.58702065010E+02 -0.29141336663E+03  0.33450399639E+03  0.00000000000E+00 0. -1.
        -14    1    3    3    0    0 -0.10600403036E+03 -0.66997831577E+02 -0.11319233441E+03  0.16893214158E+03  0.00000000000E+00 0.  1.
         15    1    5    5    0    0 -0.62007646040E+02 -0.31427038233E+02  0.52468094781E+02  0.87112947364E+02  0.17770000000E+01 0. -1.
        -16    1    5    5    0    0 -0.46523001634E+02 -0.55727324801E+02 -0.22605393989E+02  0.76032415771E+02  0.00000000000E+00 0.  1.
          4    1    6    6  502    0  0.52160025444E+02  0.38862052260E+02 -0.11427575897E+03  0.13149097478E+03  0.00000000000E+00 0. -1.
         -3    1    6    6    0  502  0.31575405444E+03  0.17399220736E+03 -0.33488861876E+03  0.49206127473E+03  0.00000000000E+00 0.  1.
<mgrwt>
<rscale>  0 0.42866454E+03</rscale>
<asrwt>0</asrwt>
<pdfrwt beam="1">  1        1 0.16261855E+00 0.42866454E+03</pdfrwt>
<pdfrwt beam="2">  1       -2 0.35863567E-01 0.42866454E+03</pdfrwt>
<totfact> 0.92205934E+01</totfact>
</mgrwt>
</event>
<event>
12    3  0.1922390E-007  0.1548455E+04  0.7818608E-02  0.8852855E-01
         -2   -1    0    0    0  501 -0.00000000000E+00  0.00000000000E+00  0.13899952694E+04  0.13899952694E+04  0.00000000000E+00 0.  1.
          1   -1    0    0  501    0  0.00000000000E+00 -0.00000000000E+00 -0.17879991835E+04  0.17879991835E+04  0.00000000000E+00 0. -1.
        -24    2    1    2    0    0 -0.94754692884E+02  0.15061934882E+04 -0.35878779409E+03  0.15533587173E+04  0.81224057438E+02 0.  0.
    5000000    2    1    2    0    0  0.94754692884E+02 -0.15061934882E+04 -0.39216119973E+02  0.16246357356E+04  0.60025502378E+03 0.  0.
        -24    2    4    4    0    0  0.25640504715E+03 -0.48064019318E+03 -0.16723306375E+03  0.57544450823E+03  0.80068351635E+02 0.  0.
         24    2    4    4    0    0 -0.16165035426E+03 -0.10255532950E+04  0.12801694378E+03  0.10491912274E+04  0.80768160330E+02 0.  0.
         11    1    3    3    0    0 -0.85804104057E+02  0.73316297191E+03 -0.16605144742E+03  0.75661309191E+03  0.00000000000E+00 0. -1.
        -12    1    3    3    0    0 -0.89505888272E+01  0.77303051631E+03 -0.19273634667E+03  0.79674562535E+03  0.00000000000E+00 0.  1.
         15    1    5    5    0    0  0.65805693003E+02 -0.79309888311E+02 -0.56590402583E+02  0.11758434849E+03  0.17770000000E+01 0. -1.
        -16    1    5    5    0    0  0.19059935415E+03 -0.40133030487E+03 -0.11064266117E+03  0.45786015974E+03  0.00000000000E+00 0.  1.
          4    1    6    6  502    0 -0.99399348515E+01 -0.86616934736E+02  0.33471841079E+02  0.93389827247E+02  0.00000000000E+00 0. -1.
         -3    1    6    6    0  502 -0.15171041941E+03 -0.93893636030E+03  0.94545102697E+02  0.95580140013E+03  0.00000000000E+00 0.  1.
<mgrwt>
<rscale>  0 0.15484549E+04</rscale>
<asrwt>0</asrwt>
<pdfrwt beam="1">  1        1 0.27507680E+00 0.15484549E+04</pdfrwt>
<pdfrwt beam="2">  1       -2 0.21384543E+00 0.15484549E+04</pdfrwt>
<totfact> 0.36900136E-01</totfact>
</mgrwt>
</event>
<event>
12    3  0.1182097E-007  0.1156087E+04  0.7818608E-02  0.9152186E-01
          1   -1    0    0  501    0  0.00000000000E+00  0.00000000000E+00  0.24613664398E+04  0.24613664398E+04  0.00000000000E+00 0. -1.
         -2   -1    0    0    0  501 -0.00000000000E+00 -0.00000000000E+00 -0.57503621915E+03  0.57503621915E+03  0.00000000000E+00 0.  1.
        -24    2    1    2    0    0 -0.69354405009E+02  0.10836179576E+04  0.11903022176E+04  0.16139039304E+04  0.93960714542E+02 0.  0.
    5000000    2    1    2    0    0  0.69354405009E+02 -0.10836179576E+04  0.69602800311E+03  0.14224987286E+04  0.60000811691E+03 0.  0.
        -24    2    4    4    0    0 -0.16616271624E+03 -0.90035073874E+03  0.60948826442E+03  0.11026302735E+04  0.77949179597E+02 0.  0.
         24    2    4    4    0    0  0.23551712125E+03 -0.18326721881E+03  0.86539738687E+02  0.31986845509E+03  0.75970483059E+02 0.  0.
         11    1    3    3    0    0 -0.62112772414E+02  0.67890140979E+03  0.68454788682E+03  0.96611124104E+03  0.00000000000E+00 0. -1.
        -12    1    3    3    0    0 -0.72416325948E+01  0.40471654776E+03  0.50575433073E+03  0.64779268931E+03  0.00000000000E+00 0.  1.
         15    1    5    5    0    0 -0.43818524864E+02 -0.44480821695E+03  0.28456155130E+03  0.52986115841E+03  0.17770000000E+01 0. -1.
        -16    1    5    5    0    0 -0.12234419137E+03 -0.45554252179E+03  0.32492671312E+03  0.57276911511E+03  0.00000000000E+00 0.  1.
          4    1    6    6  502    0  0.65708048345E+02 -0.95321189129E+02  0.20635827563E+02  0.11759895447E+03  0.00000000000E+00 0. -1.
         -3    1    6    6    0  502  0.16980907290E+03 -0.87946029686E+02  0.65903911123E+02  0.20226950061E+03  0.00000000000E+00 0.  1.
<mgrwt>
<rscale>  0 0.11560872E+04</rscale>
<asrwt>0</asrwt>
<pdfrwt beam="1">  1        1 0.37867176E+00 0.11560872E+04</pdfrwt>
<pdfrwt beam="2">  1       -2 0.88467112E-01 0.11560872E+04</pdfrwt>
<totfact> 0.13809232E+00</totfact>
</mgrwt>
</event>
<event>
12    3  0.1182097E-007  0.3620195E+03  0.7818608E-02  0.1057787E+00
          1   -1    0    0  501    0  0.00000000000E+00  0.00000000000E+00  0.70303112028E+03  0.70303112028E+03  0.00000000000E+00 0. -1.
         -2   -1    0    0    0  501 -0.00000000000E+00 -0.00000000000E+00 -0.25464571400E+03  0.25464571400E+03  0.00000000000E+00 0.  1.
        -24    2    1    2    0    0 -0.72785506228E+02 -0.14260255975E+03  0.24714674743E+03  0.30491789091E+03  0.79121333842E+02 0.  0.
    5000000    2    1    2    0    0  0.72785506228E+02  0.14260255975E+03  0.20123865885E+03  0.65275894336E+03  0.59997001622E+03 0.  0.
        -24    2    4    4    0    0 -0.49384967799E+02  0.32189081456E+03 -0.16387388662E+02  0.33559489397E+03  0.79390268969E+02 0.  0.
         24    2    4    4    0    0  0.12217047403E+03 -0.17928825481E+03  0.21762604751E+03  0.31716404939E+03  0.78498628244E+02 0.  0.
         13    1    3    3    0    0 -0.85389359223E+02 -0.12165538432E+03  0.23385561788E+03  0.27709172708E+03  0.00000000000E+00 0. -1.
        -14    1    3    3    0    0  0.12603852996E+02 -0.20947175434E+02  0.13291129553E+02  0.27826163836E+02  0.00000000000E+00 0.  1.
         15    1    5    5    0    0 -0.68611232990E+02  0.23198564813E+03  0.15139910149E+01  0.24193034561E+03  0.17770000000E+01 0. -1.
        -16    1    5    5    0    0  0.19226265191E+02  0.89905166436E+02 -0.17901379677E+02  0.93664548360E+02  0.00000000000E+00 0.  1.
          2    1    6    6  502    0  0.86552177326E+02 -0.12055728315E+03  0.19457094936E+03  0.24471042531E+03  0.00000000000E+00 0. -1.
         -1    1    6    6    0  502  0.35618296701E+02 -0.58730971667E+02  0.23055098151E+02  0.72453624089E+02  0.00000000000E+00 0.  1.
<mgrwt>
<rscale>  0 0.36201947E+03</rscale>
<asrwt>0</asrwt>
<pdfrwt beam="1">  1        1 0.10815863E+00 0.36201947E+03</pdfrwt>
<pdfrwt beam="2">  1       -2 0.39176264E-01 0.36201947E+03</pdfrwt>
<totfact> 0.15256805E+02</totfact>
</mgrwt>
</event>
<event>
12    3  0.1182097E-007  0.5003022E+03  0.7818608E-02  0.1013700E+00
         -2   -1    0    0    0  501 -0.00000000000E+00  0.00000000000E+00  0.57412109714E+03  0.57412109714E+03  0.00000000000E+00 0.  1.
          1   -1    0    0  501    0  0.00000000000E+00 -0.00000000000E+00 -0.48757008643E+03  0.48757008643E+03  0.00000000000E+00 0. -1.
        -24    2    1    2    0    0 -0.12440975064E+03  0.30163883494E+03  0.16406107528E+03  0.37428082622E+03  0.81892170873E+02 0.  0.
    5000000    2    1    2    0    0  0.12440975064E+03 -0.30163883494E+03 -0.77510064573E+02  0.68741035736E+03  0.60005117823E+03 0.  0.
        -24    2    4    4    0    0  0.12568492472E+03  0.15152184079E+03 -0.79571111539E+02  0.22724330530E+03  0.80946831153E+02 0.  0.
         24    2    4    4    0    0 -0.12751740836E+01 -0.45316067574E+03  0.20610469660E+01  0.46016705206E+03  0.79957762466E+02 0.  0.
         13    1    3    3    0    0 -0.75429853924E+02  0.23738241189E+03  0.90486838443E+02  0.26500554762E+03  0.00000000000E+00 0. -1.
        -14    1    3    3    0    0 -0.48979896715E+02  0.64256423051E+02  0.73574236839E+02  0.10927527859E+03  0.00000000000E+00 0.  1.
         15    1    5    5    0    0  0.35889049075E+02 -0.17923750540E+00 -0.20238894293E+02  0.41241078318E+02  0.17770000000E+01 0. -1.
        -16    1    5    5    0    0  0.89795875647E+02  0.15170107830E+03 -0.59332217246E+02  0.18600222699E+03  0.00000000000E+00 0.  1.
          4    1    6    6  502    0  0.28660893951E+02 -0.34785197695E+03 -0.15059658055E+02  0.34935546083E+03  0.00000000000E+00 0. -1.
         -3    1    6    6    0  502 -0.29936068034E+02 -0.10530869879E+03  0.17120705021E+02  0.11081159123E+03  0.00000000000E+00 0.  1.
<mgrwt>
<rscale>  0 0.50030225E+03</rscale>
<asrwt>0</asrwt>
<pdfrwt beam="1">  1        1 0.75010783E-01 0.50030225E+03</pdfrwt>
<pdfrwt beam="2">  1       -2 0.88326323E-01 0.50030225E+03</pdfrwt>
<totfact> 0.46010215E+01</totfact>
</mgrwt>
</event>
<event>
12    3  0.1182097E-007  0.8966393E+03  0.7818608E-02  0.9429792E-01
          1   -1    0    0  501    0  0.00000000000E+00  0.00000000000E+00  0.61968751703E+03  0.61968751703E+03  0.00000000000E+00 0. -1.
         -2   -1    0    0    0  501 -0.00000000000E+00 -0.00000000000E+00 -0.16498972075E+04  0.16498972075E+04  0.00000000000E+00 0.  1.
        -24    2    1    2    0    0  0.22753250679E+03 -0.79580399660E+03 -0.92192569812E+03  0.12415716794E+04  0.80487264157E+02 0.  0.
    5000000    2    1    2    0    0 -0.22753250679E+03  0.79580399660E+03 -0.10828399235E+03  0.10280130451E+04  0.60000862927E+03 0.  0.
        -24    2    4    4    0    0 -0.37291498582E+03  0.63158086981E+03 -0.21890952156E+03  0.76929749777E+03  0.77053745508E+02 0.  0.
         24    2    4    4    0    0  0.14538247903E+03  0.16422312680E+03  0.11062552922E+03  0.25871554730E+03  0.81181439492E+02 0.  0.
         11    1    3    3    0    0  0.18601995077E+03 -0.61848478467E+03 -0.66880521132E+03  0.92974580486E+03  0.00000000000E+00 0. -1.
        -12    1    3    3    0    0  0.41512556018E+02 -0.17731921193E+03 -0.25312048679E+03  0.31182587459E+03  0.00000000000E+00 0.  1.
         15    1    5    5    0    0 -0.29943269481E+03  0.45306964809E+03 -0.18194104529E+03  0.57274579565E+03  0.17770000000E+01 0. -1.
        -16    1    5    5    0    0 -0.73482291009E+02  0.17851122172E+03 -0.36968476269E+02  0.19655170213E+03  0.00000000000E+00 0.  1.
          2    1    6    6  502    0  0.99206930810E+01 -0.60378210103E+01 -0.46259913622E+01  0.12501009153E+02  0.00000000000E+00 0. -1.
         -1    1    6    6    0  502  0.13546178595E+03  0.17026094781E+03  0.11525152058E+03  0.24621453815E+03  0.00000000000E+00 0.  1.
<mgrwt>
<rscale>  0 0.89663928E+03</rscale>
<asrwt>0</asrwt>
<pdfrwt beam="1">  1        1 0.95336541E-01 0.89663928E+03</pdfrwt>
<pdfrwt beam="2">  1       -2 0.25383034E+00 0.89663928E+03</pdfrwt>
<totfact> 0.17693600E+00</totfact>
</mgrwt>
</event>
<event>
12    3  0.1182097E-007  0.9538362E+03  0.7818608E-02  0.9360678E-01
         -2   -1    0    0    0  501 -0.00000000000E+00  0.00000000000E+00  0.65072689428E+03  0.65072689428E+03  0.00000000000E+00 0.  1.
          1   -1    0    0  501    0  0.00000000000E+00 -0.00000000000E+00 -0.16773914009E+04  0.16773914009E+04  0.00000000000E+00 0. -1.
        -24    2    1    2    0    0  0.88493891475E+03 -0.32801811443E+03 -0.64746320080E+03  0.11472066117E+04  0.78496161801E+02 0.  0.
    5000000    2    1    2    0    0 -0.88493891475E+03  0.32801811443E+03 -0.37920130586E+03  0.11809116835E+04  0.60003833841E+03 0.  0.
        -24    2    4    4    0    0 -0.32963852091E+03  0.69434778560E+02  0.13856134496E+03  0.37339189670E+03  0.82094575092E+02 0.  0.
         24    2    4    4    0    0 -0.55530039383E+03  0.25858333587E+03 -0.51776265081E+03  0.80751978677E+03  0.93734595907E+02 0.  0.
         11    1    3    3    0    0  0.10938867004E+03 -0.56818933940E+02 -0.11176970540E+03  0.16639332749E+03  0.00000000000E+00 0. -1.
        -12    1    3    3    0    0  0.77555024471E+03 -0.27119918049E+03 -0.53569349540E+03  0.98081328426E+03  0.00000000000E+00 0.  1.
         15    1    5    5    0    0 -0.23335975761E+03  0.16194457979E+02  0.71787249584E+02  0.24469492000E+03  0.17770000000E+01 0. -1.
        -16    1    5    5    0    0 -0.96278763304E+02  0.53240320581E+02  0.66774095373E+02  0.12869697670E+03  0.00000000000E+00 0.  1.
          4    1    6    6  502    0 -0.29233526478E+03  0.18438998436E+03 -0.30977040303E+03  0.46413066690E+03  0.00000000000E+00 0. -1.
         -3    1    6    6    0  502 -0.26296512905E+03  0.74193351508E+02 -0.20799224779E+03  0.34338911987E+03  0.00000000000E+00 0.  1.
<mgrwt>
<rscale>  0 0.95383622E+03</rscale>
<asrwt>0</asrwt>
<pdfrwt beam="1">  1        1 0.25806021E+00 0.95383622E+03</pdfrwt>
<pdfrwt beam="2">  1       -2 0.10011183E+00 0.95383622E+03</pdfrwt>
<totfact> 0.35986032E+00</totfact>
</mgrwt>
</event>
<event>
12    3  0.1182097E-007  0.1293020E+04  0.7818608E-02  0.9035119E-01
          1   -1    0    0  501    0  0.00000000000E+00  0.00000000000E+00  0.91670206137E+03  0.91670206137E+03  0.00000000000E+00 0. -1.
         -2   -1    0    0    0  501 -0.00000000000E+00 -0.00000000000E+00 -0.20774683339E+04  0.20774683339E+04  0.00000000000E+00 0.  1.
        -24    2    1    2    0    0  0.90246558260E+03 -0.91057814472E+03 -0.86357492620E+03  0.15477913684E+04  0.79371162454E+02 0.  0.
    5000000    2    1    2    0    0 -0.90246558260E+03  0.91057814472E+03 -0.29719134632E+03  0.14463790269E+04  0.60007741806E+03 0.  0.
        -24    2    4    4    0    0 -0.80675945323E+03  0.75044639487E+03 -0.22672047989E+02  0.11048402917E+04  0.78277975374E+02 0.  0.
         24    2    4    4    0    0 -0.95706129374E+02  0.16013174984E+03 -0.27451929833E+03  0.34153873519E+03  0.80535842803E+02 0.  0.
         13    1    3    3    0    0  0.15788383002E+03 -0.15187437777E+03 -0.11311790607E+03  0.24655382998E+03  0.00000000000E+00 0. -1.
        -14    1    3    3    0    0  0.74458175258E+03 -0.75870376695E+03 -0.75045702012E+03  0.13012375384E+04  0.00000000000E+00 0.  1.
         15    1    5    5    0    0 -0.26521283663E+03  0.19879563268E+03  0.49925793108E+00  0.33145280097E+03  0.17770000000E+01 0. -1.
        -16    1    5    5    0    0 -0.54154661660E+03  0.55165076219E+03 -0.23171305920E+02  0.77338749072E+03  0.00000000000E+00 0.  1.
          2    1    6    6  502    0 -0.56215726013E+02  0.30556072099E+02 -0.59294655474E+02  0.87233809736E+02  0.00000000000E+00 0. -1.
         -1    1    6    6    0  502 -0.39490403361E+02  0.12957567775E+03 -0.21522464285E+03  0.25430492546E+03  0.00000000000E+00 0.  1.
<mgrwt>
<rscale>  0 0.12930198E+04</rscale>
<asrwt>0</asrwt>
<pdfrwt beam="1">  1        1 0.14103109E+00 0.12930198E+04</pdfrwt>
<pdfrwt beam="2">  1       -2 0.31961051E+00 0.12930198E+04</pdfrwt>
<totfact> 0.36192510E-01</totfact>
</mgrwt>
</event>
<event>
12    3  0.1182097E-007  0.1061190E+04  0.7818608E-02  0.9243867E-01
         -4   -1    0    0    0  501 -0.00000000000E+00  0.00000000000E+00  0.10223773668E+04  0.10223773668E+04  0.00000000000E+00 0.  1.
          1   -1    0    0  501    0  0.00000000000E+00 -0.00000000000E+00 -0.13741903233E+04  0.13741903233E+04  0.00000000000E+00 0. -1.
        -24    2    1    2    0    0  0.92767689058E+03  0.48714397101E+03  0.19797566114E+03  0.10695406511E+04  0.82638853101E+02 0.  0.
    5000000    2    1    2    0    0 -0.92767689058E+03 -0.48714397101E+03 -0.54978861767E+03  0.13270270391E+04  0.60069923971E+03 0.  0.
        -24    2    4    4    0    0 -0.50994304320E+03 -0.15045340491E+03  0.23729364361E+02  0.53817489864E+03  0.79943757969E+02 0.  0.
         24    2    4    4    0    0 -0.41773384739E+03 -0.33669056610E+03 -0.57351798203E+03  0.78885214047E+03  0.74180315815E+02 0.  0.
         13    1    3    3    0    0  0.46761407800E+03  0.22374272942E+03  0.60716002888E+02  0.52192927482E+03  0.00000000000E+00 0. -1.
        -14    1    3    3    0    0  0.46006281258E+03  0.26340124159E+03  0.13725965825E+03  0.54761137623E+03  0.00000000000E+00 0.  1.
         15    1    5    5    0    0 -0.16798762828E+03 -0.14926344521E+02  0.23886529445E+02  0.17034190041E+03  0.17770000000E+01 0. -1.
        -16    1    5    5    0    0 -0.34195541492E+03 -0.13552706039E+03 -0.15716508322E+00  0.36783299823E+03  0.00000000000E+00 0.  1.
          4    1    6    6  502    0 -0.23006845715E+03 -0.16613455457E+03 -0.25332234226E+03  0.38040030794E+03  0.00000000000E+00 0. -1.
         -3    1    6    6    0  502 -0.18766539024E+03 -0.17055601153E+03 -0.32019563978E+03  0.40845183253E+03  0.00000000000E+00 0.  1.
<mgrwt>
<rscale>  0 0.10611896E+04</rscale>
<asrwt>0</asrwt>
<pdfrwt beam="1">  1        1 0.21141390E+00 0.10611896E+04</pdfrwt>
<pdfrwt beam="2">  1       -4 0.15728883E+00 0.10611896E+04</pdfrwt>
<totfact> 0.99206519E-01</totfact>
</mgrwt>
</event>
<event>
12    3  0.1182097E-007  0.3335900E+03  0.7818608E-02  0.1069559E+00
          1   -1    0    0  501    0  0.00000000000E+00  0.00000000000E+00  0.26579520459E+04  0.26579520459E+04  0.00000000000E+00 0. -1.
         -2   -1    0    0    0  501 -0.00000000000E+00 -0.00000000000E+00 -0.13543215927E+03  0.13543215927E+03  0.00000000000E+00 0.  1.
        -24    2    1    2    0    0  0.89421042924E+02 -0.15351457199E+03  0.45227640659E+00  0.19481637451E+03  0.79939780396E+02 0.  0.
    5000000    2    1    2    0    0 -0.89421042924E+02  0.15351457199E+03  0.25220676103E+04  0.25985678307E+04  0.60013906159E+03 0.  0.
        -24    2    4    4    0    0  0.16076075575E+03  0.14162971537E+03  0.40265459347E+03  0.46293391442E+03  0.79209157395E+02 0.  0.
         24    2    4    4    0    0 -0.25018179867E+03  0.11884856622E+02  0.21194130168E+04  0.21356339163E+04  0.79300103254E+02 0.  0.
         13    1    3    3    0    0  0.30712082091E+01 -0.60928655183E+01  0.21610455478E+02  0.22662019240E+02  0.00000000000E+00 0. -1.
        -14    1    3    3    0    0  0.86349834715E+02 -0.14742170648E+03 -0.21158179071E+02  0.17215435527E+03  0.00000000000E+00 0.  1.
         15    1    5    5    0    0  0.92265333789E+02  0.12661684629E+03  0.30257143118E+03  0.34073060660E+03  0.17770000000E+01 0. -1.
        -16    1    5    5    0    0  0.68495421957E+02  0.15012869085E+02  0.10008316229E+03  0.12220330782E+03  0.00000000000E+00 0.  1.
          2    1    6    6  502    0 -0.17727566040E+03  0.44598067830E+02  0.14830010524E+04  0.14942248054E+04  0.00000000000E+00 0. -1.
         -1    1    6    6    0  502 -0.72906138274E+02 -0.32713211208E+02  0.63641196438E+03  0.64140911093E+03  0.00000000000E+00 0.  1.
<mgrwt>
<rscale>  0 0.33358995E+03</rscale>
<asrwt>0</asrwt>
<pdfrwt beam="1">  1        1 0.40891566E+00 0.33358995E+03</pdfrwt>
<pdfrwt beam="2">  1       -2 0.20835719E-01 0.33358995E+03</pdfrwt>
<totfact> 0.21049200E+01</totfact>
</mgrwt>
</event>
<event>
12    3  0.1182097E-007  0.9885559E+03  0.7818608E-02  0.9321186E-01
          1   -1    0    0  501    0  0.00000000000E+00  0.00000000000E+00  0.13250804286E+04  0.13250804286E+04  0.00000000000E+00 0. -1.
         -2   -1    0    0    0  501 -0.00000000000E+00 -0.00000000000E+00 -0.10209802039E+04  0.10209802039E+04  0.00000000000E+00 0.  1.
        -24    2    1    2    0    0 -0.88985897788E+03 -0.13760399821E+03  0.75112614774E+03  0.11753452050E+04  0.80386567509E+02 0.  0.
    5000000    2    1    2    0    0  0.88985897788E+03  0.13760399821E+03 -0.44702592302E+03  0.11707154275E+04  0.59996547858E+03 0.  0.
        -24    2    4    4    0    0  0.97078080068E+02 -0.18233876064E+03 -0.62924412943E+02  0.23054920443E+03  0.80758136793E+02 0.  0.
         24    2    4    4    0    0  0.79278089781E+03  0.31994275885E+03 -0.38410151007E+03  0.94016622307E+03  0.74253862396E+02 0.  0.
         13    1    3    3    0    0 -0.87261328629E+02 -0.34826731769E+02  0.62613213236E+02  0.11290640014E+03  0.00000000000E+00 0. -1.
        -14    1    3    3    0    0 -0.80259764925E+03 -0.10277726644E+03  0.68851293450E+03  0.10624388049E+04  0.00000000000E+00 0.  1.
         15    1    5    5    0    0  0.31252291435E+00 -0.71177274310E+02 -0.24400670396E+01  0.71241937824E+02  0.17770000000E+01 0. -1.
        -16    1    5    5    0    0  0.96765557153E+02 -0.11116148633E+03 -0.60484345903E+02  0.15930726660E+03  0.00000000000E+00 0.  1.
          2    1    6    6  502    0  0.30231118436E+03  0.13768731744E+03 -0.11311607172E+03  0.35092035458E+03  0.00000000000E+00 0. -1.
         -3    1    6    6    0  502  0.49046971345E+03  0.18225544141E+03 -0.27098543835E+03  0.58924586849E+03  0.00000000000E+00 0.  1.
<mgrwt>
<rscale>  0 0.98855589E+03</rscale>
<asrwt>0</asrwt>
<pdfrwt beam="1">  1        1 0.20385853E+00 0.98855589E+03</pdfrwt>
<pdfrwt beam="2">  1       -2 0.15707388E+00 0.98855589E+03</pdfrwt>
<totfact> 0.20129539E+00</totfact>
</mgrwt>
</event>
<event>
12    3  0.1182097E-007  0.4580373E+03  0.7818608E-02  0.1025352E+00
          1   -1    0    0  501    0  0.00000000000E+00  0.00000000000E+00  0.10877079734E+04  0.10877079734E+04  0.00000000000E+00 0. -1.
         -2   -1    0    0    0  501 -0.00000000000E+00 -0.00000000000E+00 -0.26005657894E+03  0.26005657894E+03  0.00000000000E+00 0.  1.
        -24    2    1    2    0    0 -0.19476120288E+03 -0.29590121904E+03  0.23064702540E+03  0.43018169863E+03  0.79804673610E+02 0.  0.
    5000000    2    1    2    0    0  0.19476120288E+03  0.29590121904E+03  0.59700436910E+03  0.91758285374E+03  0.60004551426E+03 0.  0.
        -24    2    4    4    0    0  0.24891840602E+03 -0.54195960114E+01  0.22956059729E+02  0.26220401576E+03  0.78957079014E+02 0.  0.
         24    2    4    4    0    0 -0.54157203139E+02  0.30132081505E+03  0.57404830937E+03  0.65537883798E+03  0.79137371409E+02 0.  0.
         11    1    3    3    0    0 -0.10455915273E+03 -0.12701236010E+03  0.14926288868E+03  0.22213546762E+03  0.00000000000E+00 0. -1.
        -12    1    3    3    0    0 -0.90202050151E+02 -0.16888885894E+03  0.81384136716E+02  0.20804623101E+03  0.00000000000E+00 0.  1.
         15    1    5    5    0    0  0.12801952199E+03 -0.46001172746E+01  0.51334482563E+02  0.13801646974E+03  0.17770000000E+01 0. -1.
        -16    1    5    5    0    0  0.12089888403E+03 -0.81947873688E+00 -0.28378422833E+02  0.12418754602E+03  0.00000000000E+00 0.  1.
          4    1    6    6  502    0  0.12322487287E+01  0.14888206728E+03  0.21638344597E+03  0.26265792218E+03  0.00000000000E+00 0. -1.
         -3    1    6    6    0  502 -0.55389451867E+02  0.15243874778E+03  0.35766486340E+03  0.39272091581E+03  0.00000000000E+00 0.  1.
<mgrwt>
<rscale>  0 0.45803726E+03</rscale>
<asrwt>0</asrwt>
<pdfrwt beam="1">  1        1 0.16733969E+00 0.45803726E+03</pdfrwt>
<pdfrwt beam="2">  1       -2 0.40008705E-01 0.45803726E+03</pdfrwt>
<totfact> 0.70684073E+01</totfact>
</mgrwt>
</event>
<event>
12    3  0.1182097E-007  0.4012740E+03  0.7818608E-02  0.1043339E+00
         -2   -1    0    0    0  501 -0.00000000000E+00  0.00000000000E+00  0.29538228511E+03  0.29538228511E+03  0.00000000000E+00 0.  1.
          1   -1    0    0  501    0  0.00000000000E+00 -0.00000000000E+00 -0.67475965918E+03  0.67475965918E+03  0.00000000000E+00 0. -1.
        -24    2    1    2    0    0 -0.21805494660E+03  0.42827724732E+02 -0.21321478016E+02  0.23694354420E+03  0.79406951632E+02 0.  0.
    5000000    2    1    2    0    0  0.21805494660E+03 -0.42827724732E+02 -0.35805589605E+03  0.73319840009E+03  0.59999474619E+03 0.  0.
        -24    2    4    4    0    0  0.12157445554E+03  0.23658381176E+03 -0.32165327534E+03  0.42479283126E+03  0.78967535917E+02 0.  0.
         24    2    4    4    0    0  0.96480491061E+02 -0.27941153649E+03 -0.36402620718E+02  0.30840556883E+03  0.80059679059E+02 0.  0.
         11    1    3    3    0    0 -0.19826835132E+03  0.39347404348E+02  0.69573854124E+01  0.20225469729E+03  0.00000000000E+00 0. -1.
        -12    1    3    3    0    0 -0.19786595283E+02  0.34803203834E+01 -0.28278863428E+02  0.34688846906E+02  0.00000000000E+00 0.  1.
         15    1    5    5    0    0  0.11236026042E+03  0.13858892315E+03 -0.22064553987E+03  0.28375928132E+03  0.17770000000E+01 0. -1.
        -16    1    5    5    0    0  0.92141951279E+01  0.97994888612E+02 -0.10100773547E+03  0.14103354994E+03  0.00000000000E+00 0.  1.
          2    1    6    6  502    0  0.42099910400E+02 -0.21541935319E+03 -0.44763736959E+02  0.22401270574E+03  0.00000000000E+00 0. -1.
         -1    1    6    6    0  502  0.54380580660E+02 -0.63992183302E+02  0.83611162412E+01  0.84392863096E+02  0.00000000000E+00 0.  1.
<mgrwt>
<rscale>  0 0.40127404E+03</rscale>
<asrwt>0</asrwt>
<pdfrwt beam="1">  1        1 0.10380918E+00 0.40127404E+03</pdfrwt>
<pdfrwt beam="2">  1       -2 0.45443429E-01 0.40127404E+03</pdfrwt>
<totfact> 0.12087879E+02</totfact>
</mgrwt>
</event>
<event>
12    3  0.1182097E-007  0.1881605E+04  0.7818608E-02  0.8664068E-01
         -2   -1    0    0    0  501 -0.00000000000E+00  0.00000000000E+00  0.25117759978E+04  0.25117759978E+04  0.00000000000E+00 0.  1.
          1   -1    0    0  501    0  0.00000000000E+00 -0.00000000000E+00 -0.24858473801E+04  0.24858473801E+04  0.00000000000E+00 0. -1.
        -24    2    1    2    0    0 -0.80771870532E+03  0.16768473892E+04  0.16243400234E+04  0.24719045253E+04  0.87205484966E+02 0.  0.
    5000000    2    1    2    0    0  0.80771870532E+03 -0.16768473892E+04 -0.15984114058E+04  0.25257188527E+04  0.60009168229E+03 0.  0.
        -24    2    4    4    0    0  0.61713106410E+03 -0.15236582448E+04 -0.15553395865E+04  0.22644841027E+04  0.80136290877E+02 0.  0.
         24    2    4    4    0    0  0.19058764122E+03 -0.15318914438E+03 -0.43071819308E+02  0.26123474994E+03  0.81227150733E+02 0.  0.
         11    1    3    3    0    0 -0.62677913748E+03  0.13344818949E+04  0.12426938662E+04  0.19282069547E+04  0.00000000000E+00 0. -1.
        -12    1    3    3    0    0 -0.18093956784E+03  0.34236549425E+03  0.38164615729E+03  0.54369757057E+03  0.00000000000E+00 0.  1.
         15    1    5    5    0    0  0.58129687005E+02 -0.21483906386E+03 -0.21787540121E+03  0.31146064286E+03  0.17770000000E+01 0. -1.
        -16    1    5    5    0    0  0.55900137710E+03 -0.13088191810E+04 -0.13374641852E+04  0.19530234599E+04  0.00000000000E+00 0.  1.
          4    1    6    6  502    0  0.14297832352E+02  0.85113932063E+01 -0.10831112859E+02  0.19854088497E+02  0.00000000000E+00 0. -1.
         -3    1    6    6    0  502  0.17628980887E+03 -0.16170053759E+03 -0.32240706448E+02  0.24138066144E+03  0.00000000000E+00 0.  1.
<mgrwt>
<rscale>  0 0.18816046E+04</rscale>
<asrwt>0</asrwt>
<pdfrwt beam="1">  1        1 0.38243806E+00 0.18816046E+04</pdfrwt>
<pdfrwt beam="2">  1       -2 0.38642708E+00 0.18816046E+04</pdfrwt>
<totfact> 0.98933845E-03</totfact>
</mgrwt>
</event>
<event>
12    3  0.1182097E-007  0.1235367E+04  0.7818608E-02  0.9082451E-01
          1   -1    0    0  501    0  0.00000000000E+00  0.00000000000E+00  0.34205266528E+04  0.34205266528E+04  0.00000000000E+00 0. -1.
         -2   -1    0    0    0  501 -0.00000000000E+00 -0.00000000000E+00 -0.53058188315E+03  0.53058188315E+03  0.00000000000E+00 0.  1.
        -24    2    1    2    0    0  0.12640163637E+03 -0.11879397596E+04  0.70466369648E+03  0.13892820644E+04  0.79846622884E+02 0.  0.
    5000000    2    1    2    0    0 -0.12640163637E+03  0.11879397596E+04  0.21852810732E+04  0.25618264716E+04  0.60026931917E+03 0.  0.
        -24    2    4    4    0    0 -0.27898475802E+03  0.61471236524E+03  0.78256199972E+03  0.10366446408E+04  0.80777724397E+02 0.  0.
         24    2    4    4    0    0  0.15258312166E+03  0.57322739436E+03  0.14027190735E+04  0.15251818307E+04  0.81777522193E+02 0.  0.
         11    1    3    3    0    0  0.66076198701E+02 -0.92984131767E+03  0.55488674885E+03  0.10848365057E+04  0.00000000000E+00 0. -1.
        -12    1    3    3    0    0  0.60325437667E+02 -0.25809844193E+03  0.14977694762E+03  0.30444555868E+03  0.00000000000E+00 0.  1.
         15    1    5    5    0    0 -0.18656522900E+03  0.48944984907E+03  0.58801782352E+03  0.78748705255E+03  0.17770000000E+01 0. -1.
        -16    1    5    5    0    0 -0.92419529024E+02  0.12526251616E+03  0.19454417620E+03  0.24915758827E+03  0.00000000000E+00 0.  1.
          4    1    6    6  502    0  0.13708128784E+03  0.46811053621E+03  0.10705782901E+04  0.11764593613E+04  0.00000000000E+00 0. -1.
         -3    1    6    6    0  502  0.15501833818E+02  0.10511685815E+03  0.33214078333E+03  0.34872246941E+03  0.00000000000E+00 0.  1.
<mgrwt>
<rscale>  0 0.12353672E+04</rscale>
<asrwt>0</asrwt>
<pdfrwt beam="1">  1        1 0.52623486E+00 0.12353672E+04</pdfrwt>
<pdfrwt beam="2">  1       -2 0.81627984E-01 0.12353672E+04</pdfrwt>
<totfact> 0.33330935E-01</totfact>
</mgrwt>
</event>
<event>
12    3  0.1182097E-007  0.1288349E+04  0.7818608E-02  0.9038856E-01
         -2   -1    0    0    0  501 -0.00000000000E+00  0.00000000000E+00  0.79527583339E+03  0.79527583339E+03  0.00000000000E+00 0.  1.
          1   -1    0    0  501    0  0.00000000000E+00 -0.00000000000E+00 -0.24148436850E+04  0.24148436850E+04  0.00000000000E+00 0. -1.
        -24    2    1    2    0    0 -0.11864588007E+04 -0.35256919474E+03 -0.13002661956E+04  0.17979064132E+04  0.98923042887E+02 0.  0.
    5000000    2    1    2    0    0  0.11864588007E+04  0.35256919474E+03 -0.31930165600E+03  0.14122131052E+04  0.60033555948E+03 0.  0.
        -24    2    4    4    0    0  0.85776265715E+03  0.21190158529E+02 -0.36135376878E+03  0.93446897135E+03  0.80311352759E+02 0.  0.
         24    2    4    4    0    0  0.32869614356E+03  0.33137903621E+03  0.42052112776E+02  0.47774413381E+03  0.92832412242E+02 0.  0.
         11    1    3    3    0    0 -0.11364521679E+04 -0.35034041669E+03 -0.12676612322E+04  0.17381676953E+04  0.00000000000E+00 0. -1.
        -12    1    3    3    0    0 -0.50006632818E+02 -0.22287780526E+01 -0.32604963436E+02  0.59738717914E+02  0.00000000000E+00 0.  1.
         15    1    5    5    0    0  0.24353775264E+03  0.42256672405E+02 -0.10211033952E+03  0.26744334445E+03  0.17770000000E+01 0. -1.
        -16    1    5    5    0    0  0.61422490451E+03 -0.21066513877E+02 -0.25924342926E+03  0.66702562690E+03  0.00000000000E+00 0.  1.
          4    1    6    6  502    0  0.26285756950E+03  0.20574005215E+03  0.22500100625E+02  0.33455840362E+03  0.00000000000E+00 0. -1.
         -3    1    6    6    0  502  0.65838574064E+02  0.12563898406E+03  0.19552012151E+02  0.14318573019E+03  0.00000000000E+00 0.  1.
<mgrwt>
<rscale>  0 0.12883491E+04</rscale>
<asrwt>0</asrwt>
<pdfrwt beam="1">  1        1 0.37151441E+00 0.12883491E+04</pdfrwt>
<pdfrwt beam="2">  1       -2 0.12235013E+00 0.12883491E+04</pdfrwt>
<totfact> 0.66998755E-01</totfact>
</mgrwt>
</event>
<event>
12    3  0.1182097E-007  0.4248642E+03  0.7818608E-02  0.1035495E+00
          1   -1    0    0  501    0  0.00000000000E+00  0.00000000000E+00  0.44641028107E+04  0.44641028107E+04  0.00000000000E+00 0. -1.
         -2   -1    0    0    0  501 -0.00000000000E+00 -0.00000000000E+00 -0.65383163570E+02  0.65383163570E+02  0.00000000000E+00 0.  1.
        -24    2    1    2    0    0 -0.23470198114E+03 -0.23753666402E+03  0.21814131330E+04  0.22082943497E+04  0.80572895879E+02 0.  0.
    5000000    2    1    2    0    0  0.23470198114E+03  0.23753666402E+03  0.22173065141E+04  0.23211916245E+04  0.59997807751E+03 0.  0.
        -24    2    4    4    0    0 -0.26873523237E+02 -0.78668579688E+02  0.75246195995E+02  0.13869607564E+03  0.81631364717E+02 0.  0.
         24    2    4    4    0    0  0.26157550438E+03  0.31620524371E+03  0.21420603181E+04  0.21824955489E+04  0.80354923670E+02 0.  0.
         11    1    3    3    0    0 -0.18259614184E+03 -0.16742972645E+03  0.13725599877E+04  0.13947383211E+04  0.00000000000E+00 0. -1.
        -12    1    3    3    0    0 -0.52105839302E+02 -0.70106937569E+02  0.80885314527E+03  0.81355602868E+03  0.00000000000E+00 0.  1.
         15    1    5    5    0    0 -0.40652896310E+02 -0.77171056278E+02  0.84955769900E+02  0.12177302852E+03  0.17770000000E+01 0. -1.
        -16    1    5    5    0    0  0.13779373073E+02 -0.14975234096E+01 -0.97095739050E+01  0.16923047127E+02  0.00000000000E+00 0.  1.
          2    1    6    6  502    0  0.17142007851E+02  0.46444668529E+02  0.38109207145E+03  0.38429431766E+03  0.00000000000E+00 0. -1.
         -1    1    6    6    0  502  0.24443349653E+03  0.26976057518E+03  0.17609682467E+04  0.17982012312E+04  0.00000000000E+00 0.  1.
<mgrwt>
<rscale>  0 0.42486422E+03</rscale>
<asrwt>0</asrwt>
<pdfrwt beam="1">  1        1 0.68678481E+00 0.42486422E+03</pdfrwt>
<pdfrwt beam="2">  1       -2 0.10058952E-01 0.42486422E+03</pdfrwt>
<totfact> 0.25741238E+00</totfact>
</mgrwt>
</event>
<event>
12    3  0.1182097E-007  0.8112217E+03  0.7818608E-02  0.9543915E-01
          1   -1    0    0  501    0  0.00000000000E+00  0.00000000000E+00  0.34971371538E+03  0.34971371538E+03  0.00000000000E+00 0. -1.
         -2   -1    0    0    0  501 -0.00000000000E+00 -0.00000000000E+00 -0.22307389397E+04  0.22307389397E+04  0.00000000000E+00 0.  1.
        -24    2    1    2    0    0 -0.52806714496E+03  0.55229112749E+03 -0.10555793840E+04  0.13056299089E+04  0.80877833264E+02 0.  0.
    5000000    2    1    2    0    0  0.52806714496E+03 -0.55229112749E+03 -0.82544584031E+03  0.12748227462E+04  0.59994316388E+03 0.  0.
        -24    2    4    4    0    0  0.29637879937E+02 -0.28218270125E+03 -0.33569787919E+02  0.29767740735E+03  0.83542967234E+02 0.  0.
         24    2    4    4    0    0  0.49842926502E+03 -0.27010842624E+03 -0.79187605239E+03  0.97714533886E+03  0.79718484395E+02 0.  0.
         13    1    3    3    0    0 -0.36689170512E+03  0.42146341294E+03 -0.81040053283E+03  0.98437287414E+03  0.00000000000E+00 0. -1.
        -14    1    3    3    0    0 -0.16117543983E+03  0.13082771454E+03 -0.24517885120E+03  0.32125703475E+03  0.00000000000E+00 0.  1.
         15    1    5    5    0    0  0.36060361880E+01 -0.15497702123E+03 -0.58062657422E+02  0.16554549381E+03  0.17770000000E+01 0. -1.
        -16    1    5    5    0    0  0.26031843749E+02 -0.12720568002E+03  0.24492869503E+02  0.13213191354E+03  0.00000000000E+00 0.  1.
          2    1    6    6  502    0  0.36895263406E+03 -0.23354571708E+03 -0.57653567259E+03  0.72323096581E+03  0.00000000000E+00 0. -1.
         -1    1    6    6    0  502  0.12947663096E+03 -0.36562709155E+02 -0.21534037980E+03  0.25391437304E+03  0.00000000000E+00 0.  1.
<mgrwt>
<rscale>  0 0.81122166E+03</rscale>
<asrwt>0</asrwt>
<pdfrwt beam="1">  1        1 0.53802111E-01 0.81122166E+03</pdfrwt>
<pdfrwt beam="2">  1       -2 0.34319060E+00 0.81122166E+03</pdfrwt>
<totfact> 0.11253877E+00</totfact>
</mgrwt>
</event>
<event>
12    3  0.1182097E-007  0.6387817E+03  0.7818608E-02  0.9828060E-01
         -2   -1    0    0    0  501 -0.00000000000E+00  0.00000000000E+00  0.36486827178E+03  0.36486827178E+03  0.00000000000E+00 0.  1.
          1   -1    0    0  501    0  0.00000000000E+00 -0.00000000000E+00 -0.18272259798E+04  0.18272259798E+04  0.00000000000E+00 0. -1.
        -24    2    1    2    0    0 -0.15150173453E+03  0.60972851842E+03 -0.10597510519E+04  0.12345625993E+04  0.79692395641E+02 0.  0.
    5000000    2    1    2    0    0  0.15150173453E+03 -0.60972851842E+03 -0.40260665610E+03  0.95753165223E+03  0.60004425148E+03 0.  0.
        -24    2    4    4    0    0  0.32445560948E+02 -0.36896717624E+03 -0.52884835841E+03  0.64995641074E+03  0.74654257114E+02 0.  0.
         24    2    4    4    0    0  0.11905617359E+03 -0.24076134218E+03  0.12624170231E+03  0.30757524148E+03  0.80778495992E+02 0.  0.
         11    1    3    3    0    0 -0.34107585292E+02  0.62023896068E+02 -0.88067324374E+02  0.11298736514E+03  0.00000000000E+00 0. -1.
        -12    1    3    3    0    0 -0.11739414924E+03  0.54770462236E+03 -0.97168372754E+03  0.11215752342E+04  0.00000000000E+00 0.  1.
         15    1    5    5    0    0  0.39185122647E+02 -0.85134947573E+02 -0.14031726413E+03  0.16874692731E+03  0.17770000000E+01 0. -1.
        -16    1    5    5    0    0 -0.67395616993E+01 -0.28383222867E+03 -0.38853109428E+03  0.48120948343E+03  0.00000000000E+00 0.  1.
          2    1    6    6  502    0  0.37020312115E+02 -0.90720931052E+02  0.53012715287E+01  0.98126929636E+02  0.00000000000E+00 0. -1.
         -1    1    6    6    0  502  0.82035861472E+02 -0.15004041113E+03  0.12094043078E+03  0.20944831185E+03  0.00000000000E+00 0.  1.
<mgrwt>
<rscale>  0 0.63878171E+03</rscale>
<asrwt>0</asrwt>
<pdfrwt beam="1">  1        1 0.28111169E+00 0.63878171E+03</pdfrwt>
<pdfrwt beam="2">  1       -2 0.56133579E-01 0.63878171E+03</pdfrwt>
<totfact> 0.10783648E+01</totfact>
</mgrwt>
</event>
<event>
12    3  0.1182097E-007  0.8204555E+03  0.7818608E-02  0.9530872E-01
          1   -1    0    0  501    0  0.00000000000E+00  0.00000000000E+00  0.23624180923E+04  0.23624180923E+04  0.00000000000E+00 0. -1.
         -2   -1    0    0    0  501 -0.00000000000E+00 -0.00000000000E+00 -0.17979554991E+04  0.17979554991E+04  0.00000000000E+00 0.  1.
        -24    2    1    2    0    0 -0.36572776890E+03 -0.64316350572E+03 -0.16169201546E+04  0.17800046358E+04  0.81053198959E+02 0.  0.
    5000000    2    1    2    0    0  0.36572776890E+03  0.64316350572E+03  0.21813827478E+04  0.23803689556E+04  0.60025792470E+03 0.  0.
        -24    2    4    4    0    0 -0.92094736944E+02  0.32212549185E+03  0.50512995804E+03  0.61147601102E+03  0.80624837748E+02 0.  0.
         24    2    4    4    0    0  0.45782250584E+03  0.32103801387E+03  0.16762527897E+04  0.17688929445E+04  0.80572829703E+02 0.  0.
         11    1    3    3    0    0 -0.24433188030E+03 -0.39132916833E+03 -0.92268549573E+03  0.10315934809E+04  0.00000000000E+00 0. -1.
        -12    1    3    3    0    0 -0.12139588860E+03 -0.25183433740E+03 -0.69423465887E+03  0.74841115494E+03  0.00000000000E+00 0.  1.
         15    1    5    5    0    0 -0.44490535075E+02  0.11930086838E+03  0.26191728935E+03  0.29123174465E+03  0.17770000000E+01 0. -1.
        -16    1    5    5    0    0 -0.47604201869E+02  0.20282462347E+03  0.24321266870E+03  0.32024426636E+03  0.00000000000E+00 0.  1.
          4    1    6    6  502    0  0.35300562202E+03  0.20607718541E+03  0.12501998457E+04  0.13153252182E+04  0.00000000000E+00 0. -1.
         -3    1    6    6    0  502  0.10481688383E+03  0.11496082846E+03  0.42605294404E+03  0.45356772630E+03  0.00000000000E+00 0.  1.
<mgrwt>
<rscale>  0 0.82045554E+03</rscale>
<asrwt>0</asrwt>
<pdfrwt beam="1">  1        1 0.36344894E+00 0.82045554E+03</pdfrwt>
<pdfrwt beam="2">  1       -2 0.27660854E+00 0.82045554E+03</pdfrwt>
<totfact> 0.69245965E-02</totfact>
</mgrwt>
</event>
<event>
12    3  0.1182097E-007  0.7869650E+03  0.7818608E-02  0.9579079E-01
          1   -1    0    0  501    0  0.00000000000E+00  0.00000000000E+00  0.17566504119E+04  0.17566504119E+04  0.00000000000E+00 0. -1.
         -2   -1    0    0    0  501 -0.00000000000E+00 -0.00000000000E+00 -0.57752963401E+03  0.57752963401E+03  0.00000000000E+00 0.  1.
        -24    2    1    2    0    0 -0.50293550120E+03 -0.51180864591E+03  0.11980223266E+04  0.13988798407E+04  0.81945745211E+02 0.  0.
    5000000    2    1    2    0    0  0.50293550120E+03  0.51180864591E+03 -0.18901548737E+02  0.93530020523E+03  0.59961403999E+03 0.  0.
        -24    2    4    4    0    0 -0.18949983912E+00  0.30041675527E+03  0.16660663126E+03  0.35346425141E+03  0.83240282845E+02 0.  0.
         24    2    4    4    0    0  0.50312500104E+03  0.21139189065E+03 -0.18550817999E+03  0.58183595382E+03  0.79363053190E+02 0.  0.
         11    1    3    3    0    0 -0.29917370199E+03 -0.35405845022E+03  0.73420123695E+03  0.86828206620E+03  0.00000000000E+00 0. -1.
        -12    1    3    3    0    0 -0.20376179921E+03 -0.15775019569E+03  0.46382108964E+03  0.53059777446E+03  0.00000000000E+00 0.  1.
         15    1    5    5    0    0 -0.24680990968E+02  0.66933759477E+02  0.11998005582E+02  0.72362900300E+02  0.17770000000E+01 0. -1.
        -16    1    5    5    0    0  0.24491491128E+02  0.23348299579E+03  0.15460862568E+03  0.28110135111E+03  0.00000000000E+00 0.  1.
          2    1    6    6  502    0  0.12126686139E+03  0.36989326412E+02 -0.76648148543E+02  0.14815127612E+03  0.00000000000E+00 0. -1.
         -1    1    6    6    0  502  0.38185813965E+03  0.17440256424E+03 -0.10886003145E+03  0.43368467771E+03  0.00000000000E+00 0.  1.
<mgrwt>
<rscale>  0 0.78696501E+03</rscale>
<asrwt>0</asrwt>
<pdfrwt beam="1">  1        1 0.27025391E+00 0.78696501E+03</pdfrwt>
<pdfrwt beam="2">  1       -2 0.88850714E-01 0.78696501E+03</pdfrwt>
<totfact> 0.43016337E+00</totfact>
</mgrwt>
</event>
<event>
12    3  0.1182097E-007  0.7585415E+03  0.7818608E-02  0.9622045E-01
         -2   -1    0    0    0  501 -0.00000000000E+00  0.00000000000E+00  0.18573992365E+04  0.18573992365E+04  0.00000000000E+00 0.  1.
          1   -1    0    0  501    0  0.00000000000E+00 -0.00000000000E+00 -0.31438464737E+03  0.31438464737E+03  0.00000000000E+00 0. -1.
        -24    2    1    2    0    0  0.39619563071E+03 -0.50663192199E+03  0.64231683496E+03  0.91285613250E+03  0.84193348978E+02 0.  0.
    5000000    2    1    2    0    0 -0.39619563071E+03  0.50663192199E+03  0.90069775421E+03  0.12589277514E+04  0.59999646384E+03 0.  0.
        -24    2    4    4    0    0  0.71483018324E+02  0.36713618000E+03  0.45920204536E+03  0.59599848603E+03  0.66699927427E+02 0.  0.
         24    2    4    4    0    0 -0.46767864903E+03  0.13949574199E+03  0.44149570885E+03  0.66292926536E+03  0.79839646436E+02 0.  0.
         11    1    3    3    0    0  0.32004048740E+02 -0.51394139413E+02  0.98398589862E+02  0.11553310863E+03  0.00000000000E+00 0. -1.
        -12    1    3    3    0    0  0.36419158197E+03 -0.45523778257E+03  0.54391824509E+03  0.79732302388E+03  0.00000000000E+00 0.  1.
         15    1    5    5    0    0 -0.23656240415E+01  0.14647494521E+03  0.15956688071E+03  0.21662237396E+03  0.17770000000E+01 0. -1.
        -16    1    5    5    0    0  0.73848642366E+02  0.22066123479E+03  0.29963516465E+03  0.37937611207E+03  0.00000000000E+00 0.  1.
          2    1    6    6  502    0 -0.48147792330E+02  0.41417136996E+02  0.50958318458E+02  0.81426895822E+02  0.00000000000E+00 0. -1.
         -1    1    6    6    0  502 -0.41953085670E+03  0.98078604991E+02  0.39053739039E+03  0.58150236954E+03  0.00000000000E+00 0.  1.
<mgrwt>
<rscale>  0 0.75854150E+03</rscale>
<asrwt>0</asrwt>
<pdfrwt beam="1">  1        1 0.48366870E-01 0.75854150E+03</pdfrwt>
<pdfrwt beam="2">  1       -2 0.28575372E+00 0.75854150E+03</pdfrwt>
<totfact> 0.29098124E+00</totfact>
</mgrwt>
</event>
<event>
12    3  0.1182097E-007  0.1131836E+04  0.7818608E-02  0.9174706E-01
          1   -1    0    0  501    0  0.00000000000E+00  0.00000000000E+00  0.19699398018E+04  0.19699398018E+04  0.00000000000E+00 0. -1.
         -2   -1    0    0    0  501 -0.00000000000E+00 -0.00000000000E+00 -0.97273330339E+03  0.97273330339E+03  0.00000000000E+00 0.  1.
        -24    2    1    2    0    0  0.80103443714E+03  0.77969055431E+03 -0.26662121848E+03  0.11519445397E+04  0.79472123620E+02 0.  0.
    5000000    2    1    2    0    0 -0.80103443714E+03 -0.77969055431E+03  0.12638277168E+04  0.17907285655E+04  0.59989563039E+03 0.  0.
        -24    2    4    4    0    0 -0.72352932129E+03 -0.67038100130E+03  0.12955420825E+04  0.16303200478E+04  0.81294556054E+02 0.  0.
         24    2    4    4    0    0 -0.77505115847E+02 -0.10930955301E+03 -0.31714365702E+02  0.16040851770E+03  0.82276790141E+02 0.  0.
         13    1    3    3    0    0  0.13528921233E+03  0.10861371782E+03 -0.17428698911E+02  0.17436705600E+03  0.00000000000E+00 0. -1.
        -14    1    3    3    0    0  0.66574522481E+03  0.67107683648E+03 -0.24919251956E+03  0.97757748369E+03  0.00000000000E+00 0.  1.
         15    1    5    5    0    0 -0.64799254747E+03 -0.56295989076E+03  0.11241999387E+04  0.14144422364E+04  0.17770000000E+01 0. -1.
        -16    1    5    5    0    0 -0.75536773816E+02 -0.10742111053E+03  0.17134214386E+03  0.21587781139E+03  0.00000000000E+00 0.  1.
          4    1    6    6  502    0  0.78107978089E+01  0.73085099754E+01 -0.93233892589E+01  0.14189731067E+02  0.00000000000E+00 0. -1.
         -3    1    6    6    0  502 -0.85315913656E+02 -0.11661806299E+03 -0.22390976443E+02  0.14621878663E+03  0.00000000000E+00 0.  1.
<mgrwt>
<rscale>  0 0.11318360E+04</rscale>
<asrwt>0</asrwt>
<pdfrwt beam="1">  1        1 0.30306766E+00 0.11318360E+04</pdfrwt>
<pdfrwt beam="2">  1       -2 0.14965128E+00 0.11318360E+04</pdfrwt>
<totfact> 0.81410956E-01</totfact>
</mgrwt>
</event>
<event>
12    3  0.1182097E-007  0.1343320E+04  0.7818608E-02  0.8995900E-01
         -2   -1    0    0    0  501 -0.00000000000E+00  0.00000000000E+00  0.20327203346E+04  0.20327203346E+04  0.00000000000E+00 0.  1.
          1   -1    0    0  501    0  0.00000000000E+00 -0.00000000000E+00 -0.99959024693E+03  0.99959024693E+03  0.00000000000E+00 0. -1.
        -24    2    1    2    0    0 -0.95682304604E+03 -0.90873040939E+03  0.13898904208E+03  0.13292399070E+04  0.79116863479E+02 0.  0.
    5000000    2    1    2    0    0  0.95682304604E+03  0.90873040939E+03  0.89414104560E+03  0.17030706746E+04  0.59971677882E+03 0.  0.
        -24    2    4    4    0    0  0.70659459201E+03  0.44144368532E+03  0.80193437427E+03  0.11590793541E+04  0.78852797344E+02 0.  0.
         24    2    4    4    0    0  0.25022845403E+03  0.46728672407E+03  0.92206671337E+02  0.54399132051E+03  0.80332588929E+02 0.  0.
         11    1    3    3    0    0 -0.50364766580E+03 -0.52215835748E+03  0.99679092936E+02  0.73228836064E+03  0.00000000000E+00 0. -1.
        -12    1    3    3    0    0 -0.45317538024E+03 -0.38657205191E+03  0.39309949147E+02  0.59695154634E+03  0.00000000000E+00 0.  1.
         15    1    5    5    0    0  0.25647949080E+03  0.19339246824E+03  0.34491033922E+03  0.47132650658E+03  0.17770000000E+01 0. -1.
        -16    1    5    5    0    0  0.45011510121E+03  0.24805121708E+03  0.45702403505E+03  0.68775284750E+03  0.00000000000E+00 0.  1.
          2    1    6    6  502    0  0.27579145586E+02  0.40896626856E+02 -0.14223534021E+02  0.51336656295E+02  0.00000000000E+00 0. -1.
         -1    1    6    6    0  502  0.22264930845E+03  0.42639009722E+03  0.10643020536E+03  0.49265466421E+03  0.00000000000E+00 0.  1.
<mgrwt>
<rscale>  0 0.13433200E+04</rscale>
<asrwt>0</asrwt>
<pdfrwt beam="1">  1        1 0.15378311E+00 0.13433200E+04</pdfrwt>
<pdfrwt beam="2">  1       -2 0.31272621E+00 0.13433200E+04</pdfrwt>
<totfact> 0.34024562E-01</totfact>
</mgrwt>
</event>
<event>
12    3  0.1182097E-007  0.4181298E+03  0.7818608E-02  0.1037677E+00
          1   -1    0    0  501    0  0.00000000000E+00  0.00000000000E+00  0.25304869735E+04  0.25304869735E+04  0.00000000000E+00 0. -1.
         -2   -1    0    0    0  501 -0.00000000000E+00 -0.00000000000E+00 -0.11360421750E+03  0.11360421750E+03  0.00000000000E+00 0.  1.
        -24    2    1    2    0    0 -0.28804526471E+03 -0.21882437426E+03  0.89997931799E+03  0.97320744929E+03  0.79471914886E+02 0.  0.
    5000000    2    1    2    0    0  0.28804526471E+03  0.21882437426E+03  0.15169034380E+04  0.16708837417E+04  0.60000188061E+03 0.  0.
        -24    2    4    4    0    0  0.27082211733E+03  0.33303675631E+02  0.14170066953E+04  0.14455310141E+04  0.84842113214E+02 0.  0.
         24    2    4    4    0    0  0.17223147385E+02  0.18552069863E+03  0.99896742661E+02  0.22535272755E+03  0.78037979173E+02 0.  0.
         11    1    3    3    0    0 -0.79309180079E+02 -0.75113177245E+02  0.18748218226E+03  0.21698272767E+03  0.00000000000E+00 0. -1.
        -12    1    3    3    0    0 -0.20873608463E+03 -0.14371119701E+03  0.71249713572E+03  0.75622472162E+03  0.00000000000E+00 0.  1.
         15    1    5    5    0    0  0.19030290377E+03  0.55022862125E+02  0.11023780204E+04  0.11200371281E+04  0.17770000000E+01 0. -1.
        -16    1    5    5    0    0  0.80519213560E+02 -0.21719186494E+02  0.31462867488E+03  0.32549388607E+03  0.00000000000E+00 0.  1.
          4    1    6    6  502    0  0.24253610441E+02  0.18304682093E+03  0.10834528607E+03  0.21408661165E+03  0.00000000000E+00 0. -1.
         -3    1    6    6    0  502 -0.70304630562E+01  0.24738776944E+01 -0.84485434123E+01  0.11266115898E+02  0.00000000000E+00 0.  1.
<mgrwt>
<rscale>  0 0.41812983E+03</rscale>
<asrwt>0</asrwt>
<pdfrwt beam="1">  1        1 0.38930564E+00 0.41812983E+03</pdfrwt>
<pdfrwt beam="2">  1       -2 0.17477574E-01 0.41812983E+03</pdfrwt>
<totfact> 0.33894650E+01</totfact>
</mgrwt>
</event>
<event>
12    3  0.1182097E-007  0.2941497E+03  0.7818608E-02  0.1088202E+00
          1   -1    0    0  501    0  0.00000000000E+00  0.00000000000E+00  0.75398507740E+03  0.75398507740E+03  0.00000000000E+00 0. -1.
         -2   -1    0    0    0  501 -0.00000000000E+00 -0.00000000000E+00 -0.26042404613E+03  0.26042404613E+03  0.00000000000E+00 0.  1.
        -24    2    1    2    0    0 -0.21650865452E+03  0.72868563054E+02  0.10226560560E+03  0.26234217556E+03  0.78608765588E+02 0.  0.
    5000000    2    1    2    0    0  0.21650865452E+03 -0.72868563054E+02  0.39129542567E+03  0.75206694796E+03  0.60025557816E+03 0.  0.
        -24    2    4    4    0    0  0.15704795330E+03 -0.15621503009E+03  0.51761318793E+03  0.56856931116E+03  0.79249315547E+02 0.  0.
         24    2    4    4    0    0  0.59460701217E+02  0.83346467034E+02 -0.12631776226E+03  0.18349763680E+03  0.85047028706E+02 0.  0.
         13    1    3    3    0    0 -0.60334068996E+02 -0.72641289602E+01  0.51388630278E+02  0.79584915487E+02  0.00000000000E+00 0. -1.
        -14    1    3    3    0    0 -0.15617458552E+03  0.80132692014E+02  0.50876975322E+02  0.18275726008E+03  0.00000000000E+00 0.  1.
         15    1    5    5    0    0  0.62140830472E+02 -0.13354698865E+02  0.13072646202E+03  0.14536986068E+03  0.17770000000E+01 0. -1.
        -16    1    5    5    0    0  0.94907122829E+02 -0.14286033122E+03  0.38688672591E+03  0.42319945048E+03  0.00000000000E+00 0.  1.
          4    1    6    6  502    0  0.23118210088E+02  0.76501988484E+02 -0.39533088566E+02  0.89162048940E+02  0.00000000000E+00 0. -1.
         -3    1    6    6    0  502  0.36342491130E+02  0.68444785499E+01 -0.86784673698E+02  0.94335587861E+02  0.00000000000E+00 0.  1.
<mgrwt>
<rscale>  0 0.29414970E+03</rscale>
<asrwt>0</asrwt>
<pdfrwt beam="1">  1        1 0.11599770E+00 0.29414970E+03</pdfrwt>
<pdfrwt beam="2">  1       -2 0.40065238E-01 0.29414970E+03</pdfrwt>
<totfact> 0.13271376E+02</totfact>
</mgrwt>
</event>
<event>
12    3  0.1182097E-007  0.7381946E+03  0.7818608E-02  0.9654055E-01
          1   -1    0    0  501    0  0.00000000000E+00  0.00000000000E+00  0.21904537721E+04  0.21904537721E+04  0.00000000000E+00 0. -1.
         -2   -1    0    0    0  501 -0.00000000000E+00 -0.00000000000E+00 -0.32028960374E+03  0.32028960374E+03  0.00000000000E+00 0.  1.
        -24    2    1    2    0    0  0.39304227460E+03 -0.56508688661E+03  0.46263718171E+03  0.83311841899E+03  0.79042514701E+02 0.  0.
    5000000    2    1    2    0    0 -0.39304227460E+03  0.56508688661E+03  0.14075269866E+04  0.16776249568E+04  0.59957306362E+03 0.  0.
        -24    2    4    4    0    0 -0.44150696301E+03  0.35438352450E+03  0.12845725835E+04  0.14061007759E+04  0.80477256010E+02 0.  0.
         24    2    4    4    0    0  0.48464688416E+02  0.21070336210E+03  0.12295440311E+03  0.27152418096E+03  0.10891676994E+03 0.  0.
         13    1    3    3    0    0  0.31755784773E+03 -0.44360943061E+03  0.32724388449E+03  0.63617676279E+03  0.00000000000E+00 0. -1.
        -14    1    3    3    0    0  0.75484426866E+02 -0.12147745600E+03  0.13539329722E+03  0.19694165620E+03  0.00000000000E+00 0.  1.
         15    1    5    5    0    0 -0.12873178411E+03  0.15134193414E+03  0.42735116348E+03  0.47128380826E+03  0.17770000000E+01 0. -1.
        -16    1    5    5    0    0 -0.31277517890E+03  0.20304159036E+03  0.85722142004E+03  0.93481696761E+03  0.00000000000E+00 0.  1.
          4    1    6    6  502    0  0.12246995660E+02  0.48747984333E+02  0.88878098731E+02  0.10210617667E+03  0.00000000000E+00 0. -1.
         -1    1    6    6    0  502  0.36217692756E+02  0.16195537777E+03  0.34076304383E+02  0.16941800429E+03  0.00000000000E+00 0.  1.
<mgrwt>
<rscale>  0 0.73819458E+03</rscale>
<asrwt>0</asrwt>
<pdfrwt beam="1">  1        1 0.33699288E+00 0.73819458E+03</pdfrwt>
<pdfrwt beam="2">  1       -2 0.49275325E-01 0.73819458E+03</pdfrwt>
<totfact> 0.79334757E+00</totfact>
</mgrwt>
</event>
<event>
12    3  0.1182097E-007  0.8995246E+03  0.7818608E-02  0.9426176E-01
          3   -1    0    0  501    0  0.00000000000E+00  0.00000000000E+00  0.11140134680E+04  0.11140134680E+04  0.00000000000E+00 0. -1.
         -4   -1    0    0    0  501 -0.00000000000E+00 -0.00000000000E+00 -0.15225663087E+04  0.15225663087E+04  0.00000000000E+00 0.  1.
        -24    2    1    2    0    0 -0.14684628165E+03 -0.79882213005E+03 -0.11313870497E+04  0.13949753439E+04  0.78986885262E+02 0.  0.
    5000000    2    1    2    0    0  0.14684628165E+03  0.79882213005E+03  0.72283420893E+03  0.12416044327E+04  0.59950950611E+03 0.  0.
        -24    2    4    4    0    0 -0.21203598465E+03  0.30729238128E+03  0.37894378824E+03  0.53790570597E+03  0.79726328667E+02 0.  0.
         24    2    4    4    0    0  0.35888226630E+03  0.49152974877E+03  0.34389042069E+03  0.70369872678E+03  0.80828841602E+02 0.  0.
         13    1    3    3    0    0 -0.13096032927E+03 -0.54671087957E+03 -0.74425092441E+03  0.93271262035E+03  0.00000000000E+00 0. -1.
        -14    1    3    3    0    0 -0.15885952379E+02 -0.25211125049E+03 -0.38713612525E+03  0.46226272354E+03  0.00000000000E+00 0.  1.
         15    1    5    5    0    0 -0.14984964742E+03  0.24320698999E+03  0.32852400822E+03  0.43535702420E+03  0.17770000000E+01 0. -1.
        -16    1    5    5    0    0 -0.62186337231E+02  0.64085391288E+02  0.50419780025E+02  0.10254868177E+03  0.00000000000E+00 0.  1.
          4    1    6    6  502    0  0.13295733619E+03  0.20618936144E+03  0.18140919895E+03  0.30512457043E+03  0.00000000000E+00 0. -1.
         -3    1    6    6    0  502  0.22592493011E+03  0.28534038733E+03  0.16248122174E+03  0.39857415635E+03  0.00000000000E+00 0.  1.
<mgrwt>
<rscale>  0 0.89952457E+03</rscale>
<asrwt>0</asrwt>
<pdfrwt beam="1">  1        3 0.17138669E+00 0.89952457E+03</pdfrwt>
<pdfrwt beam="2">  1       -4 0.23424097E+00 0.89952457E+03</pdfrwt>
<totfact> 0.40092339E-02</totfact>
</mgrwt>
</event>
<event>
12    3  0.1182097E-007  0.9579500E+03  0.7818608E-02  0.9355906E-01
         -2   -1    0    0    0  501 -0.00000000000E+00  0.00000000000E+00  0.69810118930E+03  0.69810118930E+03  0.00000000000E+00 0.  1.
          1   -1    0    0  501    0  0.00000000000E+00 -0.00000000000E+00 -0.15033430697E+04  0.15033430697E+04  0.00000000000E+00 0. -1.
        -24    2    1    2    0    0  0.87483802400E+03 -0.32562128672E+03 -0.42174345156E+03  0.10273775032E+04  0.79159361207E+02 0.  0.
    5000000    2    1    2    0    0 -0.87483802400E+03  0.32562128672E+03 -0.38349842887E+03  0.11740667559E+04  0.59999242635E+03 0.  0.
        -24    2    4    4    0    0 -0.84131284141E+03  0.34437105731E+03 -0.15008140365E+03  0.92488729225E+03  0.80581346571E+02 0.  0.
         24    2    4    4    0    0 -0.33525182595E+02 -0.18749770582E+02 -0.23341702522E+03  0.24917946362E+03  0.78303292796E+02 0.  0.
         11    1    3    3    0    0  0.46248129356E+03 -0.20677782032E+03 -0.25285728017E+03  0.56620033381E+03  0.00000000000E+00 0. -1.
        -12    1    3    3    0    0  0.41235673044E+03 -0.11884346640E+03 -0.16888617138E+03  0.46117716935E+03  0.00000000000E+00 0.  1.
         15    1    5    5    0    0 -0.24749552439E+03  0.64616291035E+02 -0.29575367656E+02  0.25750176652E+03  0.17770000000E+01 0. -1.
        -16    1    5    5    0    0 -0.59381731702E+03  0.27975476627E+03 -0.12050603599E+03  0.66738552573E+03  0.00000000000E+00 0.  1.
          4    1    6    6  502    0  0.65500190000E+01 -0.26351630044E+02 -0.17965226378E+03  0.18169272697E+03  0.00000000000E+00 0. -1.
         -3    1    6    6    0  502 -0.40075201595E+02  0.76018594620E+01 -0.53764761441E+02  0.67486736645E+02  0.00000000000E+00 0.  1.
<mgrwt>
<rscale>  0 0.95795003E+03</rscale>
<asrwt>0</asrwt>
<pdfrwt beam="1">  1        1 0.23128355E+00 0.95795003E+03</pdfrwt>
<pdfrwt beam="2">  1       -2 0.10740018E+00 0.95795003E+03</pdfrwt>
<totfact> 0.39948180E+00</totfact>
</mgrwt>
</event>
<event>
12    3  0.1182097E-007  0.5235006E+03  0.7818608E-02  0.1007821E+00
          3   -1    0    0  501    0  0.00000000000E+00  0.00000000000E+00  0.96589216813E+03  0.96589216813E+03  0.00000000000E+00 0. -1.
         -4   -1    0    0    0  501 -0.00000000000E+00 -0.00000000000E+00 -0.31672753875E+03  0.31672753875E+03  0.00000000000E+00 0.  1.
        -24    2    1    2    0    0 -0.21277359016E+03 -0.32057771197E+03  0.25161333912E+03  0.46653708366E+03  0.79403450309E+02 0.  0.
    5000000    2    1    2    0    0  0.21277359016E+03  0.32057771197E+03  0.39755129026E+03  0.81608262322E+03  0.59991761889E+03 0.  0.
        -24    2    4    4    0    0  0.28588770337E+03 -0.22974819833E+02  0.33957881495E+03  0.45260878824E+03  0.85330664730E+02 0.  0.
         24    2    4    4    0    0 -0.73114113205E+02  0.34355253180E+03  0.57972475308E+02  0.36347383498E+03  0.73337610851E+02 0.  0.
         13    1    3    3    0    0 -0.42810448907E+02 -0.12710901662E+03  0.10388441162E+03  0.16965084031E+03  0.00000000000E+00 0. -1.
        -14    1    3    3    0    0 -0.16996314126E+03 -0.19346869535E+03  0.14772892751E+03  0.29688624335E+03  0.00000000000E+00 0.  1.
         15    1    5    5    0    0  0.14807528498E+03  0.25928561968E+02  0.20222146270E+03  0.25198265427E+03  0.17770000000E+01 0. -1.
        -16    1    5    5    0    0  0.13781241838E+03 -0.48903381801E+02  0.13735735225E+03  0.20062613396E+03  0.00000000000E+00 0.  1.
          4    1    6    6  502    0  0.19960561293E+01  0.16581773593E+03  0.24183919630E+02  0.16758391259E+03  0.00000000000E+00 0. -1.
         -3    1    6    6    0  502 -0.75110169334E+02  0.17773479587E+03  0.33788555678E+02  0.19588992239E+03  0.00000000000E+00 0.  1.
<mgrwt>
<rscale>  0 0.52350057E+03</rscale>
<asrwt>0</asrwt>
<pdfrwt beam="1">  1        3 0.14859879E+00 0.52350057E+03</pdfrwt>
<pdfrwt beam="2">  1       -4 0.48727314E-01 0.52350057E+03</pdfrwt>
<totfact> 0.30625048E+00</totfact>
</mgrwt>
</event>
<event>
12    3  0.1182097E-007  0.1160911E+04  0.7818608E-02  0.9147776E-01
          1   -1    0    0  501    0  0.00000000000E+00  0.00000000000E+00  0.21680439914E+04  0.21680439914E+04  0.00000000000E+00 0. -1.
         -2   -1    0    0    0  501 -0.00000000000E+00 -0.00000000000E+00 -0.68598764995E+03  0.68598764995E+03  0.00000000000E+00 0.  1.
        -24    2    1    2    0    0  0.31917194414E+03  0.10395266347E+04  0.11137453107E+04  0.15586111355E+04  0.79710103161E+02 0.  0.
    5000000    2    1    2    0    0 -0.31917194414E+03 -0.10395266347E+04  0.36831103078E+03  0.12954205059E+04  0.59997909757E+03 0.  0.
        -24    2    4    4    0    0  0.87309472092E+02 -0.67936437676E+03  0.15077858352E+03  0.70570513040E+03  0.78272916736E+02 0.  0.
         24    2    4    4    0    0 -0.40648141623E+03 -0.36016225789E+03  0.21753244725E+03  0.58971537545E+03  0.74161072604E+02 0.  0.
         11    1    3    3    0    0  0.14465881755E+03  0.39127409389E+03  0.47139185438E+03  0.62946951508E+03  0.00000000000E+00 0. -1.
        -12    1    3    3    0    0  0.17451312659E+03  0.64825254077E+03  0.64235345631E+03  0.92914162042E+03  0.00000000000E+00 0.  1.
         15    1    5    5    0    0  0.31955065172E+02 -0.51457438805E+03  0.11354824012E+03  0.52792450937E+03  0.17770000000E+01 0. -1.
        -16    1    5    5    0    0  0.55354406920E+02 -0.16478998871E+03  0.37230343407E+02  0.17778062103E+03  0.00000000000E+00 0.  1.
          4    1    6    6  502    0 -0.26026636312E+03 -0.24965893445E+03  0.17817542182E+03  0.40226191003E+03  0.00000000000E+00 0. -1.
         -3    1    6    6    0  502 -0.14621505311E+03 -0.11050332344E+03  0.39357025431E+02  0.18745346542E+03  0.00000000000E+00 0.  1.
<mgrwt>
<rscale>  0 0.11609114E+04</rscale>
<asrwt>0</asrwt>
<pdfrwt beam="1">  1        1 0.33354523E+00 0.11609114E+04</pdfrwt>
<pdfrwt beam="2">  1       -2 0.10553656E+00 0.11609114E+04</pdfrwt>
<totfact> 0.14415177E+00</totfact>
</mgrwt>
</event>
<event>
12    3  0.1182097E-007  0.7289403E+03  0.7818608E-02  0.9668981E-01
         -2   -1    0    0    0  501 -0.00000000000E+00  0.00000000000E+00  0.16184609338E+04  0.16184609338E+04  0.00000000000E+00 0.  1.
          1   -1    0    0  501    0  0.00000000000E+00 -0.00000000000E+00 -0.39059793980E+03  0.39059793980E+03  0.00000000000E+00 0. -1.
        -24    2    1    2    0    0  0.30967336034E+03  0.58833418015E+03  0.70552663576E+03  0.97231935101E+03  0.74849107887E+02 0.  0.
    5000000    2    1    2    0    0 -0.30967336034E+03 -0.58833418015E+03  0.52233635820E+03  0.10367395225E+04  0.59996572307E+03 0.  0.
        -24    2    4    4    0    0 -0.25210252047E+03 -0.63164962594E+03  0.59407471333E+03  0.90637513530E+03  0.77808676175E+02 0.  0.
         24    2    4    4    0    0 -0.57570839871E+02  0.43315445795E+02 -0.71738355134E+02  0.13036438724E+03  0.81595664187E+02 0.  0.
         11    1    3    3    0    0  0.25332271626E+03  0.41073807356E+03  0.49937441534E+03  0.69444436087E+03  0.00000000000E+00 0. -1.
        -12    1    3    3    0    0  0.56350644080E+02  0.17759610659E+03  0.20615222042E+03  0.27787499015E+03  0.00000000000E+00 0.  1.
         15    1    5    5    0    0 -0.60595799200E+02 -0.13976557669E+03  0.17773953870E+03  0.23409563997E+03  0.17770000000E+01 0. -1.
        -16    1    5    5    0    0 -0.19150672127E+03 -0.49188404925E+03  0.41633517463E+03  0.67227949533E+03  0.00000000000E+00 0.  1.
          4    1    6    6  502    0  0.16025873409E+02  0.29978906272E+02 -0.24468173142E+02  0.41883826672E+02  0.00000000000E+00 0. -1.
         -3    1    6    6    0  502 -0.73596713280E+02  0.13336539524E+02 -0.47270181992E+02  0.88480560564E+02  0.00000000000E+00 0.  1.
<mgrwt>
<rscale>  0 0.72894033E+03</rscale>
<asrwt>0</asrwt>
<pdfrwt beam="1">  1        1 0.60091992E-01 0.72894033E+03</pdfrwt>
<pdfrwt beam="2">  1       -2 0.24899399E+00 0.72894033E+03</pdfrwt>
<totfact> 0.36574857E+00</totfact>
</mgrwt>
</event>
<event>
12    3  0.1182097E-007  0.5176038E+03  0.7818608E-02  0.1009284E+00
         -2   -1    0    0    0  501 -0.00000000000E+00  0.00000000000E+00  0.17497285657E+04  0.17497285657E+04  0.00000000000E+00 0.  1.
          1   -1    0    0  501    0  0.00000000000E+00 -0.00000000000E+00 -0.16684102115E+03  0.16684102115E+03  0.00000000000E+00 0. -1.
        -24    2    1    2    0    0 -0.30911256789E+03  0.17669367995E+03  0.37975261157E+03  0.52580984514E+03  0.74112826760E+02 0.  0.
    5000000    2    1    2    0    0  0.30911256789E+03 -0.17669367995E+03  0.12031349330E+04  0.13907597418E+04  0.59992312511E+03 0.  0.
        -24    2    4    4    0    0 -0.16930567419E+03 -0.31120516104E+02  0.28849360481E+03  0.34537799310E+03  0.80152980404E+02 0.  0.
         24    2    4    4    0    0  0.47841824208E+03 -0.14557316385E+03  0.91464132822E+03  0.10453817487E+04  0.78604584772E+02 0.  0.
         11    1    3    3    0    0 -0.20588640677E+03  0.12905857650E+03  0.20810140979E+03  0.31992424950E+03  0.00000000000E+00 0. -1.
        -12    1    3    3    0    0 -0.10322616112E+03  0.47635103451E+02  0.17165120178E+03  0.20588559564E+03  0.00000000000E+00 0.  1.
         15    1    5    5    0    0 -0.87787666822E+02  0.74246601348E+01  0.20220504440E+03  0.22057161589E+03  0.17770000000E+01 0. -1.
        -16    1    5    5    0    0 -0.81518007364E+02 -0.38545176239E+02  0.86288560407E+02  0.12480637721E+03  0.00000000000E+00 0.  1.
          2    1    6    6  502    0  0.26964917005E+03 -0.88640001757E+02  0.59691516184E+03  0.66096553257E+03  0.00000000000E+00 0. -1.
         -1    1    6    6    0  502  0.20876907203E+03 -0.56933162094E+02  0.31772616638E+03  0.38441621608E+03  0.00000000000E+00 0.  1.
<mgrwt>
<rscale>  0 0.51760379E+03</rscale>
<asrwt>0</asrwt>
<pdfrwt beam="1">  1        1 0.25667851E-01 0.51760379E+03</pdfrwt>
<pdfrwt beam="2">  1       -2 0.26918900E+00 0.51760379E+03</pdfrwt>
<totfact> 0.85859378E+00</totfact>
</mgrwt>
</event>
<event>
12    3  0.1182097E-007  0.6808694E+03  0.7818608E-02  0.9750519E-01
          1   -1    0    0  501    0  0.00000000000E+00  0.00000000000E+00  0.12576260750E+04  0.12576260750E+04  0.00000000000E+00 0. -1.
         -2   -1    0    0    0  501 -0.00000000000E+00 -0.00000000000E+00 -0.39015706790E+03  0.39015706790E+03  0.00000000000E+00 0.  1.
        -24    2    1    2    0    0 -0.23526629746E+03 -0.50575748897E+03  0.48394255645E+03  0.74322579138E+03  0.83924434249E+02 0.  0.
    5000000    2    1    2    0    0  0.23526629746E+03  0.50575748897E+03  0.38352645066E+03  0.90455735153E+03  0.59999216285E+03 0.  0.
        -24    2    4    4    0    0  0.57240336875E+02  0.59642180803E+03  0.27451343491E+03  0.66379234316E+03  0.79165773144E+02 0.  0.
         24    2    4    4    0    0  0.17802596059E+03 -0.90664319057E+02  0.10901301576E+03  0.24076500837E+03  0.78553741207E+02 0.  0.
         13    1    3    3    0    0 -0.50033693769E+02 -0.16271316098E+03  0.18904630015E+03  0.25439623989E+03  0.00000000000E+00 0. -1.
        -14    1    3    3    0    0 -0.18523260369E+03 -0.34304432799E+03  0.29489625630E+03  0.48882955150E+03  0.00000000000E+00 0.  1.
         15    1    5    5    0    0  0.29750565053E+02  0.11519049131E+03  0.27285958476E+02  0.12207221907E+03  0.17770000000E+01 0. -1.
        -16    1    5    5    0    0  0.27489771822E+02  0.48123131672E+03  0.24722747643E+03  0.54172012410E+03  0.00000000000E+00 0.  1.
          4    1    6    6  502    0  0.10259577430E+03 -0.62483039552E+02  0.21842169096E+02  0.12209464971E+03  0.00000000000E+00 0. -1.
         -3    1    6    6    0  502  0.75430186284E+02 -0.28181279505E+02  0.87170846659E+02  0.11867035866E+03  0.00000000000E+00 0.  1.
<mgrwt>
<rscale>  0 0.68086940E+03</rscale>
<asrwt>0</asrwt>
<pdfrwt beam="1">  1        1 0.19348093E+00 0.68086940E+03</pdfrwt>
<pdfrwt beam="2">  1       -2 0.60024165E-01 0.68086940E+03</pdfrwt>
<totfact> 0.22796935E+01</totfact>
</mgrwt>
</event>
<event>
12    3  0.1182097E-007  0.1851275E+04  0.7818608E-02  0.8679498E-01
         -2   -1    0    0    0  501 -0.00000000000E+00  0.00000000000E+00  0.33099700957E+04  0.33099700957E+04  0.00000000000E+00 0.  1.
          1   -1    0    0  501    0  0.00000000000E+00 -0.00000000000E+00 -0.11243289471E+04  0.11243289471E+04  0.00000000000E+00 0. -1.
        -24    2    1    2    0    0  0.17595035200E+04  0.48621296497E+03  0.54211130315E+03  0.19057638880E+04  0.76129150349E+02 0.  0.
    5000000    2    1    2    0    0 -0.17595035200E+04 -0.48621296497E+03  0.16435298455E+04  0.25285351548E+04  0.60003665896E+03 0.  0.
        -24    2    4    4    0    0 -0.80527786001E+03 -0.43754320134E+03  0.53931174282E+03  0.10663334403E+04  0.79330732531E+02 0.  0.
         24    2    4    4    0    0 -0.95422565997E+03 -0.48669763630E+02  0.11042181026E+04  0.14622017145E+04  0.76294689631E+02 0.  0.
         11    1    3    3    0    0  0.11610266132E+04  0.28334462711E+03  0.35702047711E+03  0.12472892990E+04  0.00000000000E+00 0. -1.
        -12    1    3    3    0    0  0.59847690681E+03  0.20286833785E+03  0.18509082604E+03  0.65847458901E+03  0.00000000000E+00 0.  1.
         15    1    5    5    0    0 -0.56443985892E+03 -0.34611164880E+03  0.37879315201E+03  0.76280602876E+03  0.17770000000E+01 0. -1.
        -16    1    5    5    0    0 -0.24083800108E+03 -0.91431552539E+02  0.16051859081E+03  0.30352741155E+03  0.00000000000E+00 0.  1.
          4    1    6    6  502    0 -0.42436200253E+03 -0.90092061643E+01  0.54524673748E+03  0.69098355966E+03  0.00000000000E+00 0. -1.
         -3    1    6    6    0  502 -0.52986365744E+03 -0.39660557466E+02  0.55897136516E+03  0.77121815484E+03  0.00000000000E+00 0.  1.
<mgrwt>
<rscale>  0 0.18512747E+04</rscale>
<asrwt>0</asrwt>
<pdfrwt beam="1">  1        1 0.17297369E+00 0.18512747E+04</pdfrwt>
<pdfrwt beam="2">  1       -2 0.50922617E+00 0.18512747E+04</pdfrwt>
<totfact> 0.13922523E-02</totfact>
</mgrwt>
</event>
<event>
12    3  0.1182097E-007  0.2483351E+04  0.7818608E-02  0.8408941E-01
          1   -1    0    0  501    0  0.00000000000E+00  0.00000000000E+00  0.28483794194E+04  0.28483794194E+04  0.00000000000E+00 0. -1.
         -2   -1    0    0    0  501 -0.00000000000E+00 -0.00000000000E+00 -0.22374097841E+04  0.22374097841E+04  0.00000000000E+00 0.  1.
        -24    2    1    2    0    0  0.23618577685E+04  0.65998396662E+03 -0.12138530969E+03  0.24570277054E+04  0.91103219671E+02 0.  0.
    5000000    2    1    2    0    0 -0.23618577685E+04 -0.65998396662E+03  0.73235494502E+03  0.26287614981E+04  0.60007690638E+03 0.  0.
        -24    2    4    4    0    0 -0.19849855073E+04 -0.33584794017E+03  0.51064467160E+03  0.20784545595E+04  0.79082692564E+02 0.  0.
         24    2    4    4    0    0 -0.37687226124E+03 -0.32413602645E+03  0.22171027342E+03  0.55030693861E+03  0.81150578587E+02 0.  0.
         13    1    3    3    0    0  0.20197465928E+04  0.57809829248E+03 -0.13305160523E+03  0.21050597769E+04  0.00000000000E+00 0. -1.
        -14    1    3    3    0    0  0.34211117575E+03  0.81885674148E+02  0.11666295541E+02  0.35196792844E+03  0.00000000000E+00 0.  1.
         15    1    5    5    0    0 -0.15272695813E+04 -0.28373918014E+03  0.37118754627E+03  0.15971360770E+04  0.17770000000E+01 0. -1.
        -16    1    5    5    0    0 -0.45771592601E+03 -0.52108760025E+02  0.13945712533E+03  0.48131848251E+03  0.00000000000E+00 0.  1.
          2    1    6    6  502    0 -0.27610819305E+03 -0.20455412507E+03  0.12099451304E+03  0.36430453818E+03  0.00000000000E+00 0. -1.
         -1    1    6    6    0  502 -0.10076406819E+03 -0.11958190138E+03  0.10071576039E+03  0.18600240043E+03  0.00000000000E+00 0.  1.
<mgrwt>
<rscale>  0 0.24833510E+04</rscale>
<asrwt>0</asrwt>
<pdfrwt beam="1">  1        1 0.43821222E+00 0.24833510E+04</pdfrwt>
<pdfrwt beam="2">  1       -2 0.34421689E+00 0.24833510E+04</pdfrwt>
<totfact> 0.96017345E-03</totfact>
</mgrwt>
</event>
<event>
12    3  0.1182097E-007  0.3993755E+03  0.7818608E-02  0.1043996E+00
          1   -1    0    0  501    0  0.00000000000E+00  0.00000000000E+00  0.36343572084E+03  0.36343572084E+03  0.00000000000E+00 0. -1.
         -2   -1    0    0    0  501 -0.00000000000E+00 -0.00000000000E+00 -0.66385639307E+03  0.66385639307E+03  0.00000000000E+00 0.  1.
        -24    2    1    2    0    0  0.26236218500E+03  0.48236053733E+02  0.49573643630E+02  0.28321877407E+03  0.81207726520E+02 0.  0.
    5000000    2    1    2    0    0 -0.26236218500E+03 -0.48236053733E+02 -0.34999431587E+03  0.74407333983E+03  0.59999040069E+03 0.  0.
        -24    2    4    4    0    0  0.97483075869E+02  0.84726436548E+02  0.71964487657E+02  0.16810376226E+03  0.79990426116E+02 0.  0.
         24    2    4    4    0    0 -0.35984526087E+03 -0.13296249028E+03 -0.42195880352E+03  0.57596957758E+03  0.80771819545E+02 0.  0.
         11    1    3    3    0    0  0.13779684417E+03  0.15611736420E+02  0.65685484472E+02  0.15344796984E+03  0.00000000000E+00 0. -1.
        -12    1    3    3    0    0  0.12456534082E+03  0.32624317314E+02 -0.16111840842E+02  0.12977080423E+03  0.00000000000E+00 0.  1.
         15    1    5    5    0    0  0.68358258374E+02  0.13130583639E+02  0.55580489732E+02  0.89093278548E+02  0.17770000000E+01 0. -1.
        -16    1    5    5    0    0  0.29124817496E+02  0.71595852909E+02  0.16383997925E+02  0.79010483709E+02  0.00000000000E+00 0.  1.
          4    1    6    6  502    0 -0.30652095626E+03 -0.12220480957E+03 -0.39666805425E+03  0.51597931874E+03  0.00000000000E+00 0. -1.
         -3    1    6    6    0  502 -0.53324304610E+02 -0.10757680712E+02 -0.25290749277E+02  0.59990258838E+02  0.00000000000E+00 0.  1.
<mgrwt>
<rscale>  0 0.39937546E+03</rscale>
<asrwt>0</asrwt>
<pdfrwt beam="1">  1        1 0.55913188E-01 0.39937546E+03</pdfrwt>
<pdfrwt beam="2">  1       -2 0.10213175E+00 0.39937546E+03</pdfrwt>
<totfact> 0.48912833E+01</totfact>
</mgrwt>
</event>
<event>
12    3  0.1182097E-007  0.6121710E+03  0.7818608E-02  0.9880472E-01
         -2   -1    0    0    0  501 -0.00000000000E+00  0.00000000000E+00  0.15445390563E+03  0.15445390563E+03  0.00000000000E+00 0.  1.
          3   -1    0    0  501    0  0.00000000000E+00 -0.00000000000E+00 -0.40633178905E+04  0.40633178905E+04  0.00000000000E+00 0. -1.
        -24    2    1    2    0    0  0.47365927004E+03 -0.36225949107E+03 -0.83133497102E+03  0.10261359174E+04  0.79069867282E+02 0.  0.
    5000000    2    1    2    0    0 -0.47365927004E+03  0.36225949107E+03 -0.30775290139E+04  0.31916358788E+04  0.59980805974E+03 0.  0.
        -24    2    4    4    0    0 -0.93357281552E+02  0.16592411366E+03 -0.21230062027E+03  0.29352323069E+03  0.69555302252E+02 0.  0.
         24    2    4    4    0    0 -0.38030198849E+03  0.19633537741E+03 -0.28652283936E+04  0.28981126481E+04  0.79661726579E+02 0.  0.
         11    1    3    3    0    0  0.21279723625E+03 -0.21248989329E+03 -0.41802630200E+03  0.51495689885E+03  0.00000000000E+00 0. -1.
        -12    1    3    3    0    0  0.26086203380E+03 -0.14976959779E+03 -0.41330866901E+03  0.51117901852E+03  0.00000000000E+00 0.  1.
         15    1    5    5    0    0 -0.24239045653E+01  0.30053418048E+02 -0.68692637556E+01  0.30974630962E+02  0.17770000000E+01 0. -1.
        -16    1    5    5    0    0 -0.90933376987E+02  0.13587069562E+03 -0.20543135652E+03  0.26254859972E+03  0.00000000000E+00 0.  1.
          2    1    6    6  502    0 -0.27608612534E+03  0.12659918222E+03 -0.22337150402E+04  0.22542701218E+04  0.00000000000E+00 0. -1.
         -1    1    6    6    0  502 -0.10421586315E+03  0.69736195196E+02 -0.63151335343E+03  0.64384252626E+03  0.00000000000E+00 0.  1.
<mgrwt>
<rscale>  0 0.61217098E+03</rscale>
<asrwt>0</asrwt>
<pdfrwt beam="1">  1        3 0.62512579E+00 0.61217098E+03</pdfrwt>
<pdfrwt beam="2">  1       -2 0.23762141E-01 0.61217098E+03</pdfrwt>
<totfact> 0.60083990E-02</totfact>
</mgrwt>
</event>
<event>
12    3  0.1182097E-007  0.1458058E+04  0.7818608E-02  0.8912833E-01
         -4   -1    0    0    0  501 -0.00000000000E+00  0.00000000000E+00  0.27733792011E+04  0.27733792011E+04  0.00000000000E+00 0.  1.
          3   -1    0    0  501    0  0.00000000000E+00 -0.00000000000E+00 -0.79177966309E+03  0.79177966309E+03  0.00000000000E+00 0. -1.
        -24    2    1    2    0    0  0.13804300858E+04  0.31882606953E+03  0.10635256045E+04  0.17734702568E+04  0.82902087530E+02 0.  0.
    5000000    2    1    2    0    0 -0.13804300858E+04 -0.31882606953E+03  0.91807393347E+03  0.17916886073E+04  0.60004252676E+03 0.  0.
        -24    2    4    4    0    0 -0.13329989382E+04 -0.38096854252E+03  0.72034719576E+03  0.15644242583E+04  0.80622441029E+02 0.  0.
         24    2    4    4    0    0 -0.47431147599E+02  0.62142472988E+02  0.19772673771E+03  0.22726434899E+03  0.80260954435E+02 0.  0.
         11    1    3    3    0    0  0.90678600158E+03  0.23336933517E+03  0.74154123091E+03  0.11944059178E+04  0.00000000000E+00 0. -1.
        -12    1    3    3    0    0  0.47364408419E+03  0.85456734366E+02  0.32198437359E+03  0.57906433907E+03  0.00000000000E+00 0.  1.
         15    1    5    5    0    0 -0.58161695254E+03 -0.14768519882E+03  0.27157877320E+03  0.65867092332E+03  0.17770000000E+01 0. -1.
        -16    1    5    5    0    0 -0.75138198563E+03 -0.23328334370E+03  0.44876842256E+03  0.90575333500E+03  0.00000000000E+00 0.  1.
          2    1    6    6  502    0 -0.23887998517E+02  0.79104654490E+02  0.13767740960E+03  0.16057164118E+03  0.00000000000E+00 0. -1.
         -1    1    6    6    0  502 -0.23543149082E+02 -0.16962181502E+02  0.60049328106E+02  0.66692707817E+02  0.00000000000E+00 0.  1.
<mgrwt>
<rscale>  0 0.14580579E+04</rscale>
<asrwt>0</asrwt>
<pdfrwt beam="1">  1        3 0.12181226E+00 0.14580579E+04</pdfrwt>
<pdfrwt beam="2">  1       -4 0.42667372E+00 0.14580579E+04</pdfrwt>
<totfact> 0.51711166E-03</totfact>
</mgrwt>
</event>
<event>
12    3  0.1182097E-007  0.8022514E+03  0.7818608E-02  0.9556764E-01
          1   -1    0    0  501    0  0.00000000000E+00  0.00000000000E+00  0.56233101809E+03  0.56233101809E+03  0.00000000000E+00 0. -1.
         -2   -1    0    0    0  501 -0.00000000000E+00 -0.00000000000E+00 -0.19996541547E+04  0.19996541547E+04  0.00000000000E+00 0.  1.
        -24    2    1    2    0    0  0.71358100269E+03 -0.54498268684E+02  0.13554066805E+03  0.73273742464E+03  0.79780649780E+02 0.  0.
    5000000    2    1    2    0    0 -0.71358100269E+03  0.54498268684E+02 -0.15728638047E+04  0.18292477482E+04  0.60006571927E+03 0.  0.
        -24    2    4    4    0    0 -0.18438689947E+03 -0.21870454205E+03 -0.78086245333E+03  0.83514689487E+03  0.76772127636E+02 0.  0.
         24    2    4    4    0    0 -0.52919410322E+03  0.27320281074E+03 -0.79200135134E+03  0.99410085330E+03  0.79272891439E+02 0.  0.
         13    1    3    3    0    0  0.41650588230E+03 -0.36103176020E+02  0.39253548425E+02  0.41990645431E+03  0.00000000000E+00 0. -1.
        -14    1    3    3    0    0  0.29707512039E+03 -0.18395092664E+02  0.96287119625E+02  0.31283097033E+03  0.00000000000E+00 0.  1.
         15    1    5    5    0    0 -0.15362699566E+03 -0.15976877072E+03 -0.67177811560E+03  0.70740109431E+03  0.17770000000E+01 0. -1.
        -16    1    5    5    0    0 -0.30759903815E+02 -0.58935771330E+02 -0.10908433773E+03  0.12774580057E+03  0.00000000000E+00 0.  1.
          2    1    6    6  502    0 -0.14962617842E+03  0.38911699692E+02 -0.21369569030E+03  0.26375739173E+03  0.00000000000E+00 0. -1.
         -1    1    6    6    0  502 -0.37956792480E+03  0.23429111105E+03 -0.57830566105E+03  0.73034346156E+03  0.00000000000E+00 0.  1.
<mgrwt>
<rscale>  0 0.80225141E+03</rscale>
<asrwt>0</asrwt>
<pdfrwt beam="1">  1        1 0.86512466E-01 0.80225141E+03</pdfrwt>
<pdfrwt beam="2">  1       -2 0.30763910E+00 0.80225141E+03</pdfrwt>
<totfact> 0.97726400E-01</totfact>
</mgrwt>
</event>
<event>
12    3  0.1182097E-007  0.4033257E+03  0.7818608E-02  0.1042634E+00
          1   -1    0    0  501    0  0.00000000000E+00  0.00000000000E+00  0.37931598255E+04  0.37931598255E+04  0.00000000000E+00 0. -1.
         -2   -1    0    0    0  501 -0.00000000000E+00 -0.00000000000E+00 -0.72861866185E+02  0.72861866185E+02  0.00000000000E+00 0.  1.
        -24    2    1    2    0    0 -0.23212078507E+03  0.22510155978E+03  0.78980796732E+03  0.85735967606E+03  0.81964735163E+02 0.  0.
    5000000    2    1    2    0    0  0.23212078507E+03 -0.22510155978E+03  0.29304899920E+04  0.30086620156E+04  0.59977058950E+03 0.  0.
        -24    2    4    4    0    0 -0.72883732173E+02 -0.32119832692E+02  0.91711010540E+02  0.14591504062E+03  0.80849041788E+02 0.  0.
         24    2    4    4    0    0  0.30500451724E+03 -0.19298172709E+03  0.28387789815E+04  0.28627469750E+04  0.79902658492E+02 0.  0.
         11    1    3    3    0    0 -0.70379066817E+02  0.28174124213E+02  0.23262598807E+03  0.24466680332E+03  0.00000000000E+00 0. -1.
        -12    1    3    3    0    0 -0.16174171825E+03  0.19692743557E+03  0.55718197925E+03  0.61269287274E+03  0.00000000000E+00 0.  1.
         15    1    5    5    0    0 -0.54972747279E+02 -0.57037881734E+02  0.81258622464E+02  0.11349645083E+03  0.17770000000E+01 0. -1.
        -16    1    5    5    0    0 -0.17910984894E+02  0.24918049043E+02  0.10452388076E+02  0.32418589797E+02  0.00000000000E+00 0.  1.
          4    1    6    6  502    0  0.19230454018E+03 -0.85879761274E+02  0.14324211025E+04  0.14478213234E+04  0.00000000000E+00 0. -1.
         -3    1    6    6    0  502  0.11269997706E+03 -0.10710196581E+03  0.14063578790E+04  0.14149256516E+04  0.00000000000E+00 0.  1.
<mgrwt>
<rscale>  0 0.40332567E+03</rscale>
<asrwt>0</asrwt>
<pdfrwt beam="1">  1        1 0.58356290E+00 0.40332567E+03</pdfrwt>
<pdfrwt beam="2">  1       -2 0.11209521E-01 0.40332567E+03</pdfrwt>
<totfact> 0.85474336E+00</totfact>
</mgrwt>
</event>
<event>
12    3  0.1310461E-007  0.6081821E+03  0.7818608E-02  0.9888575E-01
          1   -1    0    0  501    0  0.00000000000E+00  0.00000000000E+00  0.18251455856E+04  0.18251455856E+04  0.00000000000E+00 0. -1.
         -2   -1    0    0    0  501 -0.00000000000E+00 -0.00000000000E+00 -0.25122219170E+03  0.25122219170E+03  0.00000000000E+00 0.  1.
        -24    2    1    2    0    0  0.30773918730E+03 -0.44088694560E+03  0.72236299199E+03  0.90396138044E+03  0.79077044296E+02 0.  0.
    5000000    2    1    2    0    0 -0.30773918730E+03  0.44088694560E+03  0.85156040189E+03  0.11724063968E+04  0.60024739492E+03 0.  0.
        -24    2    4    4    0    0 -0.36377674380E+03  0.18599270160E+03  0.19084213819E+03  0.45786136711E+03  0.79306402000E+02 0.  0.
         24    2    4    4    0    0  0.56037556508E+02  0.25489424399E+03  0.66071826370E+03  0.71454502974E+03  0.76907035928E+02 0.  0.
         11    1    3    3    0    0  0.20984683640E+03 -0.23238400474E+03  0.41632040780E+03  0.52092293322E+03  0.00000000000E+00 0. -1.
        -12    1    3    3    0    0  0.97892350901E+02 -0.20850294085E+03  0.30604258419E+03  0.38303844722E+03  0.00000000000E+00 0.  1.
         15    1    5    5    0    0 -0.24738551165E+03  0.13120400682E+03  0.89148537180E+02  0.29387872020E+03  0.17770000000E+01 0. -1.
        -16    1    5    5    0    0 -0.11639123216E+03  0.54788694778E+02  0.10169360101E+03  0.16398264690E+03  0.00000000000E+00 0.  1.
          4    1    6    6  502    0  0.45755827824E+02  0.11211080740E+03  0.21949594380E+03  0.25068086936E+03  0.00000000000E+00 0. -1.
         -3    1    6    6    0  502  0.10281728685E+02  0.14278343659E+03  0.44122231990E+03  0.46386416038E+03  0.00000000000E+00 0.  1.
<mgrwt>
<rscale>  0 0.60818212E+03</rscale>
<asrwt>0</asrwt>
<pdfrwt beam="1">  1        1 0.28079162E+00 0.60818212E+03</pdfrwt>
<pdfrwt beam="2">  1       -2 0.38649569E-01 0.60818212E+03</pdfrwt>
<totfact> 0.22957560E+01</totfact>
</mgrwt>
</event>
<event>
12    3  0.1182097E-007  0.2438487E+03  0.7818608E-02  0.1117255E+00
          1   -1    0    0  501    0  0.00000000000E+00  0.00000000000E+00  0.44057815454E+03  0.44057815454E+03  0.00000000000E+00 0. -1.
         -4   -1    0    0    0  501 -0.00000000000E+00 -0.00000000000E+00 -0.58519528247E+03  0.58519528247E+03  0.00000000000E+00 0.  1.
        -24    2    1    2    0    0 -0.35645274520E+02 -0.16522752835E+03  0.23182284953E+03  0.29791369212E+03  0.80249689537E+02 0.  0.
    5000000    2    1    2    0    0  0.35645274520E+02  0.16522752835E+03 -0.37643997747E+03  0.72785974489E+03  0.59958488129E+03 0.  0.
        -24    2    4    4    0    0  0.64346214645E+02 -0.35291444107E+02  0.13480440510E+03  0.17264153339E+03  0.79037649576E+02 0.  0.
         24    2    4    4    0    0 -0.28700940125E+02  0.20051897245E+03 -0.51124438256E+03  0.55521821150E+03  0.76582252527E+02 0.  0.
         13    1    3    3    0    0 -0.16234990642E+02 -0.32931819206E+02  0.86041562668E+01  0.37710888911E+02  0.00000000000E+00 0. -1.
        -14    1    3    3    0    0 -0.19410283878E+02 -0.13229570914E+03  0.22321869326E+03  0.26020280321E+03  0.00000000000E+00 0.  1.
         15    1    5    5    0    0  0.15971459805E+02  0.25167669642E+02  0.45750177742E+02  0.54632733924E+02  0.17770000000E+01 0. -1.
        -16    1    5    5    0    0  0.48374754840E+02 -0.60459113749E+02  0.89054227354E+02  0.11800879946E+03  0.00000000000E+00 0.  1.
          2    1    6    6  502    0 -0.45451076370E+02  0.15196492260E+03 -0.43736693206E+03  0.46524076702E+03  0.00000000000E+00 0. -1.
         -1    1    6    6    0  502  0.16750136245E+02  0.48554049853E+02 -0.73877450507E+02  0.89977444478E+02  0.00000000000E+00 0.  1.
<mgrwt>
<rscale>  0 0.24384869E+03</rscale>
<asrwt>0</asrwt>
<pdfrwt beam="1">  1        1 0.67781255E-01 0.24384869E+03</pdfrwt>
<pdfrwt beam="2">  1       -4 0.90030043E-01 0.24384869E+03</pdfrwt>
<totfact> 0.27006310E+01</totfact>
</mgrwt>
</event>
<event>
12    3  0.1182097E-007  0.1274202E+04  0.7818608E-02  0.9050277E-01
         -4   -1    0    0    0  501 -0.00000000000E+00  0.00000000000E+00  0.33277873333E+04  0.33277873333E+04  0.00000000000E+00 0.  1.
          3   -1    0    0  501    0  0.00000000000E+00 -0.00000000000E+00 -0.53977031560E+03  0.53977031560E+03  0.00000000000E+00 0. -1.
        -24    2    1    2    0    0  0.94388986190E+03  0.83787373604E+03  0.11003281106E+04  0.16763776529E+04  0.80991452697E+02 0.  0.
    5000000    2    1    2    0    0 -0.94388986190E+03 -0.83787373604E+03  0.16876889071E+04  0.21911799959E+04  0.60001288193E+03 0.  0.
        -24    2    4    4    0    0 -0.90453998029E+02 -0.36011178207E+02 -0.10526977476E+02  0.12684717804E+03  0.80626661882E+02 0.  0.
         24    2    4    4    0    0 -0.85343586387E+03 -0.80186255783E+03  0.16982158846E+04  0.20643328179E+04  0.78717577552E+02 0.  0.
         11    1    3    3    0    0  0.59606467017E+03  0.50921633471E+03  0.63458467329E+03  0.10086089798E+04  0.00000000000E+00 0. -1.
        -12    1    3    3    0    0  0.34782519173E+03  0.32865740133E+03  0.46574343729E+03  0.66776867314E+03  0.00000000000E+00 0.  1.
         15    1    5    5    0    0  0.85437186698E+01 -0.96202577277E+00  0.16248425750E+02  0.18468613664E+02  0.17770000000E+01 0. -1.
        -16    1    5    5    0    0 -0.98997716699E+02 -0.35049152435E+02 -0.26775403226E+02  0.10837856437E+03  0.00000000000E+00 0.  1.
          2    1    6    6  502    0 -0.33225528038E+03 -0.34592079811E+03  0.74791237961E+03  0.88849743809E+03  0.00000000000E+00 0. -1.
         -1    1    6    6    0  502 -0.52118058349E+03 -0.45594175972E+03  0.95030350495E+03  0.11758353798E+04  0.00000000000E+00 0.  1.
<mgrwt>
<rscale>  0 0.12742024E+04</rscale>
<asrwt>0</asrwt>
<pdfrwt beam="1">  1        3 0.83041589E-01 0.12742024E+04</pdfrwt>
<pdfrwt beam="2">  1       -4 0.51196727E+00 0.12742024E+04</pdfrwt>
<totfact> 0.28851211E-03</totfact>
</mgrwt>
</event>
<event>
12    3  0.1182097E-007  0.4031136E+03  0.7818608E-02  0.1042707E+00
         -2   -1    0    0    0  501 -0.00000000000E+00  0.00000000000E+00  0.70193444689E+03  0.70193444689E+03  0.00000000000E+00 0.  1.
          1   -1    0    0  501    0  0.00000000000E+00 -0.00000000000E+00 -0.28192862160E+03  0.28192862160E+03  0.00000000000E+00 0. -1.
        -24    2    1    2    0    0 -0.15225095118E+03  0.89420238671E+02  0.28281088522E+03  0.34357615000E+03  0.82983388900E+02 0.  0.
    5000000    2    1    2    0    0  0.15225095118E+03 -0.89420238671E+02  0.13719494007E+03  0.64028691849E+03  0.59997379542E+03 0.  0.
        -24    2    4    4    0    0 -0.10981010378E+03 -0.26654443502E+03  0.79481198419E+02  0.30916523147E+03  0.78496399375E+02 0.  0.
         24    2    4    4    0    0  0.26206105496E+03  0.17712419635E+03  0.57713741646E+02  0.33112168702E+03  0.79131019064E+02 0.  0.
         13    1    3    3    0    0 -0.12088759950E+03  0.94438180974E+02  0.26738834139E+03  0.30826758969E+03  0.00000000000E+00 0. -1.
        -14    1    3    3    0    0 -0.31363351680E+02 -0.50179423026E+01  0.15422543826E+02  0.35308560316E+02  0.00000000000E+00 0.  1.
         15    1    5    5    0    0 -0.10897062232E+03 -0.16973462959E+03  0.59587953186E+02  0.21032908241E+03  0.17770000000E+01 0. -1.
        -16    1    5    5    0    0 -0.83948146282E+00 -0.96809805429E+02  0.19893245233E+02  0.98836149066E+02  0.00000000000E+00 0.  1.
          4    1    6    6  502    0  0.12300006604E+03  0.45748882810E+02  0.47431118343E+02  0.13954098864E+03  0.00000000000E+00 0. -1.
         -3    1    6    6    0  502  0.13906098892E+03  0.13137531354E+03  0.10282623304E+02  0.19158069838E+03  0.00000000000E+00 0.  1.
<mgrwt>
<rscale>  0 0.40311356E+03</rscale>
<asrwt>0</asrwt>
<pdfrwt beam="1">  1        1 0.43373634E-01 0.40311356E+03</pdfrwt>
<pdfrwt beam="2">  1       -2 0.10798991E+00 0.40311356E+03</pdfrwt>
<totfact> 0.59306684E+01</totfact>
</mgrwt>
</event>
<event>
12    3  0.1182097E-007  0.5855104E+03  0.7818608E-02  0.9935932E-01
          1   -1    0    0  501    0  0.00000000000E+00  0.00000000000E+00  0.75608771360E+03  0.75608771360E+03  0.00000000000E+00 0. -1.
         -2   -1    0    0    0  501 -0.00000000000E+00 -0.00000000000E+00 -0.53468384768E+03  0.53468384768E+03  0.00000000000E+00 0.  1.
        -24    2    1    2    0    0  0.49011448861E+03 -0.12950641087E+02  0.90426008026E+02  0.50513551191E+03  0.81271713483E+02 0.  0.
    5000000    2    1    2    0    0 -0.49011448861E+03  0.12950641087E+02  0.13097785789E+03  0.78563604936E+03  0.59974067041E+03 0.  0.
        -24    2    4    4    0    0 -0.55100716178E+03  0.79923502307E+02 -0.54036118563E+02  0.56506628498E+03  0.79895843185E+02 0.  0.
         24    2    4    4    0    0  0.60892673165E+02 -0.66972861220E+02  0.18501397646E+03  0.22056976438E+03  0.78914939593E+02 0.  0.
         11    1    3    3    0    0  0.22953186182E+02  0.82242828956E+01  0.21373271911E+02  0.32423823606E+02  0.00000000000E+00 0. -1.
        -12    1    3    3    0    0  0.46716130243E+03 -0.21174923983E+02  0.69052736115E+02  0.47271168830E+03  0.00000000000E+00 0.  1.
         15    1    5    5    0    0 -0.27978959791E+03  0.99539639624E+01 -0.53120637605E+02  0.28496712155E+03  0.17770000000E+01 0. -1.
        -16    1    5    5    0    0 -0.27121756387E+03  0.69969538344E+02 -0.91548095808E+00  0.28009916343E+03  0.00000000000E+00 0.  1.
          2    1    6    6  502    0  0.65209968274E+02 -0.15177744756E+02  0.11910054547E+03  0.13662958621E+03  0.00000000000E+00 0. -1.
         -1    1    6    6    0  502 -0.43172951086E+01 -0.51795116464E+02  0.65913430992E+02  0.83940178173E+02  0.00000000000E+00 0.  1.
<mgrwt>
<rscale>  0 0.58551036E+03</rscale>
<asrwt>0</asrwt>
<pdfrwt beam="1">  1        1 0.11632119E+00 0.58551036E+03</pdfrwt>
<pdfrwt beam="2">  1       -2 0.82259053E-01 0.58551036E+03</pdfrwt>
<totfact> 0.28526426E+01</totfact>
</mgrwt>
</event>
<event>
12    3  0.1182097E-007  0.3255332E+03  0.7818608E-02  0.1073131E+00
          1   -1    0    0  501    0  0.00000000000E+00  0.00000000000E+00  0.10099140644E+04  0.10099140644E+04  0.00000000000E+00 0. -1.
         -2   -1    0    0    0  501 -0.00000000000E+00 -0.00000000000E+00 -0.21686785701E+03  0.21686785701E+03  0.00000000000E+00 0.  1.
        -24    2    1    2    0    0 -0.16168658107E+03 -0.20761139636E+03  0.17222275870E+03  0.32420517376E+03  0.78760863907E+02 0.  0.
    5000000    2    1    2    0    0  0.16168658107E+03  0.20761139636E+03  0.62082344867E+03  0.90257674762E+03  0.59998165683E+03 0.  0.
        -24    2    4    4    0    0  0.10832736943E+03  0.25833409824E+03  0.70620164281E+03  0.76380637891E+03  0.78791489874E+02 0.  0.
         24    2    4    4    0    0  0.53359211636E+02 -0.50722701880E+02 -0.85378194139E+02  0.13877036871E+03  0.80918361610E+02 0.  0.
         13    1    3    3    0    0 -0.52528484077E+02 -0.88705161833E+02  0.11121812023E+03  0.15164866515E+03  0.00000000000E+00 0. -1.
        -14    1    3    3    0    0 -0.10915809699E+03 -0.11890623452E+03  0.61004638470E+02  0.17255650861E+03  0.00000000000E+00 0.  1.
         15    1    5    5    0    0  0.11797856124E+02  0.11681819983E+03  0.33500522402E+03  0.35498920979E+03  0.17770000000E+01 0. -1.
        -16    1    5    5    0    0  0.96529513310E+02  0.14151589841E+03  0.37119641879E+03  0.40881716912E+03  0.00000000000E+00 0.  1.
          4    1    6    6  502    0 -0.14080904876E+02 -0.11388607650E+01 -0.42367414982E+02  0.44660572524E+02  0.00000000000E+00 0. -1.
         -3    1    6    6    0  502  0.67440116512E+02 -0.49583841115E+02 -0.43010779157E+02  0.94109796188E+02  0.00000000000E+00 0.  1.
<mgrwt>
<rscale>  0 0.32553322E+03</rscale>
<asrwt>0</asrwt>
<pdfrwt beam="1">  1        1 0.15537139E+00 0.32553322E+03</pdfrwt>
<pdfrwt beam="2">  1       -2 0.33364286E-01 0.32553322E+03</pdfrwt>
<totfact> 0.11627633E+02</totfact>
</mgrwt>
</event>
<event>
12    3  0.1182097E-007  0.1566759E+04  0.7818608E-02  0.8841234E-01
         -2   -1    0    0    0  501 -0.00000000000E+00  0.00000000000E+00  0.23039962613E+04  0.23039962613E+04  0.00000000000E+00 0.  1.
          1   -1    0    0  501    0  0.00000000000E+00 -0.00000000000E+00 -0.13747084188E+04  0.13747084188E+04  0.00000000000E+00 0. -1.
        -24    2    1    2    0    0  0.14829862056E+04 -0.31868645251E+03 -0.40420631411E+03  0.15717560656E+04  0.78900218502E+02 0.  0.
    5000000    2    1    2    0    0 -0.14829862056E+04  0.31868645251E+03  0.13334941566E+04  0.21069486144E+04  0.60018052039E+03 0.  0.
        -24    2    4    4    0    0 -0.85113063375E+03  0.45577088646E+03  0.67535153463E+03  0.11809428804E+04  0.79849450395E+02 0.  0.
         24    2    4    4    0    0 -0.63185557186E+03 -0.13708443395E+03  0.65814262195E+03  0.92600573403E+03  0.79380746459E+02 0.  0.
         13    1    3    3    0    0  0.71394128338E+03 -0.13015063324E+03 -0.22661659423E+03  0.76026733734E+03  0.00000000000E+00 0. -1.
        -14    1    3    3    0    0  0.76904492223E+03 -0.18853581927E+03 -0.17758971987E+03  0.81148872830E+03  0.00000000000E+00 0.  1.
         15    1    5    5    0    0 -0.59542776338E+02  0.29193186264E+02  0.23741426102E+02  0.70458479835E+02  0.17770000000E+01 0. -1.
        -16    1    5    5    0    0 -0.79158785742E+03  0.42657770019E+03  0.65161010853E+03  0.11104844005E+04  0.00000000000E+00 0.  1.
          2    1    6    6  502    0 -0.24068816882E+03 -0.87714388225E+02  0.28404883685E+03  0.38250274539E+03  0.00000000000E+00 0. -1.
         -1    1    6    6    0  502 -0.39116740304E+03 -0.49370045723E+02  0.37409378510E+03  0.54350298864E+03  0.00000000000E+00 0.  1.
<mgrwt>
<rscale>  0 0.15667590E+04</rscale>
<asrwt>0</asrwt>
<pdfrwt beam="1">  1        1 0.21149360E+00 0.15667590E+04</pdfrwt>
<pdfrwt beam="2">  1       -2 0.35446096E+00 0.15667590E+04</pdfrwt>
<totfact> 0.95985178E-02</totfact>
</mgrwt>
</event>
<event>
12    3  0.1182097E-007  0.9234501E+03  0.7818608E-02  0.9396733E-01
          1   -1    0    0  501    0  0.00000000000E+00  0.00000000000E+00  0.61528811013E+03  0.61528811013E+03  0.00000000000E+00 0. -1.
         -2   -1    0    0    0  501 -0.00000000000E+00 -0.00000000000E+00 -0.17757455376E+04  0.17757455376E+04  0.00000000000E+00 0.  1.
        -24    2    1    2    0    0 -0.74535258530E+03  0.37568135519E+03  0.44614509534E+01  0.83740239254E+03  0.67349130833E+02 0.  0.
    5000000    2    1    2    0    0  0.74535258530E+03 -0.37568135519E+03 -0.11649188784E+04  0.15536312552E+04  0.60003927104E+03 0.  0.
        -24    2    4    4    0    0 -0.33279511194E+02 -0.20891479920E+03 -0.26536446205E+03  0.34962513119E+03  0.84062568661E+02 0.  0.
         24    2    4    4    0    0  0.77863209650E+03 -0.16676655600E+03 -0.89955441639E+03  0.12040061240E+04  0.79709301607E+02 0.  0.
         11    1    3    3    0    0 -0.34968055832E+03  0.14465956312E+03 -0.16088413568E+02  0.37876340784E+03  0.00000000000E+00 0. -1.
        -12    1    3    3    0    0 -0.39567202699E+03  0.23102179208E+03  0.20549864521E+02  0.45863898470E+03  0.00000000000E+00 0.  1.
         15    1    5    5    0    0 -0.37352217062E+01 -0.64476478433E+02 -0.28475060213E+02  0.70605629630E+02  0.17770000000E+01 0. -1.
        -16    1    5    5    0    0 -0.29544289488E+02 -0.14443832076E+03 -0.23688940184E+03  0.27901950156E+03  0.00000000000E+00 0.  1.
          4    1    6    6  502    0  0.18502713822E+03 -0.15427272603E+02 -0.17438691495E+03  0.25472306280E+03  0.00000000000E+00 0. -1.
         -3    1    6    6    0  502  0.59360495828E+03 -0.15133928339E+03 -0.72516750144E+03  0.94928306123E+03  0.00000000000E+00 0.  1.
<mgrwt>
<rscale>  0 0.92345014E+03</rscale>
<asrwt>0</asrwt>
<pdfrwt beam="1">  1        1 0.94659710E-01 0.92345014E+03</pdfrwt>
<pdfrwt beam="2">  1       -2 0.27319162E+00 0.92345014E+03</pdfrwt>
<totfact> 0.13606947E+00</totfact>
</mgrwt>
</event>
<event>
12    3  0.1182097E-007  0.6304899E+03  0.7818608E-02  0.9844093E-01
          1   -1    0    0  501    0  0.00000000000E+00  0.00000000000E+00  0.16562511609E+04  0.16562511609E+04  0.00000000000E+00 0. -1.
         -2   -1    0    0    0  501 -0.00000000000E+00 -0.00000000000E+00 -0.27891726239E+03  0.27891726239E+03  0.00000000000E+00 0.  1.
        -24    2    1    2    0    0 -0.43469630284E+03  0.32490095719E+03  0.60626268327E+03  0.81751381152E+03  0.79075174451E+02 0.  0.
    5000000    2    1    2    0    0  0.43469630284E+03 -0.32490095719E+03  0.77107121525E+03  0.11176546118E+04  0.60006625012E+03 0.  0.
        -24    2    4    4    0    0  0.41364658119E+03 -0.39737582670E+02  0.18867190775E+03  0.46358976442E+03  0.81460489138E+02 0.  0.
         24    2    4    4    0    0  0.21049721650E+02 -0.28516337452E+03  0.58239930750E+03  0.65406484735E+03  0.82768533964E+02 0.  0.
         11    1    3    3    0    0 -0.64817693104E+02  0.16763335405E+02  0.78201208126E+02  0.10294547929E+03  0.00000000000E+00 0. -1.
        -12    1    3    3    0    0 -0.36987860974E+03  0.30813762178E+03  0.52806147515E+03  0.71456833224E+03  0.00000000000E+00 0.  1.
         15    1    5    5    0    0  0.19457802489E+03  0.25673710389E+01  0.50117579912E+02  0.20095305101E+03  0.17770000000E+01 0. -1.
        -16    1    5    5    0    0  0.21906855631E+03 -0.42304953709E+02  0.13855432783E+03  0.26263671341E+03  0.00000000000E+00 0.  1.
          4    1    6    6  502    0 -0.26960116358E+02 -0.93218138613E+02  0.23545466406E+03  0.25466717116E+03  0.00000000000E+00 0. -1.
         -3    1    6    6    0  502  0.48009838008E+02 -0.19194523590E+03  0.34694464345E+03  0.39939767619E+03  0.00000000000E+00 0.  1.
<mgrwt>
<rscale>  0 0.63048985E+03</rscale>
<asrwt>0</asrwt>
<pdfrwt beam="1">  1        1 0.25480787E+00 0.63048985E+03</pdfrwt>
<pdfrwt beam="2">  1       -2 0.42910349E-01 0.63048985E+03</pdfrwt>
<totfact> 0.24195790E+01</totfact>
</mgrwt>
</event>
<event>
12    3  0.1182097E-007  0.6709049E+03  0.7818608E-02  0.9768324E-01
          1   -1    0    0  501    0  0.00000000000E+00  0.00000000000E+00  0.10178889956E+04  0.10178889956E+04  0.00000000000E+00 0. -1.
         -2   -1    0    0    0  501 -0.00000000000E+00 -0.00000000000E+00 -0.51743009606E+03  0.51743009606E+03  0.00000000000E+00 0.  1.
        -24    2    1    2    0    0  0.76387852947E+02 -0.55641645546E+03  0.42711643210E+03  0.70998327588E+03  0.78825309848E+02 0.  0.
    5000000    2    1    2    0    0 -0.76387852947E+02  0.55641645546E+03  0.73342467468E+02  0.82533581581E+03  0.60030468543E+03 0.  0.
        -24    2    4    4    0    0 -0.24281054148E+03  0.55555264893E+03  0.14544626227E+03  0.62809700066E+03  0.75865158282E+02 0.  0.
         24    2    4    4    0    0  0.16642268853E+03  0.86380652951E+00 -0.72103794803E+02  0.19723881515E+03  0.77504422821E+02 0.  0.
         11    1    3    3    0    0  0.73096500127E+02 -0.53179872910E+03  0.38323986893E+03  0.65956484423E+03  0.00000000000E+00 0. -1.
        -12    1    3    3    0    0  0.32913528196E+01 -0.24617726360E+02  0.43876563171E+02  0.50418431651E+02  0.00000000000E+00 0.  1.
         15    1    5    5    0    0 -0.18814830374E+03  0.38474805282E+03  0.13237809481E+03  0.44828335466E+03  0.17770000000E+01 0. -1.
        -16    1    5    5    0    0 -0.54662237744E+02  0.17080459611E+03  0.13068167456E+02  0.17981364600E+03  0.00000000000E+00 0.  1.
          4    1    6    6  502    0  0.37102790672E+02 -0.19037545325E+02  0.98499122637E+01  0.42849340476E+02  0.00000000000E+00 0. -1.
         -3    1    6    6    0  502  0.12931989786E+03  0.19901351854E+02 -0.81953707066E+02  0.15438947468E+03  0.00000000000E+00 0.  1.
<mgrwt>
<rscale>  0 0.67090492E+03</rscale>
<asrwt>0</asrwt>
<pdfrwt beam="1">  1        1 0.15659831E+00 0.67090492E+03</pdfrwt>
<pdfrwt beam="2">  1       -2 0.79604630E-01 0.67090492E+03</pdfrwt>
<totfact> 0.18549669E+01</totfact>
</mgrwt>
</event>
<event>
12    3  0.1182097E-007  0.4773571E+03  0.7818608E-02  0.1019864E+00
          1   -1    0    0  501    0  0.00000000000E+00  0.00000000000E+00  0.67621678842E+03  0.67621678842E+03  0.00000000000E+00 0. -1.
         -2   -1    0    0    0  501 -0.00000000000E+00 -0.00000000000E+00 -0.82111016963E+03  0.82111016963E+03  0.00000000000E+00 0.  1.
        -24    2    1    2    0    0 -0.40513988007E+02  0.34169863045E+03 -0.58072993654E+03  0.67958978904E+03  0.78712673027E+02 0.  0.
    5000000    2    1    2    0    0  0.40513988007E+02 -0.34169863045E+03  0.43583655533E+03  0.81773716902E+03  0.60028429710E+03 0.  0.
        -24    2    4    4    0    0  0.26240231249E+03 -0.10826991838E+03  0.38001155492E+03  0.48128300132E+03  0.81530341974E+02 0.  0.
         24    2    4    4    0    0 -0.22188832448E+03 -0.23342871207E+03  0.55825000413E+02  0.33645416770E+03  0.79759539410E+02 0.  0.
         11    1    3    3    0    0 -0.30293706664E+01  0.19966884379E+03 -0.26934603349E+03  0.33529704744E+03  0.00000000000E+00 0. -1.
        -12    1    3    3    0    0 -0.37484617341E+02  0.14202978666E+03 -0.31138390305E+03  0.34429274160E+03  0.00000000000E+00 0.  1.
         15    1    5    5    0    0  0.99333907919E+02 -0.54268211781E+02  0.21555367370E+03  0.24347239689E+03  0.17770000000E+01 0. -1.
        -16    1    5    5    0    0  0.16306840457E+03 -0.54001706597E+02  0.16445788121E+03  0.23781060443E+03  0.00000000000E+00 0.  1.
          2    1    6    6  502    0 -0.12400929386E+03 -0.14927051138E+03  0.70646896079E+02  0.20652112351E+03  0.00000000000E+00 0. -1.
         -1    1    6    6    0  502 -0.97879030624E+02 -0.84158200694E+02 -0.14821895665E+02  0.12993304418E+03  0.00000000000E+00 0.  1.
<mgrwt>
<rscale>  0 0.47735710E+03</rscale>
<asrwt>0</asrwt>
<pdfrwt beam="1">  1        1 0.10403335E+00 0.47735710E+03</pdfrwt>
<pdfrwt beam="2">  1       -2 0.12632464E+00 0.47735710E+03</pdfrwt>
<totfact> 0.12408093E+01</totfact>
</mgrwt>
</event>
<event>
12    3  0.1182097E-007  0.1012878E+04  0.7818608E-02  0.9294532E-01
          1   -1    0    0  501    0  0.00000000000E+00  0.00000000000E+00  0.34729683433E+04  0.34729683433E+04  0.00000000000E+00 0. -1.
         -2   -1    0    0    0  501 -0.00000000000E+00 -0.00000000000E+00 -0.37748866462E+03  0.37748866462E+03  0.00000000000E+00 0.  1.
        -24    2    1    2    0    0  0.91089499077E+03 -0.37746387644E+03  0.21192063264E+04  0.23387505817E+04  0.80685607400E+02 0.  0.
    5000000    2    1    2    0    0 -0.91089499077E+03  0.37746387644E+03  0.97627335227E+03  0.15117064262E+04  0.59994832986E+03 0.  0.
        -24    2    4    4    0    0 -0.66006405060E+03  0.40129256682E+03  0.39023195187E+03  0.86888072273E+03  0.77152180736E+02 0.  0.
         24    2    4    4    0    0 -0.25083094017E+03 -0.23828690372E+02  0.58604140040E+03  0.64282570349E+03  0.79349827086E+02 0.  0.
         11    1    3    3    0    0  0.65525826907E+03 -0.27032555191E+03  0.16061620908E+04  0.17556183996E+04  0.00000000000E+00 0. -1.
        -12    1    3    3    0    0  0.25563672170E+03 -0.10713832453E+03  0.51304423567E+03  0.58313218211E+03  0.00000000000E+00 0.  1.
         15    1    5    5    0    0 -0.37666292753E+03  0.18484094490E+03  0.21910826101E+03  0.47334207890E+03  0.17770000000E+01 0. -1.
        -16    1    5    5    0    0 -0.28340112307E+03  0.21645162191E+03  0.17112369086E+03  0.39553864383E+03  0.00000000000E+00 0.  1.
          2    1    6    6  502    0 -0.16782793601E+03 -0.52340866010E+02  0.41079671931E+03  0.44683299671E+03  0.00000000000E+00 0. -1.
         -1    1    6    6    0  502 -0.83003004162E+02  0.28512175638E+02  0.17524468109E+03  0.19599270678E+03  0.00000000000E+00 0.  1.
<mgrwt>
<rscale>  0 0.10128777E+04</rscale>
<asrwt>0</asrwt>
<pdfrwt beam="1">  1        1 0.53430280E+00 0.10128777E+04</pdfrwt>
<pdfrwt beam="2">  1       -2 0.58075181E-01 0.10128777E+04</pdfrwt>
<totfact> 0.66129469E-01</totfact>
</mgrwt>
</event>
<event>
12    3  0.1182097E-007  0.1002794E+04  0.7818608E-02  0.9305486E-01
          1   -1    0    0  501    0  0.00000000000E+00  0.00000000000E+00  0.81098407300E+03  0.81098407300E+03  0.00000000000E+00 0. -1.
         -2   -1    0    0    0  501 -0.00000000000E+00 -0.00000000000E+00 -0.13088411543E+04  0.13088411543E+04  0.00000000000E+00 0.  1.
        -24    2    1    2    0    0 -0.29596443149E+02  0.94056223921E+03 -0.23780705813E+03  0.97387842489E+03  0.79710189388E+02 0.  0.
    5000000    2    1    2    0    0  0.29596443149E+02 -0.94056223921E+03 -0.26005002313E+03  0.11459468024E+04  0.60002898602E+03 0.  0.
        -24    2    4    4    0    0 -0.20817125297E+03 -0.61490113833E+03  0.11107741039E+02  0.65373549029E+03  0.76210424941E+02 0.  0.
         24    2    4    4    0    0  0.23776769611E+03 -0.32566110087E+03 -0.27115776417E+03  0.49221131208E+03  0.78465360100E+02 0.  0.
         11    1    3    3    0    0 -0.54780743255E+02  0.48692773490E+03 -0.11768027428E+03  0.50393272944E+03  0.00000000000E+00 0. -1.
        -12    1    3    3    0    0  0.25184300105E+02  0.45363450431E+03 -0.12012678385E+03  0.46994569545E+03  0.00000000000E+00 0.  1.
         15    1    5    5    0    0 -0.19381207684E+03 -0.60650083434E+03  0.13886381878E+02  0.63686919576E+03  0.17770000000E+01 0. -1.
        -16    1    5    5    0    0 -0.14359176124E+02 -0.84003039970E+01 -0.27786408394E+01  0.16866294528E+02  0.00000000000E+00 0.  1.
          4    1    6    6  502    0  0.71575903741E+02 -0.14931424038E+03 -0.81825993360E+02  0.18469798473E+03  0.00000000000E+00 0. -1.
         -3    1    6    6    0  502  0.16619179237E+03 -0.17634686050E+03 -0.18933177081E+03  0.30751332735E+03  0.00000000000E+00 0.  1.
<mgrwt>
<rscale>  0 0.10027937E+04</rscale>
<asrwt>0</asrwt>
<pdfrwt beam="1">  1        1 0.12476678E+00 0.10027937E+04</pdfrwt>
<pdfrwt beam="2">  1       -2 0.20136017E+00 0.10027937E+04</pdfrwt>
<totfact> 0.24615197E+00</totfact>
</mgrwt>
</event>
<event>
12    3  0.1182097E-007  0.1226344E+04  0.7818608E-02  0.9090105E-01
         -2   -1    0    0    0  501 -0.00000000000E+00  0.00000000000E+00  0.10597234061E+04  0.10597234061E+04  0.00000000000E+00 0.  1.
          1   -1    0    0  501    0  0.00000000000E+00 -0.00000000000E+00 -0.14543387823E+04  0.14543387823E+04  0.00000000000E+00 0. -1.
        -24    2    1    2    0    0  0.94579354782E+03  0.67815827757E+03 -0.91671318899E+02  0.11700767683E+04  0.79069136605E+02 0.  0.
    5000000    2    1    2    0    0 -0.94579354782E+03 -0.67815827757E+03 -0.30294405725E+03  0.13439854202E+04  0.60008134724E+03 0.  0.
        -24    2    4    4    0    0 -0.72670429365E+03 -0.75349970793E+03 -0.16916745005E+03  0.10640803090E+04  0.88251558770E+02 0.  0.
         24    2    4    4    0    0 -0.21908925417E+03  0.75341430362E+02 -0.13377660720E+03  0.27990511116E+03  0.82305881929E+02 0.  0.
         13    1    3    3    0    0  0.18870509849E+03  0.17563275632E+03 -0.20036820362E+02  0.25856904969E+03  0.00000000000E+00 0. -1.
        -14    1    3    3    0    0  0.75708844933E+03  0.50252552125E+03 -0.71634498537E+02  0.91150771856E+03  0.00000000000E+00 0.  1.
         15    1    5    5    0    0 -0.38400520076E+03 -0.44702195386E+03 -0.12302711848E+03  0.60201947730E+03  0.17770000000E+01 0. -1.
        -16    1    5    5    0    0 -0.34269909289E+03 -0.30647775407E+03 -0.46140331571E+02  0.46206083171E+03  0.00000000000E+00 0.  1.
          4    1    6    6  502    0 -0.14838327967E+03  0.75388678986E+02 -0.12604363184E+03  0.20877750773E+03  0.00000000000E+00 0. -1.
         -3    1    6    6    0  502 -0.70705974504E+02 -0.47248623760E-01 -0.77329753540E+01  0.71127603438E+02  0.00000000000E+00 0.  1.
<mgrwt>
<rscale>  0 0.12263442E+04</rscale>
<asrwt>0</asrwt>
<pdfrwt beam="1">  1        1 0.22374443E+00 0.12263442E+04</pdfrwt>
<pdfrwt beam="2">  1       -2 0.16303437E+00 0.12263442E+04</pdfrwt>
<totfact> 0.14360689E+00</totfact>
</mgrwt>
</event>
<event>
12    3  0.1182097E-007  0.1206463E+04  0.7818608E-02  0.9107218E-01
         -4   -1    0    0    0  501 -0.00000000000E+00  0.00000000000E+00  0.20161256233E+04  0.20161256233E+04  0.00000000000E+00 0.  1.
          1   -1    0    0  501    0  0.00000000000E+00 -0.00000000000E+00 -0.10029912344E+04  0.10029912344E+04  0.00000000000E+00 0. -1.
        -24    2    1    2    0    0 -0.90610877967E+03  0.69175274561E+03 -0.29796338876E+03  0.11810554483E+04  0.80961776123E+02 0.  0.
    5000000    2    1    2    0    0  0.90610877967E+03 -0.69175274561E+03  0.13110977777E+04  0.18380614094E+04  0.59994781489E+03 0.  0.
        -24    2    4    4    0    0  0.26471138326E+03 -0.55447039789E+03  0.73792951152E+03  0.96329525576E+03  0.76734915345E+02 0.  0.
         24    2    4    4    0    0  0.64139739641E+03 -0.13728234772E+03  0.57316826614E+03  0.87476615367E+03  0.80354832933E+02 0.  0.
         11    1    3    3    0    0 -0.46129787248E+03  0.30754795637E+03 -0.12450876395E+03  0.56822874349E+03  0.00000000000E+00 0. -1.
        -12    1    3    3    0    0 -0.44481090719E+03  0.38420478924E+03 -0.17345462481E+03  0.61282670478E+03  0.00000000000E+00 0.  1.
         15    1    5    5    0    0  0.21423091388E+03 -0.44622980160E+03  0.54362195878E+03  0.73521691500E+03  0.17770000000E+01 0. -1.
        -16    1    5    5    0    0  0.50480469374E+02 -0.10824059629E+03  0.19430755273E+03  0.22807834076E+03  0.00000000000E+00 0.  1.
          4    1    6    6  502    0  0.31270016807E+03 -0.78466488483E+02  0.23058467745E+03  0.39636810972E+03  0.00000000000E+00 0. -1.
         -3    1    6    6    0  502  0.32869722834E+03 -0.58815859233E+02  0.34258358868E+03  0.47839804395E+03  0.00000000000E+00 0.  1.
<mgrwt>
<rscale>  0 0.12064635E+04</rscale>
<asrwt>0</asrwt>
<pdfrwt beam="1">  1        1 0.15430634E+00 0.12064635E+04</pdfrwt>
<pdfrwt beam="2">  1       -4 0.31017317E+00 0.12064635E+04</pdfrwt>
<totfact> 0.18664752E-01</totfact>
</mgrwt>
</event>
<event>
12    3  0.1182097E-007  0.1561551E+04  0.7818608E-02  0.8844523E-01
          1   -1    0    0  501    0  0.00000000000E+00  0.00000000000E+00  0.27228079253E+04  0.27228079253E+04  0.00000000000E+00 0. -1.
         -2   -1    0    0    0  501 -0.00000000000E+00 -0.00000000000E+00 -0.91033277221E+03  0.91033277221E+03  0.00000000000E+00 0.  1.
        -24    2    1    2    0    0 -0.12921019745E+03 -0.15013441865E+04  0.10662328027E+04  0.18477429894E+04  0.81068635685E+02 0.  0.
    5000000    2    1    2    0    0  0.12921019745E+03  0.15013441865E+04  0.74624235041E+03  0.17853977082E+04  0.60003140689E+03 0.  0.
        -24    2    4    4    0    0 -0.18923265190E+03  0.98661617294E+03  0.40755669495E+03  0.10870338531E+04  0.79496345277E+02 0.  0.
         24    2    4    4    0    0  0.31844284935E+03  0.51472801357E+03  0.33868565546E+03  0.69836385507E+03  0.81567914006E+02 0.  0.
         11    1    3    3    0    0 -0.49697298779E+02 -0.10125511179E+04  0.70708514001E+03  0.12360012068E+04  0.00000000000E+00 0. -1.
        -12    1    3    3    0    0 -0.79512898673E+02 -0.48879306857E+03  0.35914766267E+03  0.61174178257E+03  0.00000000000E+00 0.  1.
         15    1    5    5    0    0 -0.12551034222E+03  0.61082298548E+03  0.21200803991E+03  0.65864112558E+03  0.17770000000E+01 0. -1.
        -16    1    5    5    0    0 -0.63722309677E+02  0.37579318747E+03  0.19554865504E+03  0.42839272751E+03  0.00000000000E+00 0.  1.
          4    1    6    6  502    0  0.28286675496E+03  0.49084989746E+03  0.32625595694E+03  0.65375084882E+03  0.00000000000E+00 0. -1.
         -3    1    6    6    0  502  0.35576094392E+02  0.23878116113E+02  0.12429698524E+02  0.44613006250E+02  0.00000000000E+00 0.  1.
<mgrwt>
<rscale>  0 0.15615506E+04</rscale>
<asrwt>0</asrwt>
<pdfrwt beam="1">  1        1 0.41889352E+00 0.15615506E+04</pdfrwt>
<pdfrwt beam="2">  1       -2 0.14005120E+00 0.15615506E+04</pdfrwt>
<totfact> 0.28058873E-01</totfact>
</mgrwt>
</event>
<event>
12    3  0.1182097E-007  0.9402308E+03  0.7818608E-02  0.9376643E-01
         -2   -1    0    0    0  501 -0.00000000000E+00  0.00000000000E+00  0.12343187337E+04  0.12343187337E+04  0.00000000000E+00 0.  1.
          1   -1    0    0  501    0  0.00000000000E+00 -0.00000000000E+00 -0.77808653131E+03  0.77808653131E+03  0.00000000000E+00 0. -1.
        -24    2    1    2    0    0  0.74475377304E+03  0.40512210016E+03  0.47239146817E+03  0.97387431556E+03  0.80593950168E+02 0.  0.
    5000000    2    1    2    0    0 -0.74475377304E+03 -0.40512210016E+03 -0.16159265832E+02  0.10385309494E+04  0.59958595090E+03 0.  0.
        -24    2    4    4    0    0 -0.56969694327E+03  0.15581215115E+02 -0.10186604078E+02  0.57560947509E+03  0.80156842982E+02 0.  0.
         24    2    4    4    0    0 -0.17505682977E+03 -0.42070331527E+03 -0.59726617535E+01  0.46292147431E+03  0.81390697039E+02 0.  0.
         13    1    3    3    0    0  0.19407755062E+03  0.78843522027E+02  0.87779457053E+02  0.22712910360E+03  0.00000000000E+00 0. -1.
        -14    1    3    3    0    0  0.55067622242E+03  0.32627857813E+03  0.38461201112E+03  0.74674521196E+03  0.00000000000E+00 0.  1.
         15    1    5    5    0    0 -0.43833139700E+03  0.44907578870E+02 -0.15547032200E+02  0.44090358603E+03  0.17770000000E+01 0. -1.
        -16    1    5    5    0    0 -0.13136554627E+03 -0.29326363755E+02  0.53604281214E+01  0.13470588906E+03  0.00000000000E+00 0.  1.
          4    1    6    6  502    0 -0.16218672196E+03 -0.39038420222E+03 -0.27409888909E+02  0.42362207229E+03  0.00000000000E+00 0. -1.
         -1    1    6    6    0  502 -0.12870107811E+02 -0.30319113049E+02  0.21437227155E+02  0.39299402022E+02  0.00000000000E+00 0.  1.
<mgrwt>
<rscale>  0 0.94023078E+03</rscale>
<asrwt>0</asrwt>
<pdfrwt beam="1">  1        1 0.11970562E+00 0.94023078E+03</pdfrwt>
<pdfrwt beam="2">  1       -2 0.18989519E+00 0.94023078E+03</pdfrwt>
<totfact> 0.31537539E+00</totfact>
</mgrwt>
</event>
<event>
12    3  0.1182097E-007  0.1584503E+04  0.7818608E-02  0.8830126E-01
         -2   -1    0    0    0  501 -0.00000000000E+00  0.00000000000E+00  0.27043740903E+04  0.27043740903E+04  0.00000000000E+00 0.  1.
          1   -1    0    0  501    0  0.00000000000E+00 -0.00000000000E+00 -0.12602052793E+04  0.12602052793E+04  0.00000000000E+00 0. -1.
        -24    2    1    2    0    0 -0.92751666388E+03 -0.12226593953E+04 -0.29937617495E+03  0.15656052294E+04  0.79438539835E+02 0.  0.
    5000000    2    1    2    0    0  0.92751666388E+03  0.12226593953E+04  0.17435449859E+04  0.23989741402E+04  0.59995387227E+03 0.  0.
        -24    2    4    4    0    0  0.22514912793E+03  0.73963625896E+03  0.67315896473E+03  0.10283054278E+04  0.80716390746E+02 0.  0.
         24    2    4    4    0    0  0.70236753595E+03  0.48302313630E+03  0.10703860212E+04  0.13706687124E+04  0.79843465395E+02 0.  0.
         11    1    3    3    0    0 -0.28161403468E+03 -0.43331111173E+03 -0.10043063746E+03  0.52645160938E+03  0.00000000000E+00 0. -1.
        -12    1    3    3    0    0 -0.64590262921E+03 -0.78934828354E+03 -0.19894553749E+03  0.10391536200E+04  0.00000000000E+00 0.  1.
         15    1    5    5    0    0  0.16856959237E+03  0.42385683528E+03  0.37914538827E+03  0.59314813281E+03  0.17770000000E+01 0. -1.
        -16    1    5    5    0    0  0.56579535560E+02  0.31577942368E+03  0.29401357646E+03  0.43515729502E+03  0.00000000000E+00 0.  1.
          2    1    6    6  502    0  0.38882780190E+03  0.30956885031E+03  0.59209721612E+03  0.77304530653E+03  0.00000000000E+00 0. -1.
         -1    1    6    6    0  502  0.31353973405E+03  0.17345428599E+03  0.47828880507E+03  0.59762340585E+03  0.00000000000E+00 0.  1.
<mgrwt>
<rscale>  0 0.15845027E+04</rscale>
<asrwt>0</asrwt>
<pdfrwt beam="1">  1        1 0.19387774E+00 0.15845027E+04</pdfrwt>
<pdfrwt beam="2">  1       -2 0.41605755E+00 0.15845027E+04</pdfrwt>
<totfact> 0.46207132E-02</totfact>
</mgrwt>
</event>
<event>
12    3  0.1182097E-007  0.9103556E+03  0.7818608E-02  0.9412728E-01
          1   -1    0    0  501    0  0.00000000000E+00  0.00000000000E+00  0.29070568588E+04  0.29070568588E+04  0.00000000000E+00 0. -1.
         -2   -1    0    0    0  501 -0.00000000000E+00 -0.00000000000E+00 -0.29891332876E+03  0.29891332876E+03  0.00000000000E+00 0.  1.
        -24    2    1    2    0    0  0.69309369888E+03 -0.45635420788E+03  0.13055274014E+04  0.15490452080E+04  0.80630157605E+02 0.  0.
    5000000    2    1    2    0    0 -0.69309369888E+03  0.45635420788E+03  0.13026161287E+04  0.16569249795E+04  0.59996130761E+03 0.  0.
        -24    2    4    4    0    0 -0.14032628982E+03  0.40198356534E+03  0.76935125532E+03  0.88270446720E+03  0.77353525721E+02 0.  0.
         24    2    4    4    0    0 -0.55276740906E+03  0.54370642546E+02  0.53326487333E+03  0.77422051232E+03  0.80857907863E+02 0.  0.
         11    1    3    3    0    0  0.26077776679E+03 -0.16570795446E+03  0.55941991168E+03  0.63907339751E+03  0.00000000000E+00 0. -1.
        -12    1    3    3    0    0  0.43231593209E+03 -0.29064625343E+03  0.74610748970E+03  0.90997181053E+03  0.00000000000E+00 0.  1.
         15    1    5    5    0    0 -0.13425169267E+03  0.27962221345E+03  0.55717843384E+03  0.63770139102E+03  0.17770000000E+01 0. -1.
        -16    1    5    5    0    0 -0.60745971532E+01  0.12236135188E+03  0.21217282148E+03  0.24500307618E+03  0.00000000000E+00 0.  1.
          4    1    6    6  502    0 -0.72742179416E+02  0.25980384963E+02  0.10459320433E+03  0.13002362655E+03  0.00000000000E+00 0. -1.
         -3    1    6    6    0  502 -0.48002522965E+03  0.28390257584E+02  0.42867166900E+03  0.64419688577E+03  0.00000000000E+00 0.  1.
<mgrwt>
<rscale>  0 0.91035564E+03</rscale>
<asrwt>0</asrwt>
<pdfrwt beam="1">  1        1 0.44723950E+00 0.91035564E+03</pdfrwt>
<pdfrwt beam="2">  1       -2 0.45986668E-01 0.91035564E+03</pdfrwt>
<totfact> 0.28520061E+00</totfact>
</mgrwt>
</event>
<event>
12    3  0.1182097E-007  0.7818632E+03  0.7818608E-02  0.9586647E-01
         -2   -1    0    0    0  501 -0.00000000000E+00  0.00000000000E+00  0.49633885180E+03  0.49633885180E+03  0.00000000000E+00 0.  1.
          1   -1    0    0  501    0  0.00000000000E+00 -0.00000000000E+00 -0.16940661949E+04  0.16940661949E+04  0.00000000000E+00 0. -1.
        -24    2    1    2    0    0  0.11045854196E+03  0.73452784568E+03 -0.94108543592E+03  0.12016398404E+04  0.81020137729E+02 0.  0.
    5000000    2    1    2    0    0 -0.11045854196E+03 -0.73452784568E+03 -0.25664190715E+03  0.98876520628E+03  0.60004943052E+03 0.  0.
        -24    2    4    4    0    0 -0.87336883219E+02 -0.19467976464E+02 -0.24148543277E+03  0.26865575123E+03  0.76511209333E+02 0.  0.
         24    2    4    4    0    0 -0.23121658743E+02 -0.71505986922E+03 -0.15156474387E+02  0.72010945505E+03  0.80515097130E+02 0.  0.
         13    1    3    3    0    0  0.20799818896E+02  0.29778225872E+03 -0.42932994828E+03  0.52290640708E+03  0.00000000000E+00 0. -1.
        -14    1    3    3    0    0  0.89658723066E+02  0.43674558696E+03 -0.51175548764E+03  0.67873343330E+03  0.00000000000E+00 0.  1.
         15    1    5    5    0    0 -0.22743989812E+02 -0.30565702714E+02 -0.15789035880E+03  0.16243175301E+03  0.17770000000E+01 0. -1.
        -16    1    5    5    0    0 -0.64592893407E+02  0.11097726249E+02 -0.83595073963E+02  0.10622399822E+03  0.00000000000E+00 0.  1.
          4    1    6    6  502    0 -0.25169966211E+02 -0.51493139629E+03 -0.46055846093E+02  0.51759927651E+03  0.00000000000E+00 0. -1.
         -3    1    6    6    0  502  0.20483074680E+01 -0.20012847293E+03  0.30899371707E+02  0.20251017854E+03  0.00000000000E+00 0.  1.
<mgrwt>
<rscale>  0 0.78186323E+03</rscale>
<asrwt>0</asrwt>
<pdfrwt beam="1">  1        1 0.26062557E+00 0.78186323E+03</pdfrwt>
<pdfrwt beam="2">  1       -2 0.76359824E-01 0.78186323E+03</pdfrwt>
<totfact> 0.66840316E+00</totfact>
</mgrwt>
</event>
<event>
12    3  0.1182097E-007  0.1060238E+04  0.7818608E-02  0.9244838E-01
          1   -1    0    0  501    0  0.00000000000E+00  0.00000000000E+00  0.13687757671E+04  0.13687757671E+04  0.00000000000E+00 0. -1.
         -2   -1    0    0    0  501 -0.00000000000E+00 -0.00000000000E+00 -0.10623070247E+04  0.10623070247E+04  0.00000000000E+00 0.  1.
        -24    2    1    2    0    0  0.11583843804E+03  0.98921243493E+03  0.68138842666E+03  0.12093947791E+04  0.79910941203E+02 0.  0.
    5000000    2    1    2    0    0 -0.11583843804E+03 -0.98921243493E+03 -0.37491968418E+03  0.12216880127E+04  0.59999753806E+03 0.  0.
        -24    2    4    4    0    0  0.16029043860E+03 -0.69895686552E+03 -0.37558230183E+03  0.81352326124E+03  0.80773179749E+02 0.  0.
         24    2    4    4    0    0 -0.27612887664E+03 -0.29025556942E+03  0.66261764824E+00  0.40816475148E+03  0.78118968244E+02 0.  0.
         13    1    3    3    0    0  0.15299980301E+02  0.19746743449E+03  0.17421430766E+03  0.26377661397E+03  0.00000000000E+00 0. -1.
        -14    1    3    3    0    0  0.10053845774E+03  0.79174500044E+03  0.50717411900E+03  0.94561816511E+03  0.00000000000E+00 0.  1.
         15    1    5    5    0    0  0.55634185596E+02 -0.41194371798E+03 -0.20225959925E+03  0.46228226508E+03  0.17770000000E+01 0. -1.
        -16    1    5    5    0    0  0.10465625300E+03 -0.28701314753E+03 -0.17332270258E+03  0.35124099615E+03  0.00000000000E+00 0.  1.
          2    1    6    6  502    0 -0.80812897061E+02 -0.11601442694E+03 -0.30306999661E+02  0.14459801457E+03  0.00000000000E+00 0. -1.
         -1    1    6    6    0  502 -0.19531597958E+03 -0.17424114248E+03  0.30969617309E+02  0.26356673691E+03  0.00000000000E+00 0.  1.
<mgrwt>
<rscale>  0 0.10602377E+04</rscale>
<asrwt>0</asrwt>
<pdfrwt beam="1">  1        1 0.21058089E+00 0.10602377E+04</pdfrwt>
<pdfrwt beam="2">  1       -2 0.16343185E+00 0.10602377E+04</pdfrwt>
<totfact> 0.16679398E+00</totfact>
</mgrwt>
</event>
<event>
12    3  0.1182097E-007  0.9782881E+03  0.7818608E-02  0.9332684E-01
          3   -1    0    0  501    0  0.00000000000E+00  0.00000000000E+00  0.61913809878E+03  0.61913809878E+03  0.00000000000E+00 0. -1.
         -4   -1    0    0    0  501 -0.00000000000E+00 -0.00000000000E+00 -0.24304997389E+04  0.24304997389E+04  0.00000000000E+00 0.  1.
        -24    2    1    2    0    0  0.74228029153E+03 -0.57455938067E+03 -0.16826077524E+04  0.19282500990E+04  0.76688218146E+02 0.  0.
    5000000    2    1    2    0    0 -0.74228029153E+03  0.57455938067E+03 -0.12875388768E+03  0.11213877386E+04  0.59986197051E+03 0.  0.
        -24    2    4    4    0    0 -0.73155667059E+03  0.58399464786E+03  0.34358997134E+02  0.93989419799E+03  0.77431593691E+02 0.  0.
         24    2    4    4    0    0 -0.10723620931E+02 -0.94352671905E+01 -0.16311288482E+03  0.18149354065E+03  0.78294775003E+02 0.  0.
         13    1    3    3    0    0  0.31564663158E+03 -0.28592078456E+03 -0.72203022151E+03  0.83827867195E+03  0.00000000000E+00 0. -1.
        -14    1    3    3    0    0  0.42663365995E+03 -0.28863859611E+03 -0.96057753090E+03  0.10899714271E+04  0.00000000000E+00 0.  1.
         15    1    5    5    0    0 -0.45573423650E+03  0.34090540378E+03  0.54167141684E+02  0.57170571592E+03  0.17770000000E+01 0. -1.
        -16    1    5    5    0    0 -0.27582243409E+03  0.24308924408E+03 -0.19808144550E+02  0.36818848207E+03  0.00000000000E+00 0.  1.
          2    1    6    6  502    0 -0.28725343659E+02 -0.36402738476E+02 -0.10827789495E+03  0.11778967387E+03  0.00000000000E+00 0. -1.
         -3    1    6    6    0  502  0.18001722728E+02  0.26967471286E+02 -0.54834989866E+02  0.63703866777E+02  0.00000000000E+00 0.  1.
<mgrwt>
<rscale>  0 0.97828813E+03</rscale>
<asrwt>0</asrwt>
<pdfrwt beam="1">  1        3 0.95252016E-01 0.97828813E+03</pdfrwt>
<pdfrwt beam="2">  1       -4 0.37392304E+00 0.97828813E+03</pdfrwt>
<totfact> 0.22929447E-02</totfact>
</mgrwt>
</event>
<event>
12    3  0.1182097E-007  0.3947029E+03  0.7818608E-02  0.1045629E+00
          1   -1    0    0  501    0  0.00000000000E+00  0.00000000000E+00  0.55601258741E+03  0.55601258741E+03  0.00000000000E+00 0. -1.
         -2   -1    0    0    0  501 -0.00000000000E+00 -0.00000000000E+00 -0.38387403155E+03  0.38387403155E+03  0.00000000000E+00 0.  1.
        -24    2    1    2    0    0  0.18294695419E+03 -0.34584829305E+02 -0.13295247830E+03  0.24158553042E+03  0.77598379859E+02 0.  0.
    5000000    2    1    2    0    0 -0.18294695419E+03  0.34584829305E+02  0.30509103416E+03  0.69830108853E+03  0.59989846862E+03 0.  0.
        -24    2    4    4    0    0 -0.40427538825E+02  0.29113858359E+03  0.66679991763E+02  0.31177287268E+03  0.79749872017E+02 0.  0.
         24    2    4    4    0    0 -0.14251941536E+03 -0.25655375428E+03  0.23841104240E+03  0.38652821585E+03  0.80203640332E+02 0.  0.
         11    1    3    3    0    0  0.83790444677E+02 -0.56481231732E+01 -0.10523826300E+03  0.13463963723E+03  0.00000000000E+00 0. -1.
        -12    1    3    3    0    0  0.99156509510E+02 -0.28936706132E+02 -0.27714215302E+02  0.10694589319E+03  0.00000000000E+00 0.  1.
         15    1    5    5    0    0  0.15268146482E+02  0.15187440132E+03  0.16152968417E+02  0.15350252829E+03  0.17770000000E+01 0. -1.
        -16    1    5    5    0    0 -0.55695685307E+02  0.13926418227E+03  0.50527023346E+02  0.15827034439E+03  0.00000000000E+00 0.  1.
          4    1    6    6  502    0 -0.63200825358E+01 -0.60179776939E+02  0.77918797861E+02  0.98655400540E+02  0.00000000000E+00 0. -1.
         -1    1    6    6    0  502 -0.13619933283E+03 -0.19637397735E+03  0.16049224454E+03  0.28787281531E+03  0.00000000000E+00 0.  1.
<mgrwt>
<rscale>  0 0.39470290E+03</rscale>
<asrwt>0</asrwt>
<pdfrwt beam="1">  1        1 0.85540398E-01 0.39470290E+03</pdfrwt>
<pdfrwt beam="2">  1       -2 0.59057544E-01 0.39470290E+03</pdfrwt>
<totfact> 0.93558974E+01</totfact>
</mgrwt>
</event>
<event>
12    3  0.1183105E-007  0.1106447E+04  0.7818608E-02  0.9198931E-01
          1   -1    0    0  501    0  0.00000000000E+00  0.00000000000E+00  0.12975192213E+04  0.12975192213E+04  0.00000000000E+00 0. -1.
         -2   -1    0    0    0  501 -0.00000000000E+00 -0.00000000000E+00 -0.98004053885E+03  0.98004053885E+03  0.00000000000E+00 0.  1.
        -24    2    1    2    0    0  0.98915845660E+03  0.29977716330E+03  0.31104774194E+03  0.10823600266E+04  0.80322659082E+02 0.  0.
    5000000    2    1    2    0    0 -0.98915845660E+03 -0.29977716330E+03  0.64309404673E+01  0.11951997335E+04  0.60013352354E+03 0.  0.
        -24    2    4    4    0    0 -0.70322777491E+03  0.66852742863E+02  0.85096254158E+02  0.71672835150E+03  0.86368771726E+02 0.  0.
         24    2    4    4    0    0 -0.28593068168E+03 -0.36662990616E+03 -0.78665313691E+02  0.47847138201E+03  0.81072738961E+02 0.  0.
         13    1    3    3    0    0  0.51685944568E+03  0.12648419280E+03  0.18900651105E+03  0.56468167921E+03  0.00000000000E+00 0. -1.
        -14    1    3    3    0    0  0.47229901091E+03  0.17329297050E+03  0.12204123089E+03  0.51767834740E+03  0.00000000000E+00 0.  1.
         15    1    5    5    0    0 -0.41469107962E+03  0.49153874343E+02  0.91811298075E+02  0.42757135903E+03  0.17770000000E+01 0. -1.
        -16    1    5    5    0    0 -0.28853669530E+03  0.17698868520E+02 -0.67150439168E+01  0.28915699247E+03  0.00000000000E+00 0.  1.
          2    1    6    6  502    0 -0.61585774608E+02 -0.13589018206E+03 -0.10922065986E+02  0.14959358522E+03  0.00000000000E+00 0. -1.
         -1    1    6    6    0  502 -0.22434490708E+03 -0.23073972410E+03 -0.67743247705E+02  0.32887779679E+03  0.00000000000E+00 0.  1.
<mgrwt>
<rscale>  0 0.11064472E+04</rscale>
<asrwt>0</asrwt>
<pdfrwt beam="1">  1        1 0.19961834E+00 0.11064472E+04</pdfrwt>
<pdfrwt beam="2">  1       -2 0.15077547E+00 0.11064472E+04</pdfrwt>
<totfact> 0.23193474E+00</totfact>
</mgrwt>
</event>
<event>
12    3  0.1182097E-007  0.7375143E+03  0.7818608E-02  0.9655145E-01
         -2   -1    0    0    0  501 -0.00000000000E+00  0.00000000000E+00  0.74555539858E+03  0.74555539858E+03  0.00000000000E+00 0.  1.
          1   -1    0    0  501    0  0.00000000000E+00 -0.00000000000E+00 -0.11083333785E+04  0.11083333785E+04  0.00000000000E+00 0. -1.
        -24    2    1    2    0    0 -0.44724968203E+03 -0.50160726475E+03 -0.61925118516E+03  0.91724036219E+03  0.78839873105E+02 0.  0.
    5000000    2    1    2    0    0  0.44724968203E+03  0.50160726475E+03  0.25647320524E+03  0.93664841488E+03  0.59990801125E+03 0.  0.
        -24    2    4    4    0    0  0.50877966168E+03  0.33746195748E+03  0.36558188726E+03  0.71599645804E+03  0.79142243764E+02 0.  0.
         24    2    4    4    0    0 -0.61529979654E+02  0.16414530728E+03 -0.10910868202E+03  0.22065195684E+03  0.77800779340E+02 0.  0.
         13    1    3    3    0    0 -0.15665615508E+03 -0.20629262679E+03 -0.28299311417E+03  0.38364423814E+03  0.00000000000E+00 0. -1.
        -14    1    3    3    0    0 -0.29059352694E+03 -0.29531463796E+03 -0.33625807099E+03  0.53359612405E+03  0.00000000000E+00 0.  1.
         15    1    5    5    0    0  0.43122101899E+03  0.29563061505E+03  0.27968825140E+03  0.59293988184E+03  0.17770000000E+01 0. -1.
        -16    1    5    5    0    0  0.77558642695E+02  0.41831342424E+02  0.85893635858E+02  0.12305657620E+03  0.00000000000E+00 0.  1.
          4    1    6    6  502    0 -0.60429194087E+02  0.17225528909E+03 -0.10869433867E+03  0.21245712832E+03  0.00000000000E+00 0. -1.
         -3    1    6    6    0  502 -0.11007855670E+01 -0.81099818161E+01 -0.41434335896E+00  0.81948285120E+01  0.00000000000E+00 0.  1.
<mgrwt>
<rscale>  0 0.73751432E+03</rscale>
<asrwt>0</asrwt>
<pdfrwt beam="1">  1        1 0.17051283E+00 0.73751432E+03</pdfrwt>
<pdfrwt beam="2">  1       -2 0.11470083E+00 0.73751432E+03</pdfrwt>
<totfact> 0.66836093E+00</totfact>
</mgrwt>
</event>
<event>
12    3  0.1182097E-007  0.5293158E+03  0.7818608E-02  0.1006398E+00
          1   -1    0    0  501    0  0.00000000000E+00  0.00000000000E+00  0.22130117807E+04  0.22130117807E+04  0.00000000000E+00 0. -1.
         -2   -1    0    0    0  501 -0.00000000000E+00 -0.00000000000E+00 -0.24920643228E+03  0.24920643228E+03  0.00000000000E+00 0.  1.
        -24    2    1    2    0    0 -0.21903144410E+03 -0.38024493052E+03  0.10219879114E+03  0.45758056151E+03  0.79839818813E+02 0.  0.
    5000000    2    1    2    0    0  0.21903144410E+03  0.38024493052E+03  0.18616065573E+04  0.20046376515E+04  0.60036002441E+03 0.  0.
        -24    2    4    4    0    0  0.24572453439E+03  0.46199442212E+03  0.17948298290E+04  0.18712190792E+04  0.78913459815E+02 0.  0.
         24    2    4    4    0    0 -0.26693090289E+02 -0.81749491598E+02  0.66776728253E+02  0.13341857232E+03  0.77109555562E+02 0.  0.
         11    1    3    3    0    0 -0.12326867827E+03 -0.17755708004E+03  0.13743669677E+02  0.21658848577E+03  0.00000000000E+00 0. -1.
        -12    1    3    3    0    0 -0.95762765832E+02 -0.20268785048E+03  0.88455121468E+02  0.24099207574E+03  0.00000000000E+00 0.  1.
         15    1    5    5    0    0  0.22195469620E+03  0.45005304010E+03  0.17244668555E+04  0.17959957460E+04  0.17770000000E+01 0. -1.
        -16    1    5    5    0    0  0.23769838190E+02  0.11941382016E+02  0.70362973493E+02  0.75223333154E+02  0.00000000000E+00 0.  1.
          4    1    6    6  502    0 -0.25026249617E+02 -0.34522369968E+02  0.74203582907E+02  0.85582001112E+02  0.00000000000E+00 0. -1.
         -3    1    6    6    0  502 -0.16668406716E+01 -0.47227121629E+02 -0.74268546534E+01  0.47836571211E+02  0.00000000000E+00 0.  1.
<mgrwt>
<rscale>  0 0.52931580E+03</rscale>
<asrwt>0</asrwt>
<pdfrwt beam="1">  1        1 0.34046334E+00 0.52931580E+03</pdfrwt>
<pdfrwt beam="2">  1       -2 0.38339453E-01 0.52931580E+03</pdfrwt>
<totfact> 0.13069746E+01</totfact>
</mgrwt>
</event>
<event>
12    3  0.1182097E-007  0.1147499E+04  0.7818608E-02  0.9160094E-01
          1   -1    0    0  501    0  0.00000000000E+00  0.00000000000E+00  0.97448209769E+03  0.97448209769E+03  0.00000000000E+00 0. -1.
         -2   -1    0    0    0  501 -0.00000000000E+00 -0.00000000000E+00 -0.14029979495E+04  0.14029979495E+04  0.00000000000E+00 0.  1.
        -24    2    1    2    0    0 -0.42721421117E+02 -0.10865405183E+04 -0.28598886867E+03  0.11273963931E+04  0.82689639821E+02 0.  0.
    5000000    2    1    2    0    0  0.42721421117E+02  0.10865405183E+04 -0.14252698315E+03  0.12500836541E+04  0.59999981959E+03 0.  0.
        -24    2    4    4    0    0  0.26954395797E+03  0.49325734534E+03  0.78937751892E+02  0.57283973963E+03  0.77184484299E+02 0.  0.
         24    2    4    4    0    0 -0.22682253685E+03  0.59328317295E+03 -0.22146473504E+03  0.67724391443E+03  0.78608550641E+02 0.  0.
         11    1    3    3    0    0 -0.62588149371E+02 -0.57593283724E+03 -0.16277805348E+03  0.60175792819E+03  0.00000000000E+00 0. -1.
        -12    1    3    3    0    0  0.19866728254E+02 -0.51060768106E+03 -0.12321081519E+03  0.52563846494E+03  0.00000000000E+00 0.  1.
         15    1    5    5    0    0  0.23666869084E+03  0.37064867736E+03  0.49617799769E+02  0.44255801319E+03  0.17770000000E+01 0. -1.
        -16    1    5    5    0    0  0.32875267129E+02  0.12260866798E+03  0.29319952123E+02  0.13028172645E+03  0.00000000000E+00 0.  1.
          4    1    6    6  502    0 -0.54840716215E+02  0.82948568430E+02 -0.54644915027E+02  0.11346380876E+03  0.00000000000E+00 0. -1.
         -3    1    6    6    0  502 -0.17198182064E+03  0.51033460452E+03 -0.16681982002E+03  0.56378010567E+03  0.00000000000E+00 0.  1.
<mgrwt>
<rscale>  0 0.11474988E+04</rscale>
<asrwt>0</asrwt>
<pdfrwt beam="1">  1        1 0.14992032E+00 0.11474988E+04</pdfrwt>
<pdfrwt beam="2">  1       -2 0.21584584E+00 0.11474988E+04</pdfrwt>
<totfact> 0.14318603E+00</totfact>
</mgrwt>
</event>
<event>
12    3  0.1182097E-007  0.7687609E+03  0.7818608E-02  0.9606369E-01
          3   -1    0    0  501    0  0.00000000000E+00  0.00000000000E+00  0.93445216330E+03  0.93445216330E+03  0.00000000000E+00 0. -1.
         -4   -1    0    0    0  501 -0.00000000000E+00 -0.00000000000E+00 -0.96315208431E+03  0.96315208431E+03  0.00000000000E+00 0.  1.
        -24    2    1    2    0    0  0.40248329756E+03 -0.60268498138E+03  0.43471398281E+03  0.84883900018E+03  0.79557587811E+02 0.  0.
    5000000    2    1    2    0    0 -0.40248329756E+03  0.60268498138E+03 -0.46341390381E+03  0.10487652474E+04  0.59994508613E+03 0.  0.
        -24    2    4    4    0    0 -0.11537329788E+03  0.46250526868E+03 -0.38063218922E+01  0.48324994196E+03  0.79334084062E+02 0.  0.
         24    2    4    4    0    0 -0.28710999968E+03  0.14017971270E+03 -0.45960758192E+03  0.56551530547E+03  0.80535256861E+02 0.  0.
         11    1    3    3    0    0  0.26697781593E+03 -0.32958637850E+03  0.24771402691E+03  0.49118893943E+03  0.00000000000E+00 0. -1.
        -12    1    3    3    0    0  0.13550548164E+03 -0.27309860288E+03  0.18699995589E+03  0.35765006075E+03  0.00000000000E+00 0.  1.
         15    1    5    5    0    0 -0.17779287178E+02  0.14659336285E+02  0.87732314868E+01  0.24720973132E+02  0.17770000000E+01 0. -1.
        -16    1    5    5    0    0 -0.97594010700E+02  0.44784593240E+03 -0.12579553379E+02  0.45852896883E+03  0.00000000000E+00 0.  1.
          2    1    6    6  502    0 -0.62920857736E+02  0.55983880587E+00 -0.11786662641E+03  0.13361096279E+03  0.00000000000E+00 0. -1.
         -1    1    6    6    0  502 -0.22418914195E+03  0.13961987389E+03 -0.34174095551E+03  0.43190434268E+03  0.00000000000E+00 0.  1.
<mgrwt>
<rscale>  0 0.76876087E+03</rscale>
<asrwt>0</asrwt>
<pdfrwt beam="1">  1        3 0.14376187E+00 0.76876087E+03</pdfrwt>
<pdfrwt beam="2">  1       -4 0.14817724E+00 0.76876087E+03</pdfrwt>
<totfact> 0.24912121E-01</totfact>
</mgrwt>
</event>
<event>
12    3  0.1182097E-007  0.8495339E+03  0.7818608E-02  0.9490963E-01
          1   -1    0    0  501    0  0.00000000000E+00  0.00000000000E+00  0.18027264116E+04  0.18027264116E+04  0.00000000000E+00 0. -1.
         -2   -1    0    0    0  501 -0.00000000000E+00 -0.00000000000E+00 -0.47346290266E+03  0.47346290266E+03  0.00000000000E+00 0.  1.
        -24    2    1    2    0    0  0.66275003754E+03  0.48979670518E+03  0.62047236351E+03  0.10346276991E+04  0.79561907501E+02 0.  0.
    5000000    2    1    2    0    0 -0.66275003754E+03 -0.48979670518E+03  0.70879114541E+03  0.12415616152E+04  0.59995994184E+03 0.  0.
        -24    2    4    4    0    0 -0.22474199889E+03 -0.33429585405E+03  0.26239707813E+02  0.41187000977E+03  0.81766121244E+02 0.  0.
         24    2    4    4    0    0 -0.43800803865E+03 -0.15550085113E+03  0.68255143760E+03  0.82969160541E+03  0.80499307412E+02 0.  0.
         13    1    3    3    0    0  0.42456527629E+03  0.32367200296E+03  0.44752578762E+03  0.69663374159E+03  0.00000000000E+00 0. -1.
        -14    1    3    3    0    0  0.23818476125E+03  0.16612470222E+03  0.17294657589E+03  0.33799395748E+03  0.00000000000E+00 0.  1.
         15    1    5    5    0    0 -0.17125389649E+03 -0.28384193992E+03  0.48519033374E+02  0.33503939806E+03  0.17770000000E+01 0. -1.
        -16    1    5    5    0    0 -0.53488102396E+02 -0.50453914130E+02 -0.22279325561E+02  0.76830611714E+02  0.00000000000E+00 0.  1.
          2    1    6    6  502    0 -0.16652001811E+03 -0.94649211911E+02  0.24180057436E+03  0.30847189095E+03  0.00000000000E+00 0. -1.
         -1    1    6    6    0  502 -0.27148802054E+03 -0.60851639214E+02  0.44075086324E+03  0.52121971446E+03  0.00000000000E+00 0.  1.
<mgrwt>
<rscale>  0 0.84953393E+03</rscale>
<asrwt>0</asrwt>
<pdfrwt beam="1">  1        1 0.27734252E+00 0.84953393E+03</pdfrwt>
<pdfrwt beam="2">  1       -2 0.72840448E-01 0.84953393E+03</pdfrwt>
<totfact> 0.62129091E+00</totfact>
</mgrwt>
</event>
<event>
12    3  0.1182097E-007  0.9013737E+03  0.7818608E-02  0.9423866E-01
         -2   -1    0    0    0  501 -0.00000000000E+00  0.00000000000E+00  0.42973671325E+03  0.42973671325E+03  0.00000000000E+00 0.  1.
          1   -1    0    0  501    0  0.00000000000E+00 -0.00000000000E+00 -0.21012806651E+04  0.21012806651E+04  0.00000000000E+00 0. -1.
        -24    2    1    2    0    0 -0.55966696481E+03 -0.60588452211E+03 -0.10455147036E+04  0.13342451697E+04  0.82377252405E+02 0.  0.
    5000000    2    1    2    0    0  0.55966696481E+03  0.60588452211E+03 -0.62602924824E+03  0.11967722087E+04  0.60002327801E+03 0.  0.
        -24    2    4    4    0    0  0.64885940807E+03  0.59713603534E+03 -0.47516162717E+03  0.10048789730E+04  0.80082471705E+02 0.  0.
         24    2    4    4    0    0 -0.89192443260E+02  0.87484867662E+01 -0.15086762106E+03  0.19189323568E+03  0.77654020232E+02 0.  0.
         11    1    3    3    0    0 -0.30891738805E+03 -0.27771666868E+03 -0.50062712436E+03  0.65052595517E+03  0.00000000000E+00 0. -1.
        -12    1    3    3    0    0 -0.25074957676E+03 -0.32816785343E+03 -0.54488757926E+03  0.68371921452E+03  0.00000000000E+00 0.  1.
         15    1    5    5    0    0  0.33619633248E+03  0.26103749264E+03 -0.20791206773E+03  0.47370785530E+03  0.17770000000E+01 0. -1.
        -16    1    5    5    0    0  0.31266307559E+03  0.33609854270E+03 -0.26724955944E+03  0.53117111769E+03  0.00000000000E+00 0.  1.
          4    1    6    6  502    0 -0.27557891785E+02  0.39712338163E+01  0.10674744444E+01  0.27863014901E+02  0.00000000000E+00 0. -1.
         -3    1    6    6    0  502 -0.61634551474E+02  0.47772529499E+01 -0.15193509551E+03  0.16403022078E+03  0.00000000000E+00 0.  1.
<mgrwt>
<rscale>  0 0.90137371E+03</rscale>
<asrwt>0</asrwt>
<pdfrwt beam="1">  1        1 0.32327395E+00 0.90137371E+03</pdfrwt>
<pdfrwt beam="2">  1       -2 0.66113340E-01 0.90137371E+03</pdfrwt>
<totfact> 0.48054311E+00</totfact>
</mgrwt>
</event>
<event>
12    3  0.1182097E-007  0.1376553E+04  0.7818608E-02  0.8970968E-01
         -2   -1    0    0    0  501 -0.00000000000E+00  0.00000000000E+00  0.18162860567E+04  0.18162860567E+04  0.00000000000E+00 0.  1.
          1   -1    0    0  501    0  0.00000000000E+00 -0.00000000000E+00 -0.13446830628E+04  0.13446830628E+04  0.00000000000E+00 0. -1.
        -24    2    1    2    0    0 -0.16488529109E+03  0.13557730954E+04  0.86443577208E+03  0.16183083642E+04  0.79780400318E+02 0.  0.
    5000000    2    1    2    0    0  0.16488529109E+03 -0.13557730954E+04 -0.39283277816E+03  0.15426607554E+04  0.60014728954E+03 0.  0.
        -24    2    4    4    0    0  0.17599955867E+03 -0.11739515354E+04 -0.10713173853E+03  0.11942392479E+04  0.74780477082E+02 0.  0.
         24    2    4    4    0    0 -0.11114267573E+02 -0.18182156001E+03 -0.28570103963E+03  0.34842150746E+03  0.81177929208E+02 0.  0.
         13    1    3    3    0    0 -0.11480416521E+03  0.10877683604E+04  0.65968382188E+03  0.12773420635E+04  0.00000000000E+00 0. -1.
        -14    1    3    3    0    0 -0.50081125887E+02  0.26800473497E+03  0.20475195020E+03  0.34096630075E+03  0.00000000000E+00 0.  1.
         15    1    5    5    0    0  0.63688574481E+02 -0.28865297112E+03 -0.52034647443E+02  0.30014585541E+03  0.17770000000E+01 0. -1.
        -16    1    5    5    0    0  0.11231098418E+03 -0.88529856425E+03 -0.55097091086E+02  0.89409339248E+03  0.00000000000E+00 0.  1.
          2    1    6    6  502    0 -0.37498648227E+02 -0.41733753551E+02 -0.67354361350E+02  0.87661079147E+02  0.00000000000E+00 0. -1.
         -1    1    6    6    0  502  0.26384380654E+02 -0.14008780646E+03 -0.21834667828E+03  0.26076042832E+03  0.00000000000E+00 0.  1.
<mgrwt>
<rscale>  0 0.13765527E+04</rscale>
<asrwt>0</asrwt>
<pdfrwt beam="1">  1        1 0.20687432E+00 0.13765527E+04</pdfrwt>
<pdfrwt beam="2">  1       -2 0.27942862E+00 0.13765527E+04</pdfrwt>
<totfact> 0.29938460E-01</totfact>
</mgrwt>
</event>
<event>
12    3  0.1182097E-007  0.6885089E+03  0.7818608E-02  0.9737088E-01
         -2   -1    0    0    0  501 -0.00000000000E+00  0.00000000000E+00  0.88901514094E+03  0.88901514094E+03  0.00000000000E+00 0.  1.
          1   -1    0    0  501    0  0.00000000000E+00 -0.00000000000E+00 -0.13280480437E+04  0.13280480437E+04  0.00000000000E+00 0. -1.
        -24    2    1    2    0    0 -0.30675760637E+03 -0.54152793111E+03 -0.10042358959E+04  0.11841397048E+04  0.79651595491E+02 0.  0.
    5000000    2    1    2    0    0  0.30675760637E+03  0.54152793111E+03  0.56520299319E+03  0.10329234798E+04  0.60010312640E+03 0.  0.
        -24    2    4    4    0    0  0.36765611784E+03  0.23416381183E+03  0.80400479775E+02  0.45030516725E+03  0.79415330710E+02 0.  0.
         24    2    4    4    0    0 -0.60898511464E+02  0.30736411928E+03  0.48480251341E+03  0.58261831252E+03  0.78925854794E+02 0.  0.
         13    1    3    3    0    0 -0.10794414231E+03 -0.16141015222E+03 -0.25131888430E+03  0.31759464212E+03  0.00000000000E+00 0. -1.
        -14    1    3    3    0    0 -0.19881346407E+03 -0.38011777890E+03 -0.75291701163E+03  0.86654506272E+03  0.00000000000E+00 0.  1.
         15    1    5    5    0    0  0.18139494541E+03  0.78119255116E+02  0.60195892178E+02  0.20647868511E+03  0.17770000000E+01 0. -1.
        -16    1    5    5    0    0  0.18626117243E+03  0.15604455672E+03  0.20204587597E+02  0.24382648214E+03  0.00000000000E+00 0.  1.
          4    1    6    6  502    0 -0.41132747984E+02  0.21811523863E+03  0.40236165518E+03  0.45952264562E+03  0.00000000000E+00 0. -1.
         -3    1    6    6    0  502 -0.19765763480E+02  0.89248880652E+02  0.82440858228E+02  0.12309566690E+03  0.00000000000E+00 0.  1.
<mgrwt>
<rscale>  0 0.68850892E+03</rscale>
<asrwt>0</asrwt>
<pdfrwt beam="1">  1        1 0.20431508E+00 0.68850892E+03</pdfrwt>
<pdfrwt beam="2">  1       -2 0.13677156E+00 0.68850892E+03</pdfrwt>
<totfact> 0.30102169E+00</totfact>
</mgrwt>
</event>
<event>
12    3  0.1182097E-007  0.8392034E+03  0.7818608E-02  0.9504943E-01
         -2   -1    0    0    0  501 -0.00000000000E+00  0.00000000000E+00  0.63093980073E+03  0.63093980073E+03  0.00000000000E+00 0.  1.
          1   -1    0    0  501    0  0.00000000000E+00 -0.00000000000E+00 -0.13729552274E+04  0.13729552274E+04  0.00000000000E+00 0. -1.
        -24    2    1    2    0    0  0.77738133087E+03 -0.18365376976E+03 -0.82778131892E+02  0.80690985588E+03  0.78745512027E+02 0.  0.
    5000000    2    1    2    0    0 -0.77738133087E+03  0.18365376976E+03 -0.65923729474E+03  0.11969851722E+04  0.60010769948E+03 0.  0.
        -24    2    4    4    0    0 -0.49467570904E+03  0.27190047527E+03 -0.68155448435E+03  0.88855797493E+03  0.79905156916E+02 0.  0.
         24    2    4    4    0    0 -0.28270562183E+03 -0.88246705507E+02  0.22317189611E+02  0.30842719728E+03  0.83182506716E+02 0.  0.
         13    1    3    3    0    0  0.16718169965E+03 -0.65180952455E+02  0.27449709946E+01  0.17945977857E+03  0.00000000000E+00 0. -1.
        -14    1    3    3    0    0  0.61019963122E+03 -0.11847281731E+03 -0.85523102886E+02  0.62745007731E+03  0.00000000000E+00 0.  1.
         15    1    5    5    0    0 -0.28205086017E+03  0.10968241631E+03 -0.35707810101E+03  0.46807141348E+03  0.17770000000E+01 0. -1.
        -16    1    5    5    0    0 -0.21262484888E+03  0.16221805896E+03 -0.32447638335E+03  0.42048656145E+03  0.00000000000E+00 0.  1.
          4    1    6    6  502    0 -0.18378861103E+03 -0.97328722103E+02  0.85512418908E+01  0.20814479919E+03  0.00000000000E+00 0. -1.
         -3    1    6    6    0  502 -0.98917010797E+02  0.90820165958E+01  0.13765947720E+02  0.10028239809E+03  0.00000000000E+00 0.  1.
<mgrwt>
<rscale>  0 0.83920342E+03</rscale>
<asrwt>0</asrwt>
<pdfrwt beam="1">  1        1 0.21122388E+00 0.83920342E+03</pdfrwt>
<pdfrwt beam="2">  1       -2 0.97067664E-01 0.83920342E+03</pdfrwt>
<totfact> 0.63557439E+00</totfact>
</mgrwt>
</event>
<event>
12    3  0.1182097E-007  0.1516250E+04  0.7818608E-02  0.8873718E-01
         -2   -1    0    0    0  501 -0.00000000000E+00  0.00000000000E+00  0.91698736825E+03  0.91698736825E+03  0.00000000000E+00 0.  1.
          1   -1    0    0  501    0  0.00000000000E+00 -0.00000000000E+00 -0.27729109375E+04  0.27729109375E+04  0.00000000000E+00 0. -1.
        -24    2    1    2    0    0  0.11271107096E+04  0.92976518003E+03 -0.34266106105E+03  0.15026667568E+04  0.75821747958E+02 0.  0.
    5000000    2    1    2    0    0 -0.11271107096E+04 -0.92976518003E+03 -0.15132625082E+04  0.21872315490E+04  0.59931343085E+03 0.  0.
        -24    2    4    4    0    0 -0.72289449669E+03 -0.23303171248E+03 -0.82948239132E+03  0.11274598698E+04  0.79022074208E+02 0.  0.
         24    2    4    4    0    0 -0.40421621292E+03 -0.69673346755E+03 -0.68378011688E+03  0.10597716791E+04  0.82051764638E+02 0.  0.
         11    1    3    3    0    0  0.53158256265E+03  0.46523038230E+03 -0.13296185845E+03  0.71881721274E+03  0.00000000000E+00 0. -1.
        -12    1    3    3    0    0  0.59552814696E+03  0.46453479773E+03 -0.20969920260E+03  0.78384954404E+03  0.00000000000E+00 0.  1.
         15    1    5    5    0    0 -0.67917724254E+03 -0.23218042732E+03 -0.76002672279E+03  0.10453866532E+04  0.17770000000E+01 0. -1.
        -16    1    5    5    0    0 -0.43717254148E+02 -0.85128515826E+00 -0.69455668536E+02  0.82073216633E+02  0.00000000000E+00 0.  1.
          4    1    6    6  502    0 -0.36935618272E+03 -0.58119586728E+03 -0.59277419588E+03  0.90862196383E+03  0.00000000000E+00 0. -1.
         -3    1    6    6    0  502 -0.34860030206E+02 -0.11553760027E+03 -0.91005921002E+02  0.15114971531E+03  0.00000000000E+00 0.  1.
<mgrwt>
<rscale>  0 0.15162499E+04</rscale>
<asrwt>0</asrwt>
<pdfrwt beam="1">  1        1 0.42660168E+00 0.15162499E+04</pdfrwt>
<pdfrwt beam="2">  1       -2 0.14107498E+00 0.15162499E+04</pdfrwt>
<totfact> 0.25490022E-01</totfact>
</mgrwt>
</event>
<event>
12    3  0.1182097E-007  0.3547007E+03  0.7818608E-02  0.1060702E+00
         -2   -1    0    0    0  501 -0.00000000000E+00  0.00000000000E+00  0.38144243488E+03  0.38144243488E+03  0.00000000000E+00 0.  1.
          3   -1    0    0  501    0  0.00000000000E+00 -0.00000000000E+00 -0.49963108958E+03  0.49963108958E+03  0.00000000000E+00 0. -1.
        -24    2    1    2    0    0 -0.20423167372E+03  0.41753500746E+02 -0.10394929991E+03  0.24573551289E+03  0.78272306514E+02 0.  0.
    5000000    2    1    2    0    0  0.20423167372E+03 -0.41753500746E+02 -0.14239354793E+02  0.63533801158E+03  0.59999808196E+03 0.  0.
        -24    2    4    4    0    0  0.32524162055E+03 -0.92601923042E+02 -0.19467295208E+03  0.39828693051E+03  0.79860458651E+02 0.  0.
         24    2    4    4    0    0 -0.12100994682E+03  0.50848422295E+02  0.18043359729E+03  0.23705108107E+03  0.80049751570E+02 0.  0.
         13    1    3    3    0    0 -0.13406435692E+03  0.78788544109E+01 -0.10051136006E+03  0.16774343994E+03  0.00000000000E+00 0. -1.
        -14    1    3    3    0    0 -0.70167316807E+02  0.33874646336E+02 -0.34379398482E+01  0.77992072947E+02  0.00000000000E+00 0.  1.
         15    1    5    5    0    0  0.17734915721E+03 -0.11460649371E+02 -0.11534042991E+03  0.21187411958E+03  0.17770000000E+01 0. -1.
        -16    1    5    5    0    0  0.14789246333E+03 -0.81141273670E+02 -0.79332522173E+02  0.18641281093E+03  0.00000000000E+00 0.  1.
          2    1    6    6  502    0 -0.89240444131E+02 -0.18257010464E+01  0.83376521529E+02  0.12214268048E+03  0.00000000000E+00 0. -1.
         -1    1    6    6    0  502 -0.31769502693E+02  0.52674123342E+02  0.97057075756E+02  0.11490840059E+03  0.00000000000E+00 0.  1.
<mgrwt>
<rscale>  0 0.35470073E+03</rscale>
<asrwt>0</asrwt>
<pdfrwt beam="1">  1        3 0.76866321E-01 0.35470073E+03</pdfrwt>
<pdfrwt beam="2">  1       -2 0.58683452E-01 0.35470073E+03</pdfrwt>
<totfact> 0.18144124E+01</totfact>
</mgrwt>
</event>
<event>
12    3  0.2555530E-007  0.1452446E+04  0.7818608E-02  0.8916707E-01
         -2   -1    0    0    0  501 -0.00000000000E+00  0.00000000000E+00  0.12369978595E+04  0.12369978595E+04  0.00000000000E+00 0.  1.
          1   -1    0    0  501    0  0.00000000000E+00 -0.00000000000E+00 -0.19049825477E+04  0.19049825477E+04  0.00000000000E+00 0. -1.
        -24    2    1    2    0    0 -0.57306793086E+03 -0.12768737768E+04 -0.79916397187E+03  0.16135877395E+04  0.78669204669E+02 0.  0.
    5000000    2    1    2    0    0  0.57306793086E+03  0.12768737768E+04  0.13117928361E+03  0.15283926677E+04  0.59996887153E+03 0.  0.
        -24    2    4    4    0    0  0.21736717706E+03  0.10656158351E+04  0.17514618842E+03  0.11046958983E+04  0.83013508167E+02 0.  0.
         24    2    4    4    0    0  0.35570075380E+03  0.21125794169E+03 -0.43966904807E+02  0.42369676941E+03  0.80205483043E+02 0.  0.
         11    1    3    3    0    0 -0.23282344846E+03 -0.61460418075E+03 -0.37592781558E+03  0.75714383024E+03  0.00000000000E+00 0. -1.
        -12    1    3    3    0    0 -0.34024448240E+03 -0.66226959608E+03 -0.42323615629E+03  0.85644390925E+03  0.00000000000E+00 0.  1.
         15    1    5    5    0    0  0.68538323608E+02  0.21646806673E+03  0.60710598597E+02  0.23504225200E+03  0.17770000000E+01 0. -1.
        -16    1    5    5    0    0  0.14882885345E+03  0.84914776842E+03  0.11443558982E+03  0.86965364626E+03  0.00000000000E+00 0.  1.
          2    1    6    6  502    0  0.17715214450E+03  0.11347317715E+03  0.17345704579E+02  0.21109220189E+03  0.00000000000E+00 0. -1.
         -1    1    6    6    0  502  0.17854860930E+03  0.97784764537E+02 -0.61312609386E+02  0.21260456752E+03  0.00000000000E+00 0.  1.
<mgrwt>
<rscale>  0 0.14524459E+04</rscale>
<asrwt>0</asrwt>
<pdfrwt beam="1">  1        1 0.29307424E+00 0.14524459E+04</pdfrwt>
<pdfrwt beam="2">  1       -2 0.19030736E+00 0.14524459E+04</pdfrwt>
<totfact> 0.44308128E-01</totfact>
</mgrwt>
</event>
<event>
12    3  0.1182097E-007  0.3983204E+03  0.7818608E-02  0.1044363E+00
          1   -1    0    0  501    0  0.00000000000E+00  0.00000000000E+00  0.15906823375E+03  0.15906823375E+03  0.00000000000E+00 0. -1.
         -2   -1    0    0    0  501 -0.00000000000E+00 -0.00000000000E+00 -0.19203991113E+04  0.19203991113E+04  0.00000000000E+00 0.  1.
        -24    2    1    2    0    0 -0.19247455567E+03  0.16209458074E+03 -0.79084242265E+02  0.27577102069E+03  0.80462604917E+02 0.  0.
    5000000    2    1    2    0    0  0.19247455567E+03 -0.16209458074E+03 -0.16822466353E+04  0.18036963244E+04  0.60003798288E+03 0.  0.
        -24    2    4    4    0    0  0.10061258820E+03  0.16040598005E+03 -0.21551324117E+03  0.29702097353E+03  0.76957977175E+02 0.  0.
         24    2    4    4    0    0  0.91861967470E+02 -0.32250056079E+03 -0.14667333941E+04  0.15066753508E+04  0.79489185651E+02 0.  0.
         13    1    3    3    0    0 -0.78664984733E+02  0.11334862301E+03 -0.60187259718E+02  0.15052772633E+03  0.00000000000E+00 0. -1.
        -14    1    3    3    0    0 -0.11380957094E+03  0.48745957726E+02 -0.18896982547E+02  0.12524329436E+03  0.00000000000E+00 0.  1.
         15    1    5    5    0    0  0.19199593086E+02  0.18844063049E+02 -0.42518065271E+00  0.26964079707E+02  0.17770000000E+01 0. -1.
        -16    1    5    5    0    0  0.81412995116E+02  0.14156191700E+03 -0.21508806052E+03  0.27005689382E+03  0.00000000000E+00 0.  1.
          2    1    6    6  502    0  0.45761219816E+02 -0.27356336485E+03 -0.11733262453E+04  0.12056639174E+04  0.00000000000E+00 0. -1.
         -1    1    6    6    0  502  0.46100747655E+02 -0.48937195937E+02 -0.29340714886E+03  0.30101143347E+03  0.00000000000E+00 0.  1.
<mgrwt>
<rscale>  0 0.39832039E+03</rscale>
<asrwt>0</asrwt>
<pdfrwt beam="1">  1        1 0.24472035E-01 0.39832039E+03</pdfrwt>
<pdfrwt beam="2">  1       -2 0.29544602E+00 0.39832039E+03</pdfrwt>
<totfact> 0.65265522E+00</totfact>
</mgrwt>
</event>
<event>
12    3  0.1182097E-007  0.5959677E+03  0.7818608E-02  0.9913807E-01
          1   -1    0    0  501    0  0.00000000000E+00  0.00000000000E+00  0.11361116776E+04  0.11361116776E+04  0.00000000000E+00 0. -1.
         -2   -1    0    0    0  501 -0.00000000000E+00 -0.00000000000E+00 -0.43512573917E+03  0.43512573917E+03  0.00000000000E+00 0.  1.
        -24    2    1    2    0    0  0.31848985009E+02 -0.53206969417E+03  0.51926407433E+03  0.74830238684E+03  0.78795722979E+02 0.  0.
    5000000    2    1    2    0    0 -0.31848985009E+02  0.53206969417E+03  0.18172186413E+03  0.82293502997E+03  0.60007225427E+03 0.  0.
        -24    2    4    4    0    0  0.17124504471E+03  0.28535903927E+03 -0.13387565528E+03  0.36670140957E+03  0.76109040653E+02 0.  0.
         24    2    4    4    0    0 -0.20309402972E+03  0.24671065490E+03  0.31559751941E+03  0.45623362040E+03  0.80212156053E+02 0.  0.
         13    1    3    3    0    0  0.83953227322E+01 -0.19285666996E+03  0.24202171895E+03  0.30957824380E+03  0.00000000000E+00 0. -1.
        -14    1    3    3    0    0  0.23453662277E+02 -0.33921302421E+03  0.27724235539E+03  0.43872414304E+03  0.00000000000E+00 0.  1.
         15    1    5    5    0    0  0.10427925961E+02  0.63494056880E+02 -0.70436269166E+01  0.64753434720E+02  0.17770000000E+01 0. -1.
        -16    1    5    5    0    0  0.16081711875E+03  0.22186498239E+03 -0.12683202837E+03  0.30194797484E+03  0.00000000000E+00 0.  1.
          4    1    6    6  502    0 -0.81677751027E+02  0.80779473552E+02  0.64675942643E+02  0.13183154371E+03  0.00000000000E+00 0. -1.
         -3    1    6    6    0  502 -0.12141627869E+03  0.16593118135E+03  0.25092157677E+03  0.32440207669E+03  0.00000000000E+00 0.  1.
<mgrwt>
<rscale>  0 0.59596771E+03</rscale>
<asrwt>0</asrwt>
<pdfrwt beam="1">  1        1 0.17478641E+00 0.59596771E+03</pdfrwt>
<pdfrwt beam="2">  1       -2 0.66942422E-01 0.59596771E+03</pdfrwt>
<totfact> 0.22353351E+01</totfact>
</mgrwt>
</event>
<event>
12    3  0.1182097E-007  0.5541427E+03  0.7818608E-02  0.1000540E+00
          1   -1    0    0  501    0  0.00000000000E+00  0.00000000000E+00  0.16974321853E+04  0.16974321853E+04  0.00000000000E+00 0. -1.
         -2   -1    0    0    0  501 -0.00000000000E+00 -0.00000000000E+00 -0.33423666861E+03  0.33423666861E+03  0.00000000000E+00 0.  1.
        -24    2    1    2    0    0 -0.31367641104E+03  0.35888181620E+03  0.17849036765E+02  0.48342122290E+03  0.78666649826E+02 0.  0.
    5000000    2    1    2    0    0  0.31367641104E+03 -0.35888181620E+03  0.13453464799E+04  0.15482476310E+04  0.59993710260E+03 0.  0.
        -24    2    4    4    0    0 -0.78939841903E+02 -0.39081540753E+01  0.70556450667E+03  0.71421759008E+03  0.77709205366E+02 0.  0.
         24    2    4    4    0    0  0.39261625294E+03 -0.35497366212E+03  0.63978197323E+03  0.83403004092E+03  0.78302701158E+02 0.  0.
         13    1    3    3    0    0 -0.25229027778E+03  0.23483934144E+03  0.14576203802E+02  0.34498168976E+03  0.00000000000E+00 0. -1.
        -14    1    3    3    0    0 -0.61386133255E+02  0.12404247476E+03  0.32728329633E+01  0.13843953314E+03  0.00000000000E+00 0.  1.
         15    1    5    5    0    0  0.27122934654E+01 -0.11851173058E+02  0.30961122586E+03  0.30985492693E+03  0.17770000000E+01 0. -1.
        -16    1    5    5    0    0 -0.81652135368E+02  0.79430189827E+01  0.39595328081E+03  0.40436266315E+03  0.00000000000E+00 0.  1.
          4    1    6    6  502    0  0.13257980571E+03 -0.94354465465E+02  0.24600455361E+03  0.29495492949E+03  0.00000000000E+00 0. -1.
         -3    1    6    6    0  502  0.26003644723E+03 -0.26061919666E+03  0.39377741962E+03  0.53907511143E+03  0.00000000000E+00 0.  1.
<mgrwt>
<rscale>  0 0.55414272E+03</rscale>
<asrwt>0</asrwt>
<pdfrwt beam="1">  1        1 0.26114341E+00 0.55414272E+03</pdfrwt>
<pdfrwt beam="2">  1       -2 0.51421027E-01 0.55414272E+03</pdfrwt>
<totfact> 0.15999087E+01</totfact>
</mgrwt>
</event>
<event>
12    3  0.1182097E-007  0.1035226E+04  0.7818608E-02  0.9270731E-01
          1   -1    0    0  501    0  0.00000000000E+00  0.00000000000E+00  0.42023835851E+03  0.42023835851E+03  0.00000000000E+00 0. -1.
         -2   -1    0    0    0  501 -0.00000000000E+00 -0.00000000000E+00 -0.28581206164E+04  0.28581206164E+04  0.00000000000E+00 0.  1.
        -24    2    1    2    0    0  0.17965047843E+03  0.93947035818E+03 -0.63556008377E+03  0.11515430405E+04  0.85064127797E+02 0.  0.
    5000000    2    1    2    0    0 -0.17965047843E+03 -0.93947035818E+03 -0.18023221742E+04  0.21268159344E+04  0.60008495324E+03 0.  0.
        -24    2    4    4    0    0 -0.15884312479E+03 -0.35547227455E+01 -0.41330762820E+03  0.44997245880E+03  0.80051507164E+02 0.  0.
         24    2    4    4    0    0 -0.20807353638E+02 -0.93591563544E+03 -0.13890145460E+04  0.16768434756E+04  0.77920537789E+02 0.  0.
         13    1    3    3    0    0  0.60998022788E+01  0.20499875749E+03 -0.12104765337E+03  0.23814750166E+03  0.00000000000E+00 0. -1.
        -14    1    3    3    0    0  0.17355067615E+03  0.73447160069E+03 -0.51451243040E+03  0.91339553888E+03  0.00000000000E+00 0.  1.
         15    1    5    5    0    0 -0.11289835568E+01 -0.13813320530E+02 -0.11160070503E+02  0.17882598541E+02  0.17770000000E+01 0. -1.
        -16    1    5    5    0    0 -0.15771414124E+03  0.10258597784E+02 -0.40214755770E+03  0.43208986025E+03  0.00000000000E+00 0.  1.
          2    1    6    6  502    0 -0.42797494236E+02 -0.40088549708E+03 -0.56384368498E+03  0.69315258664E+03  0.00000000000E+00 0. -1.
         -1    1    6    6    0  502  0.21990140598E+02 -0.53503013836E+03 -0.82517086098E+03  0.98369088897E+03  0.00000000000E+00 0.  1.
<mgrwt>
<rscale>  0 0.10352263E+04</rscale>
<asrwt>0</asrwt>
<pdfrwt beam="1">  1        1 0.64652056E-01 0.10352263E+04</pdfrwt>
<pdfrwt beam="2">  1       -2 0.43971086E+00 0.10352263E+04</pdfrwt>
<totfact> 0.20346224E-01</totfact>
</mgrwt>
</event>
<event>
12    3  0.1182097E-007  0.9233660E+03  0.7818608E-02  0.9396835E-01
         -2   -1    0    0    0  501 -0.00000000000E+00  0.00000000000E+00  0.10168515860E+04  0.10168515860E+04  0.00000000000E+00 0.  1.
          1   -1    0    0  501    0  0.00000000000E+00 -0.00000000000E+00 -0.96682980606E+03  0.96682980606E+03  0.00000000000E+00 0. -1.
        -24    2    1    2    0    0  0.38676346579E+03 -0.77242756689E+03  0.27124919476E+03  0.90891100550E+03  0.79452914908E+02 0.  0.
    5000000    2    1    2    0    0 -0.38676346579E+03  0.77242756689E+03 -0.22122741479E+03  0.10747703866E+04  0.59996624097E+03 0.  0.
        -24    2    4    4    0    0  0.93706799997E+02  0.54863325461E+02 -0.16439109909E+03  0.20565545379E+03  0.58981211977E+02 0.  0.
         24    2    4    4    0    0 -0.48047026579E+03  0.71756424143E+03 -0.56836315697E+02  0.86911493282E+03  0.79876672289E+02 0.  0.
         11    1    3    3    0    0  0.93698143952E+02 -0.26022709805E+03  0.68515959601E+02  0.28494196157E+03  0.00000000000E+00 0. -1.
        -12    1    3    3    0    0  0.29306532184E+03 -0.51220046884E+03  0.20273323516E+03  0.62396904393E+03  0.00000000000E+00 0.  1.
         15    1    5    5    0    0  0.72108628631E+02  0.55830335048E+02 -0.15910879800E+03  0.18339969456E+03  0.17770000000E+01 0. -1.
        -16    1    5    5    0    0  0.21598171367E+02 -0.96700958636E+00 -0.52823010861E+01  0.22255759225E+02  0.00000000000E+00 0.  1.
          2    1    6    6  502    0 -0.34702977091E+02  0.97823256674E+02 -0.99257222586E+01  0.10426987162E+03  0.00000000000E+00 0. -1.
         -1    1    6    6    0  502 -0.44576728870E+03  0.61974098475E+03 -0.46910593438E+02  0.76484506120E+03  0.00000000000E+00 0.  1.
<mgrwt>
<rscale>  0 0.92336599E+03</rscale>
<asrwt>0</asrwt>
<pdfrwt beam="1">  1        1 0.14874305E+00 0.92336599E+03</pdfrwt>
<pdfrwt beam="2">  1       -2 0.15643871E+00 0.92336599E+03</pdfrwt>
<totfact> 0.37874843E+00</totfact>
</mgrwt>
</event>
<event>
12    3  0.1182097E-007  0.6287608E+03  0.7818608E-02  0.9847470E-01
          1   -1    0    0  501    0  0.00000000000E+00  0.00000000000E+00  0.12719124967E+04  0.12719124967E+04  0.00000000000E+00 0. -1.
         -2   -1    0    0    0  501 -0.00000000000E+00 -0.00000000000E+00 -0.46588179011E+03  0.46588179011E+03  0.00000000000E+00 0.  1.
        -24    2    1    2    0    0 -0.59403482816E+03  0.78523489604E+02  0.58966355727E+02  0.60767908750E+03  0.82179844222E+02 0.  0.
    5000000    2    1    2    0    0  0.59403482816E+03 -0.78523489604E+02  0.74706435087E+03  0.11301151993E+04  0.60000991984E+03 0.  0.
        -24    2    4    4    0    0  0.26937203095E+03  0.86414620247E+02 -0.13094158509E+01  0.29397274705E+03  0.79934246654E+02 0.  0.
         24    2    4    4    0    0  0.32466279720E+03 -0.16493810985E+03  0.74837376672E+03  0.83614245227E+03  0.80376574947E+02 0.  0.
         11    1    3    3    0    0 -0.49784622994E+03  0.68255614845E+02  0.18565309262E+02  0.50284626710E+03  0.00000000000E+00 0. -1.
        -12    1    3    3    0    0 -0.96188598214E+02  0.10267874759E+02  0.40401046464E+02  0.10483282040E+03  0.00000000000E+00 0.  1.
         15    1    5    5    0    0  0.10072821045E+03  0.73299604191E+02 -0.62872075143E+01  0.12474650722E+03  0.17770000000E+01 0. -1.
        -16    1    5    5    0    0  0.16864382050E+03  0.13115016055E+02  0.49777916634E+01  0.16922623984E+03  0.00000000000E+00 0.  1.
          4    1    6    6  502    0  0.46615074823E+02 -0.17243825094E+02  0.17610304509E+03  0.18298250516E+03  0.00000000000E+00 0. -1.
         -3    1    6    6    0  502  0.27804772238E+03 -0.14769428476E+03  0.57227072163E+03  0.65315994711E+03  0.00000000000E+00 0.  1.
<mgrwt>
<rscale>  0 0.62876081E+03</rscale>
<asrwt>0</asrwt>
<pdfrwt beam="1">  1        1 0.19567884E+00 0.62876081E+03</pdfrwt>
<pdfrwt beam="2">  1       -2 0.71674122E-01 0.62876081E+03</pdfrwt>
<totfact> 0.15319583E+01</totfact>
</mgrwt>
</event>
<event>
12    3  0.1182097E-007  0.7367199E+03  0.7818608E-02  0.9656418E-01
          3   -1    0    0  501    0  0.00000000000E+00  0.00000000000E+00  0.94056760535E+03  0.94056760535E+03  0.00000000000E+00 0. -1.
         -4   -1    0    0    0  501 -0.00000000000E+00 -0.00000000000E+00 -0.63603635566E+03  0.63603635566E+03  0.00000000000E+00 0.  1.
        -24    2    1    2    0    0 -0.99971833095E+02 -0.63321008410E+03  0.26292078972E+03  0.69750172660E+03  0.80199369841E+02 0.  0.
    5000000    2    1    2    0    0  0.99971833095E+02  0.63321008410E+03  0.41610459966E+02  0.87910223440E+03  0.60011659711E+03 0.  0.
        -24    2    4    4    0    0  0.26404797675E+03  0.60401658927E+03  0.12621456904E+03  0.67594824742E+03  0.80115801300E+02 0.  0.
         24    2    4    4    0    0 -0.16407614365E+03  0.29193494831E+02 -0.84604109075E+02  0.20315398698E+03  0.79626918161E+02 0.  0.
         11    1    3    3    0    0 -0.10152694283E+03 -0.47922804776E+03  0.17502945167E+03  0.52019472396E+03  0.00000000000E+00 0. -1.
        -12    1    3    3    0    0  0.15551097356E+01 -0.15398203634E+03  0.87891338052E+02  0.17730700264E+03  0.00000000000E+00 0.  1.
         15    1    5    5    0    0  0.18001991177E+03  0.46282081826E+03  0.66065238608E+02  0.50097709721E+03  0.17770000000E+01 0. -1.
        -16    1    5    5    0    0  0.84028064978E+02  0.14119577101E+03  0.60149330433E+02  0.17497115021E+03  0.00000000000E+00 0.  1.
          4    1    6    6  502    0 -0.49767133113E+02  0.21179411026E+02 -0.68746475581E+02  0.87472355030E+02  0.00000000000E+00 0. -1.
         -3    1    6    6    0  502 -0.11430901054E+03  0.80140838049E+01 -0.15857633493E+02  0.11568163195E+03  0.00000000000E+00 0.  1.
<mgrwt>
<rscale>  0 0.73671989E+03</rscale>
<asrwt>0</asrwt>
<pdfrwt beam="1">  1        3 0.14470271E+00 0.73671989E+03</pdfrwt>
<pdfrwt beam="2">  1       -4 0.97851748E-01 0.73671989E+03</pdfrwt>
<totfact> 0.69521807E-01</totfact>
</mgrwt>
</event>
<event>
12    3  0.1182097E-007  0.6441316E+03  0.7818608E-02  0.9817853E-01
         -2   -1    0    0    0  501 -0.00000000000E+00  0.00000000000E+00  0.14830405064E+03  0.14830405064E+03  0.00000000000E+00 0.  1.
          1   -1    0    0  501    0  0.00000000000E+00 -0.00000000000E+00 -0.42195306981E+04  0.42195306981E+04  0.00000000000E+00 0. -1.
        -24    2    1    2    0    0 -0.13447430257E+03 -0.51419582231E+03 -0.60535327585E+03  0.81047530269E+03  0.89089538974E+02 0.  0.
    5000000    2    1    2    0    0  0.13447430257E+03  0.51419582231E+03 -0.34658733716E+04  0.35573594460E+04  0.60003943089E+03 0.  0.
        -24    2    4    4    0    0 -0.16186899506E+03  0.37933406836E+03 -0.13111992405E+04  0.13768405065E+04  0.79689555518E+02 0.  0.
         24    2    4    4    0    0  0.29634329764E+03  0.13486175395E+03 -0.21546741311E+04  0.21805189395E+04  0.77686494446E+02 0.  0.
         13    1    3    3    0    0 -0.32278093949E+02 -0.51023320398E+02 -0.10439719903E+03  0.12059863075E+03  0.00000000000E+00 0. -1.
        -14    1    3    3    0    0 -0.10219620862E+03 -0.46317250191E+03 -0.50095607682E+03  0.68987667194E+03  0.00000000000E+00 0.  1.
         15    1    5    5    0    0 -0.15515130738E+03  0.28680047721E+03 -0.97552691228E+03  0.10285826929E+04  0.17770000000E+01 0. -1.
        -16    1    5    5    0    0 -0.67176876809E+01  0.92533591154E+02 -0.33567232819E+03  0.34825781360E+03  0.00000000000E+00 0.  1.
          2    1    6    6  502    0  0.61500100952E+02 -0.44483053494E+01 -0.38979383273E+03  0.39464069971E+03  0.00000000000E+00 0. -1.
         -1    1    6    6    0  502  0.23484319669E+03  0.13931005930E+03 -0.17648802984E+04  0.17858782398E+04  0.00000000000E+00 0.  1.
<mgrwt>
<rscale>  0 0.64413164E+03</rscale>
<asrwt>0</asrwt>
<pdfrwt beam="1">  1        1 0.64915864E+00 0.64413164E+03</pdfrwt>
<pdfrwt beam="2">  1       -2 0.22816005E-01 0.64413164E+03</pdfrwt>
<totfact> 0.10270222E+00</totfact>
</mgrwt>
</event>
<event>
12    3  0.1182097E-007  0.1125600E+04  0.7818608E-02  0.9180593E-01
         -2   -1    0    0    0  501 -0.00000000000E+00  0.00000000000E+00  0.10970858303E+04  0.10970858303E+04  0.00000000000E+00 0.  1.
          1   -1    0    0  501    0  0.00000000000E+00 -0.00000000000E+00 -0.15050037711E+04  0.15050037711E+04  0.00000000000E+00 0. -1.
        -24    2    1    2    0    0 -0.69959738742E+03 -0.83524190906E+03  0.34805772066E+03  0.11465458161E+04  0.79734437089E+02 0.  0.
    5000000    2    1    2    0    0  0.69959738742E+03  0.83524190906E+03 -0.75597566149E+03  0.14555437853E+04  0.60003579818E+03 0.  0.
        -24    2    4    4    0    0  0.60961623926E+03  0.43986293158E+03 -0.23739533882E+03  0.79245761511E+03  0.80753743564E+02 0.  0.
         24    2    4    4    0    0  0.89981148157E+02  0.39537897749E+03 -0.51858032267E+03  0.66308617022E+03  0.79602608117E+02 0.  0.
         11    1    3    3    0    0 -0.44216233886E+03 -0.47418154668E+03  0.22611155357E+03  0.68664554741E+03  0.00000000000E+00 0. -1.
        -12    1    3    3    0    0 -0.25743504856E+03 -0.36106036239E+03  0.12194616708E+03  0.45990026873E+03  0.00000000000E+00 0.  1.
         15    1    5    5    0    0  0.30233731269E+01  0.27549390982E+00 -0.84076596797E+01  0.91138988500E+01  0.17770000000E+01 0. -1.
        -16    1    5    5    0    0  0.60659286613E+03  0.43958743767E+03 -0.22898767914E+03  0.78334371626E+03  0.00000000000E+00 0.  1.
          4    1    6    6  502    0  0.84836583722E+02  0.31496919643E+03 -0.45795973301E+03  0.56225435321E+03  0.00000000000E+00 0. -1.
         -3    1    6    6    0  502  0.51445644349E+01  0.80409781053E+02 -0.60620589653E+02  0.10083181701E+03  0.00000000000E+00 0.  1.
<mgrwt>
<rscale>  0 0.11256002E+04</rscale>
<asrwt>0</asrwt>
<pdfrwt beam="1">  1        1 0.23153904E+00 0.11256002E+04</pdfrwt>
<pdfrwt beam="2">  1       -2 0.16878244E+00 0.11256002E+04</pdfrwt>
<totfact> 0.12164707E+00</totfact>
</mgrwt>
</event>
<event>
12    3  0.1182097E-007  0.5311489E+03  0.7818608E-02  0.1005954E+00
         -2   -1    0    0    0  501 -0.00000000000E+00  0.00000000000E+00  0.22195229107E+03  0.22195229107E+03  0.00000000000E+00 0.  1.
          1   -1    0    0  501    0  0.00000000000E+00 -0.00000000000E+00 -0.22587712273E+04  0.22587712273E+04  0.00000000000E+00 0. -1.
        -24    2    1    2    0    0  0.80503098704E+02 -0.41017215750E+03 -0.14022609507E+03  0.44806403575E+03  0.79850326934E+02 0.  0.
    5000000    2    1    2    0    0 -0.80503098704E+02  0.41017215750E+03 -0.18965928412E+04  0.20326594826E+04  0.59993184563E+03 0.  0.
        -24    2    4    4    0    0 -0.27899130316E+03  0.25678610798E+03 -0.15503980137E+04  0.15980359647E+04  0.78801592449E+02 0.  0.
         24    2    4    4    0    0  0.19848820445E+03  0.15338604951E+03 -0.34619482750E+03  0.43462351798E+03  0.78242547914E+02 0.  0.
         13    1    3    3    0    0  0.59167310065E+02 -0.23787559347E+03 -0.12108574417E+03  0.27339957204E+03  0.00000000000E+00 0. -1.
        -14    1    3    3    0    0  0.21335788639E+02 -0.17229656403E+03 -0.19140350892E+02  0.17466446371E+03  0.00000000000E+00 0.  1.
         15    1    5    5    0    0 -0.21001457282E+03  0.14783137576E+03 -0.96403903976E+03  0.99766460515E+03  0.17770000000E+01 0. -1.
        -16    1    5    5    0    0 -0.68976730335E+02  0.10895473222E+03 -0.58635897394E+03  0.60037135951E+03  0.00000000000E+00 0.  1.
          2    1    6    6  502    0  0.16924783160E+03  0.99131024559E+02 -0.22380487494E+03  0.29759101226E+03  0.00000000000E+00 0. -1.
         -1    1    6    6    0  502  0.29240372858E+02  0.54255024953E+02 -0.12238995256E+03  0.13703250572E+03  0.00000000000E+00 0.  1.
<mgrwt>
<rscale>  0 0.53114891E+03</rscale>
<asrwt>0</asrwt>
<pdfrwt beam="1">  1        1 0.34750329E+00 0.53114891E+03</pdfrwt>
<pdfrwt beam="2">  1       -2 0.34146504E-01 0.53114891E+03</pdfrwt>
<totfact> 0.15185013E+01</totfact>
</mgrwt>
</event>
<event>
12    3  0.1182097E-007  0.3978812E+03  0.7818608E-02  0.1044516E+00
          1   -1    0    0  501    0  0.00000000000E+00  0.00000000000E+00  0.18244634225E+03  0.18244634225E+03  0.00000000000E+00 0. -1.
         -2   -1    0    0    0  501 -0.00000000000E+00 -0.00000000000E+00 -0.14102784278E+04  0.14102784278E+04  0.00000000000E+00 0.  1.
        -24    2    1    2    0    0 -0.66171983673E+02 -0.23666197649E+03 -0.73251935099E+03  0.77672118715E+03  0.79520943457E+02 0.  0.
    5000000    2    1    2    0    0  0.66171983673E+02  0.23666197649E+03 -0.49531273455E+03  0.81600358290E+03  0.60011625520E+03 0.  0.
        -24    2    4    4    0    0 -0.11193141971E+03  0.31203296571E+03 -0.50222763695E+03  0.60649718613E+03  0.75584542486E+02 0.  0.
         24    2    4    4    0    0  0.17810340338E+03 -0.75370989221E+02  0.69149023995E+01  0.20950639676E+03  0.80271452574E+02 0.  0.
         13    1    3    3    0    0 -0.58030573029E+01 -0.16262143510E+03 -0.46704679227E+03  0.49458276638E+03  0.00000000000E+00 0. -1.
        -14    1    3    3    0    0 -0.60368926370E+02 -0.74040541381E+02 -0.26547255872E+03  0.28213842077E+03  0.00000000000E+00 0.  1.
         15    1    5    5    0    0 -0.65562948929E+02  0.16202706154E+03 -0.19782051247E+03  0.26398367720E+03  0.17770000000E+01 0. -1.
        -16    1    5    5    0    0 -0.46368470778E+02  0.15000590416E+03 -0.30440712448E+03  0.34251350893E+03  0.00000000000E+00 0.  1.
          2    1    6    6  502    0  0.40261870127E+02 -0.52199037611E+02  0.20590862483E+02  0.69063313933E+02  0.00000000000E+00 0. -1.
         -1    1    6    6    0  502  0.13784153325E+03 -0.23171951610E+02 -0.13675960083E+02  0.14044308283E+03  0.00000000000E+00 0.  1.
<mgrwt>
<rscale>  0 0.39788118E+03</rscale>
<asrwt>0</asrwt>
<pdfrwt beam="1">  1        1 0.28068668E-01 0.39788118E+03</pdfrwt>
<pdfrwt beam="2">  1       -2 0.21696591E+00 0.39788118E+03</pdfrwt>
<totfact> 0.16095196E+01</totfact>
</mgrwt>
</event>
<event>
12    3  0.1182097E-007  0.1519437E+04  0.7818608E-02  0.8871630E-01
          1   -1    0    0  501    0  0.00000000000E+00  0.00000000000E+00  0.63692764395E+03  0.63692764395E+03  0.00000000000E+00 0. -1.
         -2   -1    0    0    0  501 -0.00000000000E+00 -0.00000000000E+00 -0.44824555873E+04  0.44824555873E+04  0.00000000000E+00 0.  1.
        -24    2    1    2    0    0 -0.13196584897E+04  0.65461751478E+03 -0.78705583641E+03  0.16721220947E+04  0.80701857911E+02 0.  0.
    5000000    2    1    2    0    0  0.13196584897E+04 -0.65461751478E+03 -0.30584721069E+04  0.34472611365E+04  0.59944565581E+03 0.  0.
        -24    2    4    4    0    0  0.10492685415E+04 -0.25745517288E+03 -0.23491392280E+04  0.25869340669E+04  0.80778190906E+02 0.  0.
         24    2    4    4    0    0  0.27038994823E+03 -0.39716234190E+03 -0.70933287897E+03  0.86032706958E+03  0.78491295842E+02 0.  0.
         11    1    3    3    0    0 -0.94377529391E+03  0.44337680198E+03 -0.58964701391E+03  0.11979058373E+04  0.00000000000E+00 0. -1.
        -12    1    3    3    0    0 -0.37588319582E+03  0.21124071280E+03 -0.19740882250E+03  0.47421625747E+03  0.00000000000E+00 0.  1.
         15    1    5    5    0    0  0.13760353319E+03 -0.45101208762E+02 -0.37896933422E+03  0.40569664207E+03  0.17770000000E+01 0. -1.
        -16    1    5    5    0    0  0.91166500831E+03 -0.21235396411E+03 -0.19701698937E+04  0.21812374249E+04  0.00000000000E+00 0.  1.
          2    1    6    6  502    0  0.74611925989E+02 -0.16004586664E+03 -0.30387444182E+03  0.35145596498E+03  0.00000000000E+00 0. -1.
         -1    1    6    6    0  502  0.19577802225E+03 -0.23711647526E+03 -0.40545843715E+03  0.50887110459E+03  0.00000000000E+00 0.  1.
<mgrwt>
<rscale>  0 0.15194368E+04</rscale>
<asrwt>0</asrwt>
<pdfrwt beam="1">  1        1 0.97988869E-01 0.15194368E+04</pdfrwt>
<pdfrwt beam="2">  1       -2 0.68960855E+00 0.15194368E+04</pdfrwt>
<totfact> 0.63773248E-03</totfact>
</mgrwt>
</event>
<event>
12    3  0.1182097E-007  0.6148353E+03  0.7818608E-02  0.9875097E-01
          1   -1    0    0  501    0  0.00000000000E+00  0.00000000000E+00  0.17640029222E+04  0.17640029222E+04  0.00000000000E+00 0. -1.
         -2   -1    0    0    0  501 -0.00000000000E+00 -0.00000000000E+00 -0.27103099140E+03  0.27103099140E+03  0.00000000000E+00 0.  1.
        -24    2    1    2    0    0 -0.32948278010E+03  0.35126497775E+03  0.19433009064E+03  0.52559951355E+03  0.80899181334E+02 0.  0.
    5000000    2    1    2    0    0  0.32948278010E+03 -0.35126497775E+03  0.12986418401E+04  0.15094344000E+04  0.59997965971E+03 0.  0.
        -24    2    4    4    0    0  0.34623681721E+03  0.26364276789E+02  0.82246823686E+03  0.89621618641E+03  0.78577626982E+02 0.  0.
         24    2    4    4    0    0 -0.16754037111E+02 -0.37762925454E+03  0.47617360326E+03  0.61321821361E+03  0.80067005752E+02 0.  0.
         11    1    3    3    0    0 -0.13898902936E+03  0.20557567690E+03  0.88402317009E+02  0.26342793866E+03  0.00000000000E+00 0. -1.
        -12    1    3    3    0    0 -0.19049375074E+03  0.14568930086E+03  0.10592777363E+03  0.26217157490E+03  0.00000000000E+00 0.  1.
         15    1    5    5    0    0  0.17801917756E+03  0.52524583934E+02  0.41537563793E+03  0.45496124869E+03  0.17770000000E+01 0. -1.
        -16    1    5    5    0    0  0.16821763965E+03 -0.26160307145E+02  0.40709259893E+03  0.44125493772E+03  0.00000000000E+00 0.  1.
          4    1    6    6  502    0 -0.46537882019E+02 -0.27768350837E+03  0.33273694835E+03  0.43587587922E+03  0.00000000000E+00 0. -1.
         -1    1    6    6    0  502  0.29783844908E+02 -0.99945746167E+02  0.14343665491E+03  0.17734233439E+03  0.00000000000E+00 0.  1.
<mgrwt>
<rscale>  0 0.61483535E+03</rscale>
<asrwt>0</asrwt>
<pdfrwt beam="1">  1        1 0.27138506E+00 0.61483535E+03</pdfrwt>
<pdfrwt beam="2">  1       -2 0.41697077E-01 0.61483535E+03</pdfrwt>
<totfact> 0.21732467E+01</totfact>
</mgrwt>
</event>
<event>
12    3  0.1182097E-007  0.6820752E+03  0.7818608E-02  0.9748387E-01
         -2   -1    0    0    0  501 -0.00000000000E+00  0.00000000000E+00  0.30947434270E+03  0.30947434270E+03  0.00000000000E+00 0.  1.
          1   -1    0    0  501    0  0.00000000000E+00 -0.00000000000E+00 -0.21423213136E+04  0.21423213136E+04  0.00000000000E+00 0. -1.
        -24    2    1    2    0    0  0.91177455698E+02 -0.65424246626E+03 -0.44130091551E+03  0.79865748109E+03  0.82223725237E+02 0.  0.
    5000000    2    1    2    0    0 -0.91177455698E+02  0.65424246626E+03 -0.13915460554E+04  0.16531381752E+04  0.60009904930E+03 0.  0.
        -24    2    4    4    0    0 -0.10254527906E+03  0.14326003324E+03 -0.29251447215E+02  0.19602737188E+03  0.80821482161E+02 0.  0.
         24    2    4    4    0    0  0.11367823367E+02  0.51098243301E+03 -0.13622946082E+04  0.14571108033E+04  0.78057795514E+02 0.  0.
         11    1    3    3    0    0  0.82829648188E+02 -0.30355817775E+03 -0.21901162658E+03  0.38337241747E+03  0.00000000000E+00 0. -1.
        -12    1    3    3    0    0  0.83478075099E+01 -0.35068428850E+03 -0.22228928892E+03  0.41528506362E+03  0.00000000000E+00 0.  1.
         15    1    5    5    0    0  0.16782965406E+01 -0.18179707395E+01  0.12260447957E+02  0.12633210598E+02  0.17770000000E+01 0. -1.
        -16    1    5    5    0    0 -0.10422357561E+03  0.14507800398E+03 -0.41511895173E+02  0.18339416128E+03  0.00000000000E+00 0.  1.
          4    1    6    6  502    0  0.31954275708E+02  0.89285256186E+02 -0.25226474586E+03  0.26950034269E+03  0.00000000000E+00 0. -1.
         -3    1    6    6    0  502 -0.20586452341E+02  0.42169717683E+03 -0.11100298623E+04  0.11876104607E+04  0.00000000000E+00 0.  1.
<mgrwt>
<rscale>  0 0.68207519E+03</rscale>
<asrwt>0</asrwt>
<pdfrwt beam="1">  1        1 0.32958789E+00 0.68207519E+03</pdfrwt>
<pdfrwt beam="2">  1       -2 0.47611438E-01 0.68207519E+03</pdfrwt>
<totfact> 0.92434370E+00</totfact>
</mgrwt>
</event>
<event>
12    3  0.1182097E-007  0.1021520E+04  0.7818608E-02  0.9285252E-01
         -2   -1    0    0    0  501 -0.00000000000E+00  0.00000000000E+00  0.51617311235E+03  0.51617311235E+03  0.00000000000E+00 0.  1.
          1   -1    0    0  501    0  0.00000000000E+00 -0.00000000000E+00 -0.28569119854E+04  0.28569119854E+04  0.00000000000E+00 0. -1.
        -24    2    1    2    0    0 -0.68828514170E+03  0.68538721755E+03 -0.19255838904E+04  0.21582183818E+04  0.80877626162E+02 0.  0.
    5000000    2    1    2    0    0  0.68828514170E+03 -0.68538721755E+03 -0.41515498265E+03  0.12148667159E+04  0.60004616785E+03 0.  0.
        -24    2    4    4    0    0 -0.62419308740E+02 -0.72718287352E+02  0.51763852780E+02  0.13636991587E+03  0.82055701085E+02 0.  0.
         24    2    4    4    0    0  0.75070445044E+03 -0.61266893020E+03 -0.46691883543E+03  0.10784968000E+04  0.78878126775E+02 0.  0.
         11    1    3    3    0    0 -0.27395607614E+03  0.32226300280E+03 -0.87958209545E+03  0.97599694532E+03  0.00000000000E+00 0. -1.
        -12    1    3    3    0    0 -0.41432906556E+03  0.36312421475E+03 -0.10460017949E+04  0.11822214365E+04  0.00000000000E+00 0.  1.
         15    1    5    5    0    0 -0.32782202878E+02 -0.26872435860E+02 -0.19422971337E+02  0.46660584856E+02  0.17770000000E+01 0. -1.
        -16    1    5    5    0    0 -0.29637105862E+02 -0.45845851492E+02  0.71186824117E+02  0.89709331013E+02  0.00000000000E+00 0.  1.
          4    1    6    6  502    0  0.48127528134E+03 -0.34361886273E+03 -0.27782019201E+03  0.65336351164E+03  0.00000000000E+00 0. -1.
         -3    1    6    6    0  502  0.26942916911E+03 -0.26905006747E+03 -0.18909864342E+03  0.42513328841E+03  0.00000000000E+00 0.  1.
<mgrwt>
<rscale>  0 0.10215197E+04</rscale>
<asrwt>0</asrwt>
<pdfrwt beam="1">  1        1 0.43952492E+00 0.10215197E+04</pdfrwt>
<pdfrwt beam="2">  1       -2 0.79411249E-01 0.10215197E+04</pdfrwt>
<totfact> 0.95305821E-01</totfact>
</mgrwt>
</event>
<event>
12    3  0.1182097E-007  0.6755634E+03  0.7818608E-02  0.9759959E-01
         -2   -1    0    0    0  501 -0.00000000000E+00  0.00000000000E+00  0.42530764971E+03  0.42530764971E+03  0.00000000000E+00 0.  1.
          1   -1    0    0  501    0  0.00000000000E+00 -0.00000000000E+00 -0.12087942281E+04  0.12087942281E+04  0.00000000000E+00 0. -1.
        -24    2    1    2    0    0 -0.31224248643E+03 -0.45420429348E+03 -0.89709506065E+02  0.56387724372E+03  0.78184652977E+02 0.  0.
    5000000    2    1    2    0    0  0.31224248643E+03  0.45420429348E+03 -0.69377707234E+03  0.10702246341E+04  0.60021432071E+03 0.  0.
        -24    2    4    4    0    0 -0.33549792989E+02  0.44666052929E+03 -0.45128043178E+03  0.64068524712E+03  0.78691427250E+02 0.  0.
         24    2    4    4    0    0  0.34579227942E+03  0.75437641874E+01 -0.24249664055E+03  0.42953938698E+03  0.77911843820E+02 0.  0.
         11    1    3    3    0    0 -0.28177374093E+03 -0.36758502578E+03 -0.58203599669E+02  0.46680065474E+03  0.00000000000E+00 0. -1.
        -12    1    3    3    0    0 -0.30468745494E+02 -0.86619267705E+02 -0.31505906396E+02  0.97076588978E+02  0.00000000000E+00 0.  1.
         15    1    5    5    0    0 -0.30366527531E+02  0.12711895282E+03 -0.17382616143E+03  0.21748573812E+03  0.17770000000E+01 0. -1.
        -16    1    5    5    0    0 -0.31832654576E+01  0.31954157648E+03 -0.27745427036E+03  0.42319950900E+03  0.00000000000E+00 0.  1.
          2    1    6    6  502    0  0.79465585676E+02  0.26881986845E+01 -0.98997792092E+02  0.12697467684E+03  0.00000000000E+00 0. -1.
         -1    1    6    6    0  502  0.26632669374E+03  0.48555655029E+01 -0.14349884846E+03  0.30256471014E+03  0.00000000000E+00 0.  1.
<mgrwt>
<rscale>  0 0.67556340E+03</rscale>
<asrwt>0</asrwt>
<pdfrwt beam="1">  1        1 0.18596834E+00 0.67556340E+03</pdfrwt>
<pdfrwt beam="2">  1       -2 0.65431947E-01 0.67556340E+03</pdfrwt>
<totfact> 0.20577147E+01</totfact>
</mgrwt>
</event>
<event>
12    3  0.1182097E-007  0.9562719E+03  0.7818608E-02  0.9357850E-01
          1   -1    0    0  501    0  0.00000000000E+00  0.00000000000E+00  0.77474688408E+03  0.77474688408E+03  0.00000000000E+00 0. -1.
         -2   -1    0    0    0  501 -0.00000000000E+00 -0.00000000000E+00 -0.12046640044E+04  0.12046640044E+04  0.00000000000E+00 0.  1.
        -24    2    1    2    0    0  0.85635075789E+03 -0.15752168048E+03 -0.17441290193E+03  0.89151061743E+03  0.78877248140E+02 0.  0.
    5000000    2    1    2    0    0 -0.85635075789E+03  0.15752168048E+03 -0.25550421839E+03  0.10879002710E+04  0.60007907294E+03 0.  0.
        -24    2    4    4    0    0 -0.37211571097E+03  0.35171510668E+03 -0.20766340689E+03  0.55808146462E+03  0.78467904090E+02 0.  0.
         24    2    4    4    0    0 -0.48423504692E+03 -0.19419342620E+03 -0.47840811505E+02  0.52981880643E+03  0.78895861507E+02 0.  0.
         13    1    3    3    0    0  0.61330714164E+03 -0.14369409076E+03 -0.14416333062E+03  0.64620175457E+03  0.00000000000E+00 0. -1.
        -14    1    3    3    0    0  0.24304361625E+03 -0.13827589720E+02 -0.30249571313E+02  0.24530886286E+03  0.00000000000E+00 0.  1.
         15    1    5    5    0    0 -0.30971985690E+03  0.32093829076E+03 -0.16044239999E+03  0.47399651652E+03  0.17770000000E+01 0. -1.
        -16    1    5    5    0    0 -0.62395854073E+02  0.30776815921E+02 -0.47221006901E+02  0.84084948097E+02  0.00000000000E+00 0.  1.
          4    1    6    6  502    0 -0.23927110535E+03 -0.11982227190E+03  0.83211834282E+01  0.26772613020E+03  0.00000000000E+00 0. -1.
         -3    1    6    6    0  502 -0.24496394157E+03 -0.74371154300E+02 -0.56161994933E+02  0.26209267623E+03  0.00000000000E+00 0.  1.
<mgrwt>
<rscale>  0 0.95627191E+03</rscale>
<asrwt>0</asrwt>
<pdfrwt beam="1">  1        1 0.11919183E+00 0.95627191E+03</pdfrwt>
<pdfrwt beam="2">  1       -2 0.18533292E+00 0.95627191E+03</pdfrwt>
<totfact> 0.34022722E+00</totfact>
</mgrwt>
</event>
<event>
12    3  0.1182097E-007  0.6673024E+03  0.7818608E-02  0.9774843E-01
         -2   -1    0    0    0  501 -0.00000000000E+00  0.00000000000E+00  0.33237450096E+03  0.33237450096E+03  0.00000000000E+00 0.  1.
          1   -1    0    0  501    0  0.00000000000E+00 -0.00000000000E+00 -0.19187573737E+04  0.19187573737E+04  0.00000000000E+00 0. -1.
        -24    2    1    2    0    0  0.23989591361E+03 -0.60854408131E+03 -0.96285294025E+03  0.11664377034E+04  0.74934525235E+02 0.  0.
    5000000    2    1    2    0    0 -0.23989591361E+03  0.60854408131E+03 -0.62352993251E+03  0.10846941713E+04  0.59991326061E+03 0.  0.
        -24    2    4    4    0    0 -0.83995489237E+02  0.15585509679E+03  0.95154359075E+02  0.21725928659E+03  0.82469340672E+02 0.  0.
         24    2    4    4    0    0 -0.15590042438E+03  0.45268898452E+03 -0.71868429158E+03  0.86743488471E+03  0.81877403583E+02 0.  0.
         11    1    3    3    0    0  0.17143519842E+02 -0.57553945700E+02 -0.13083689304E+03  0.14396058321E+03  0.00000000000E+00 0. -1.
        -12    1    3    3    0    0  0.22275239377E+03 -0.55099013561E+03 -0.83201604721E+03  0.10224771202E+04  0.00000000000E+00 0.  1.
         15    1    5    5    0    0 -0.15369605898E+02 -0.81554823415E+01  0.73744675508E+01  0.18980968847E+02  0.17770000000E+01 0. -1.
        -16    1    5    5    0    0 -0.68625883339E+02  0.16401057913E+03  0.87779891524E+02  0.19827831774E+03  0.00000000000E+00 0.  1.
          4    1    6    6  502    0 -0.89833897536E+02  0.14751658219E+03 -0.27972188269E+03  0.32874854041E+03  0.00000000000E+00 0. -1.
         -3    1    6    6    0  502 -0.66066526841E+02  0.30517240232E+03 -0.43896240890E+03  0.53868634430E+03  0.00000000000E+00 0.  1.
<mgrwt>
<rscale>  0 0.66730240E+03</rscale>
<asrwt>0</asrwt>
<pdfrwt beam="1">  1        1 0.29519343E+00 0.66730240E+03</pdfrwt>
<pdfrwt beam="2">  1       -2 0.51134540E-01 0.66730240E+03</pdfrwt>
<totfact> 0.11302386E+01</totfact>
</mgrwt>
</event>
<event>
12    3  0.1182097E-007  0.3479511E+03  0.7818608E-02  0.1063459E+00
         -2   -1    0    0    0  501 -0.00000000000E+00  0.00000000000E+00  0.73094033263E+03  0.73094033263E+03  0.00000000000E+00 0.  1.
          1   -1    0    0  501    0  0.00000000000E+00 -0.00000000000E+00 -0.33159612253E+03  0.33159612253E+03  0.00000000000E+00 0. -1.
        -24    2    1    2    0    0  0.44171539926E+01  0.95672277881E+02  0.43642636063E+03  0.45382385437E+03  0.79469657959E+02 0.  0.
    5000000    2    1    2    0    0 -0.44171539926E+01 -0.95672277881E+02 -0.37082150537E+02  0.60871260078E+03  0.59998604022E+03 0.  0.
        -24    2    4    4    0    0 -0.16410038148E+03 -0.28823312090E+03  0.54148482424E+01  0.34156723032E+03  0.81434544637E+02 0.  0.
         24    2    4    4    0    0  0.15968322749E+03  0.19256084302E+03 -0.42496998780E+02  0.26714537046E+03  0.83559814774E+02 0.  0.
         13    1    3    3    0    0  0.18986062791E+02  0.57781489405E+01  0.22516140914E+02  0.30013899899E+02  0.00000000000E+00 0. -1.
        -14    1    3    3    0    0 -0.14568908798E+02  0.89894128941E+02  0.41391021972E+03  0.42380995447E+03  0.00000000000E+00 0.  1.
         15    1    5    5    0    0 -0.60096192468E+02 -0.12513265826E+03  0.41274365512E+02  0.14483254292E+03  0.17770000000E+01 0. -1.
        -16    1    5    5    0    0 -0.10400418902E+03 -0.16310046264E+03 -0.35859517269E+02  0.19673468740E+03  0.00000000000E+00 0.  1.
          4    1    6    6  502    0  0.15987003287E+03  0.18233630627E+03 -0.21079568086E+02  0.24341179961E+03  0.00000000000E+00 0. -1.
         -3    1    6    6    0  502 -0.18680538103E+00  0.10224536749E+02 -0.21417430694E+02  0.23733570855E+02  0.00000000000E+00 0.  1.
<mgrwt>
<rscale>  0 0.34795114E+03</rscale>
<asrwt>0</asrwt>
<pdfrwt beam="1">  1        1 0.51014788E-01 0.34795114E+03</pdfrwt>
<pdfrwt beam="2">  1       -2 0.11245236E+00 0.34795114E+03</pdfrwt>
<totfact> 0.44021108E+01</totfact>
</mgrwt>
</event>
<event>
12    3  0.1182097E-007  0.1034015E+04  0.7818608E-02  0.9272005E-01
          1   -1    0    0  501    0  0.00000000000E+00  0.00000000000E+00  0.14010569943E+04  0.14010569943E+04  0.00000000000E+00 0. -1.
         -2   -1    0    0    0  501 -0.00000000000E+00 -0.00000000000E+00 -0.11124151219E+04  0.11124151219E+04  0.00000000000E+00 0.  1.
        -24    2    1    2    0    0 -0.83303542093E+03  0.57197653091E+03 -0.46716044429E+03  0.11161707006E+04  0.80579078070E+02 0.  0.
    5000000    2    1    2    0    0  0.83303542093E+03 -0.57197653091E+03  0.75580231666E+03  0.13973014156E+04  0.60009077628E+03 0.  0.
        -24    2    4    4    0    0  0.18921108741E+03 -0.15500238515E+02 -0.60905927060E+02  0.21577480447E+03  0.82511461625E+02 0.  0.
         24    2    4    4    0    0  0.64382433352E+03 -0.55647629240E+03  0.81670824372E+03  0.11815266111E+04  0.69405626935E+02 0.  0.
         13    1    3    3    0    0 -0.71853010184E+03  0.45906192399E+03 -0.40173082573E+03  0.94255557590E+03  0.00000000000E+00 0. -1.
        -14    1    3    3    0    0 -0.11450531909E+03  0.11291460692E+03 -0.65429618558E+02  0.17361512475E+03  0.00000000000E+00 0.  1.
         15    1    5    5    0    0  0.17139926504E+03  0.80965332902E+01 -0.32254229707E+02  0.17460456744E+03  0.17770000000E+01 0. -1.
        -16    1    5    5    0    0  0.17811822369E+02 -0.23596771805E+02 -0.28651697353E+02  0.41170237028E+02  0.00000000000E+00 0.  1.
          4    1    6    6  502    0  0.27889984820E+03 -0.19952928175E+03  0.34632021809E+03  0.48737537182E+03  0.00000000000E+00 0. -1.
         -3    1    6    6    0  502  0.36492448532E+03 -0.35694701065E+03  0.47038802563E+03  0.69415123932E+03  0.00000000000E+00 0.  1.
<mgrwt>
<rscale>  0 0.10340153E+04</rscale>
<asrwt>0</asrwt>
<pdfrwt beam="1">  1        1 0.21554723E+00 0.10340153E+04</pdfrwt>
<pdfrwt beam="2">  1       -2 0.17114079E+00 0.10340153E+04</pdfrwt>
<totfact> 0.13976283E+00</totfact>
</mgrwt>
</event>
<event>
12    3  0.1182097E-007  0.8227058E+03  0.7818608E-02  0.9527721E-01
         -2   -1    0    0    0  501 -0.00000000000E+00  0.00000000000E+00  0.54497454066E+03  0.54497454066E+03  0.00000000000E+00 0.  1.
          1   -1    0    0  501    0  0.00000000000E+00 -0.00000000000E+00 -0.14632617948E+04  0.14632617948E+04  0.00000000000E+00 0. -1.
        -24    2    1    2    0    0 -0.69643319679E+03 -0.34765016278E+03 -0.25695846628E+03  0.82362275153E+03  0.80292902366E+02 0.  0.
    5000000    2    1    2    0    0  0.69643319679E+03  0.34765016278E+03 -0.66132878782E+03  0.11846135839E+04  0.60006145042E+03 0.  0.
        -24    2    4    4    0    0 -0.15430432125E+02  0.88677418824E+02  0.61076490442E+02  0.13477531841E+03  0.79575535951E+02 0.  0.
         24    2    4    4    0    0  0.71186362892E+03  0.25897274395E+03 -0.72240527827E+03  0.10498382655E+04  0.80462968735E+02 0.  0.
         11    1    3    3    0    0 -0.32057491126E+03 -0.14293609101E+03 -0.77046315997E+02  0.35935377366E+03  0.00000000000E+00 0. -1.
        -12    1    3    3    0    0 -0.37585828554E+03 -0.20471407177E+03 -0.17991215028E+03  0.46426897786E+03  0.00000000000E+00 0.  1.
         15    1    5    5    0    0 -0.37222648836E+02  0.36624012027E+02  0.86957768822E+00  0.52256652568E+02  0.17770000000E+01 0. -1.
        -16    1    5    5    0    0  0.21792216711E+02  0.52053406797E+02  0.60206912753E+02  0.82518665838E+02  0.00000000000E+00 0.  1.
          4    1    6    6  502    0  0.37952079455E+03  0.14807950803E+03 -0.44184937799E+03  0.60099454825E+03  0.00000000000E+00 0. -1.
         -3    1    6    6    0  502  0.33234283437E+03  0.11089323593E+03 -0.28055590028E+03  0.44884371724E+03  0.00000000000E+00 0.  1.
<mgrwt>
<rscale>  0 0.82270582E+03</rscale>
<asrwt>0</asrwt>
<pdfrwt beam="1">  1        1 0.22511720E+00 0.82270582E+03</pdfrwt>
<pdfrwt beam="2">  1       -2 0.83842237E-01 0.82270582E+03</pdfrwt>
<totfact> 0.77348243E+00</totfact>
</mgrwt>
</event>
<event>
12    3  0.1182097E-007  0.4972740E+03  0.7818608E-02  0.1014493E+00
          1   -1    0    0  501    0  0.00000000000E+00  0.00000000000E+00  0.16402646889E+04  0.16402646889E+04  0.00000000000E+00 0. -1.
         -2   -1    0    0    0  501 -0.00000000000E+00 -0.00000000000E+00 -0.18072935341E+03  0.18072935341E+03  0.00000000000E+00 0.  1.
        -24    2    1    2    0    0  0.14946472170E+03  0.33076799917E+03  0.66059566837E+03  0.75799989583E+03  0.80187484709E+02 0.  0.
    5000000    2    1    2    0    0 -0.14946472170E+03 -0.33076799917E+03  0.79893966713E+03  0.10629941465E+04  0.59992065431E+03 0.  0.
        -24    2    4    4    0    0 -0.32747938373E+03 -0.25960133249E+03  0.29413862263E+03  0.51752593966E+03  0.81731085291E+02 0.  0.
         24    2    4    4    0    0  0.17801466203E+03 -0.71166666680E+02  0.50480104450E+03  0.54546820683E+03  0.77185204523E+02 0.  0.
         11    1    3    3    0    0  0.48009552270E+02  0.20013544755E+03  0.34650388819E+03  0.40301868320E+03  0.00000000000E+00 0. -1.
        -12    1    3    3    0    0  0.10145516943E+03  0.13063255162E+03  0.31409178018E+03  0.35498121263E+03  0.00000000000E+00 0.  1.
         15    1    5    5    0    0 -0.19487079203E+03 -0.10612473032E+03  0.17203910038E+03  0.28078050816E+03  0.17770000000E+01 0. -1.
        -16    1    5    5    0    0 -0.13260859169E+03 -0.15347660217E+03  0.12209952226E+03  0.23674543151E+03  0.00000000000E+00 0.  1.
          2    1    6    6  502    0  0.12058223609E+03 -0.73327029258E+02  0.41957733170E+03  0.44267602844E+03  0.00000000000E+00 0. -1.
         -1    1    6    6    0  502  0.57432425938E+02  0.21603625782E+01  0.85223712797E+02  0.10279217839E+03  0.00000000000E+00 0.  1.
<mgrwt>
<rscale>  0 0.49727397E+03</rscale>
<asrwt>0</asrwt>
<pdfrwt beam="1">  1        1 0.25234840E+00 0.49727397E+03</pdfrwt>
<pdfrwt beam="2">  1       -2 0.27804517E-01 0.49727397E+03</pdfrwt>
<totfact> 0.57528388E+01</totfact>
</mgrwt>
</event>
<event>
12    3  0.1182097E-007  0.7649360E+03  0.7818608E-02  0.9612205E-01
         -2   -1    0    0    0  501 -0.00000000000E+00  0.00000000000E+00  0.21246667500E+03  0.21246667500E+03  0.00000000000E+00 0.  1.
          1   -1    0    0  501    0  0.00000000000E+00 -0.00000000000E+00 -0.28254999273E+04  0.28254999273E+04  0.00000000000E+00 0. -1.
        -24    2    1    2    0    0  0.28816645704E+03 -0.57797435256E+03 -0.88850628698E+03  0.11011699808E+04  0.77702287457E+02 0.  0.
    5000000    2    1    2    0    0 -0.28816645704E+03  0.57797435256E+03 -0.17245269653E+04  0.19367966215E+04  0.60007802798E+03 0.  0.
        -24    2    4    4    0    0  0.18895424363E+02  0.55846169420E+03 -0.11262667945E+04  0.12598037212E+04  0.79950126035E+02 0.  0.
         24    2    4    4    0    0 -0.30706188140E+03  0.19512658359E+02 -0.59826017082E+03  0.67699290026E+03  0.75739105907E+02 0.  0.
         13    1    3    3    0    0  0.14410111121E+03 -0.37360882333E+03 -0.54398015574E+03  0.67547249608E+03  0.00000000000E+00 0. -1.
        -14    1    3    3    0    0  0.14406534583E+03 -0.20436552923E+03 -0.34452613124E+03  0.42569748474E+03  0.00000000000E+00 0.  1.
         15    1    5    5    0    0 -0.24967751275E+02  0.28361404587E+03 -0.61429363543E+03  0.67706731118E+03  0.17770000000E+01 0. -1.
        -16    1    5    5    0    0  0.43863175638E+02  0.27484764833E+03 -0.51197315909E+03  0.58273641005E+03  0.00000000000E+00 0.  1.
          2    1    6    6  502    0 -0.69589219198E+02  0.35924326650E+02 -0.13197418492E+03  0.15346140284E+03  0.00000000000E+00 0. -1.
         -3    1    6    6    0  502 -0.23747266220E+03 -0.16411668291E+02 -0.46628598590E+03  0.52353149743E+03  0.00000000000E+00 0.  1.
<mgrwt>
<rscale>  0 0.76493597E+03</rscale>
<asrwt>0</asrwt>
<pdfrwt beam="1">  1        1 0.43469230E+00 0.76493597E+03</pdfrwt>
<pdfrwt beam="2">  1       -2 0.32687181E-01 0.76493597E+03</pdfrwt>
<totfact> 0.64727894E+00</totfact>
</mgrwt>
</event>
<event>
12    3  0.1182097E-007  0.9761062E+03  0.7818608E-02  0.9335146E-01
          1   -1    0    0  501    0  0.00000000000E+00  0.00000000000E+00  0.16109406210E+04  0.16109406210E+04  0.00000000000E+00 0. -1.
         -2   -1    0    0    0  501 -0.00000000000E+00 -0.00000000000E+00 -0.61156783226E+03  0.61156783226E+03  0.00000000000E+00 0.  1.
        -24    2    1    2    0    0  0.66796380226E+03 -0.59555621441E+03  0.34740370264E+03  0.96321304498E+03  0.78912557625E+02 0.  0.
    5000000    2    1    2    0    0 -0.66796380226E+03  0.59555621441E+03  0.65196908608E+03  0.12592954083E+04  0.59991531938E+03 0.  0.
        -24    2    4    4    0    0 -0.28825171495E+03 -0.53077519827E+02  0.87915707820E+02  0.31608698291E+03  0.79218273150E+02 0.  0.
         24    2    4    4    0    0 -0.37971208731E+03  0.64863373424E+03  0.56405337826E+03  0.94320842535E+03  0.81110601601E+02 0.  0.
         11    1    3    3    0    0  0.57333473850E+03 -0.47126757028E+03  0.28560481614E+03  0.79522069652E+03  0.00000000000E+00 0. -1.
        -12    1    3    3    0    0  0.94629063764E+02 -0.12428864413E+03  0.61798886504E+02  0.16799234846E+03  0.00000000000E+00 0.  1.
         15    1    5    5    0    0 -0.26725839783E+03 -0.28736420057E+02  0.91012937807E+02  0.28379454826E+03  0.17770000000E+01 0. -1.
        -16    1    5    5    0    0 -0.20993317127E+02 -0.24341099771E+02 -0.30972299869E+01  0.32292434650E+02  0.00000000000E+00 0.  1.
          4    1    6    6  502    0 -0.27002887636E+03  0.42013850361E+03  0.33321623712E+03  0.60038738908E+03  0.00000000000E+00 0. -1.
         -3    1    6    6    0  502 -0.10968321095E+03  0.22849523063E+03  0.23083714114E+03  0.34282103627E+03  0.00000000000E+00 0.  1.
<mgrwt>
<rscale>  0 0.97610619E+03</rscale>
<asrwt>0</asrwt>
<pdfrwt beam="1">  1        1 0.24783702E+00 0.97610619E+03</pdfrwt>
<pdfrwt beam="2">  1       -2 0.94087359E-01 0.97610619E+03</pdfrwt>
<totfact> 0.46103387E+00</totfact>
</mgrwt>
</event>
<event>
12    3  0.1182097E-007  0.1828882E+04  0.7818608E-02  0.8691090E-01
          1   -1    0    0  501    0  0.00000000000E+00  0.00000000000E+00  0.25265161161E+04  0.25265161161E+04  0.00000000000E+00 0. -1.
         -2   -1    0    0    0  501 -0.00000000000E+00 -0.00000000000E+00 -0.15988471103E+04  0.15988471103E+04  0.00000000000E+00 0.  1.
        -24    2    1    2    0    0  0.17686488167E+04 -0.21044619505E+03 -0.39611153522E+03  0.18264874294E+04  0.82132474875E+02 0.  0.
    5000000    2    1    2    0    0 -0.17686488167E+04  0.21044619505E+03  0.13237805410E+04  0.22988757970E+04  0.60002397550E+03 0.  0.
        -24    2    4    4    0    0 -0.40631724536E+03  0.29640459704E+03  0.41293439518E+03  0.65592089310E+03  0.82267941816E+02 0.  0.
         24    2    4    4    0    0 -0.13623315714E+04 -0.85958401996E+02  0.91084614583E+03  0.16429549039E+04  0.79523314509E+02 0.  0.
         11    1    3    3    0    0  0.29383840931E+03 -0.38860049547E+02 -0.97301589918E+02  0.31195947435E+03  0.00000000000E+00 0. -1.
        -12    1    3    3    0    0  0.14748104074E+04 -0.17158614550E+03 -0.29880994530E+03  0.15145279550E+04  0.00000000000E+00 0.  1.
         15    1    5    5    0    0 -0.38914342804E+03  0.30074141078E+03  0.39615044434E+03  0.63151907020E+03  0.17770000000E+01 0. -1.
        -16    1    5    5    0    0 -0.17173817322E+02 -0.43368137411E+01  0.16783950839E+02  0.24401822895E+02  0.00000000000E+00 0.  1.
          4    1    6    6  502    0 -0.13222720590E+04 -0.96092789067E+02  0.88878752508E+03  0.15961141835E+04  0.00000000000E+00 0. -1.
         -3    1    6    6    0  502 -0.40059512394E+02  0.10134387071E+02  0.22058620750E+02  0.46840720361E+02  0.00000000000E+00 0.  1.
<mgrwt>
<rscale>  0 0.18288815E+04</rscale>
<asrwt>0</asrwt>
<pdfrwt beam="1">  1        1 0.38869479E+00 0.18288815E+04</pdfrwt>
<pdfrwt beam="2">  1       -2 0.24597648E+00 0.18288815E+04</pdfrwt>
<totfact> 0.70144381E-02</totfact>
</mgrwt>
</event>
<event>
12    3  0.1182097E-007  0.6616394E+03  0.7818608E-02  0.9785180E-01
         -2   -1    0    0    0  501 -0.00000000000E+00  0.00000000000E+00  0.91593524850E+03  0.91593524850E+03  0.00000000000E+00 0.  1.
          1   -1    0    0  501    0  0.00000000000E+00 -0.00000000000E+00 -0.74857678273E+03  0.74857678273E+03  0.00000000000E+00 0. -1.
        -24    2    1    2    0    0 -0.28936582593E+02  0.61630597171E+03 -0.29395068257E+03  0.68810227201E+03  0.80045964199E+02 0.  0.
    5000000    2    1    2    0    0  0.28936582593E+02 -0.61630597171E+03  0.46130914834E+03  0.97640975921E+03  0.59991625328E+03 0.  0.
        -24    2    4    4    0    0  0.17112568224E+03 -0.27009200907E+03  0.49246942793E+03  0.59258563137E+03  0.79986877496E+02 0.  0.
         24    2    4    4    0    0 -0.14218909965E+03 -0.34621396264E+03 -0.31160279589E+02  0.38382412784E+03  0.79171649600E+02 0.  0.
         13    1    3    3    0    0 -0.55915581814E+02  0.44826912547E+03 -0.20523555417E+03  0.49617879221E+03  0.00000000000E+00 0. -1.
        -14    1    3    3    0    0  0.26978999222E+02  0.16803684624E+03 -0.88715128398E+02  0.19192347981E+03  0.00000000000E+00 0.  1.
         15    1    5    5    0    0  0.43919629134E+02 -0.10053623997E+03  0.11038107345E+03  0.15563935388E+03  0.17770000000E+01 0. -1.
        -16    1    5    5    0    0  0.12720605311E+03 -0.16955576910E+03  0.38208835448E+03  0.43694627749E+03  0.00000000000E+00 0.  1.
          2    1    6    6  502    0 -0.44646348253E+02 -0.19244502391E+03  0.73762844359E+01  0.19769368531E+03  0.00000000000E+00 0. -1.
         -1    1    6    6    0  502 -0.97542751395E+02 -0.15376893873E+03 -0.38536564025E+02  0.18613044253E+03  0.00000000000E+00 0.  1.
<mgrwt>
<rscale>  0 0.66163941E+03</rscale>
<asrwt>0</asrwt>
<pdfrwt beam="1">  1        1 0.11516566E+00 0.66163941E+03</pdfrwt>
<pdfrwt beam="2">  1       -2 0.14091312E+00 0.66163941E+03</pdfrwt>
<totfact> 0.78511884E+00</totfact>
</mgrwt>
</event>
<event>
12    3  0.1182097E-007  0.6228891E+03  0.7818608E-02  0.9859024E-01
          1   -1    0    0  501    0  0.00000000000E+00  0.00000000000E+00  0.71844474905E+03  0.71844474905E+03  0.00000000000E+00 0. -1.
         -2   -1    0    0    0  501 -0.00000000000E+00 -0.00000000000E+00 -0.56199133416E+03  0.56199133416E+03  0.00000000000E+00 0.  1.
        -24    2    1    2    0    0  0.31774137923E+03  0.36651115373E+03  0.12814160454E+03  0.50839272125E+03  0.82175898675E+02 0.  0.
    5000000    2    1    2    0    0 -0.31774137923E+03 -0.36651115373E+03  0.28311810350E+02  0.77204336196E+03  0.59996615259E+03 0.  0.
        -24    2    4    4    0    0  0.13554017988E+03 -0.23771328929E+03 -0.46537917562E+02  0.28881457806E+03  0.79808110264E+02 0.  0.
         24    2    4    4    0    0 -0.45328155911E+03 -0.12879786445E+03  0.74849727912E+02  0.48322878390E+03  0.76514796610E+02 0.  0.
         13    1    3    3    0    0  0.20603746870E+03  0.17909912443E+03  0.56763536572E+02  0.27883693078E+03  0.00000000000E+00 0. -1.
        -14    1    3    3    0    0  0.11170391053E+03  0.18741202930E+03  0.71378067970E+02  0.22955579048E+03  0.00000000000E+00 0.  1.
         15    1    5    5    0    0 -0.70396982532E+01 -0.28289657582E+02  0.66163513913E+01  0.29946550926E+02  0.17770000000E+01 0. -1.
        -16    1    5    5    0    0  0.14257987813E+03 -0.20942363170E+03 -0.53154268953E+02  0.25886802713E+03  0.00000000000E+00 0.  1.
          4    1    6    6  502    0 -0.14843512886E+03 -0.28691723339E+02  0.57993061137E+02  0.16192404889E+03  0.00000000000E+00 0. -1.
         -3    1    6    6    0  502 -0.30484643025E+03 -0.10010614111E+03  0.16856666775E+02  0.32130473501E+03  0.00000000000E+00 0.  1.
<mgrwt>
<rscale>  0 0.62288909E+03</rscale>
<asrwt>0</asrwt>
<pdfrwt beam="1">  1        1 0.11052996E+00 0.62288909E+03</pdfrwt>
<pdfrwt beam="2">  1       -2 0.86460205E-01 0.62288909E+03</pdfrwt>
<totfact> 0.27440783E+01</totfact>
</mgrwt>
</event>
<event>
12    3  0.1182097E-007  0.4965534E+03  0.7818608E-02  0.1014682E+00
         -2   -1    0    0    0  501 -0.00000000000E+00  0.00000000000E+00  0.24828658973E+03  0.24828658973E+03  0.00000000000E+00 0.  1.
          1   -1    0    0  501    0  0.00000000000E+00 -0.00000000000E+00 -0.10419188783E+04  0.10419188783E+04  0.00000000000E+00 0. -1.
        -24    2    1    2    0    0 -0.25739580327E+03  0.19494691455E+03 -0.31051234193E+03  0.45483895593E+03  0.78763330996E+02 0.  0.
    5000000    2    1    2    0    0  0.25739580327E+03 -0.19494691455E+03 -0.48311994663E+03  0.83536651209E+03  0.60014617192E+03 0.  0.
        -24    2    4    4    0    0  0.15281477636E+03 -0.39037518837E+03 -0.21318740263E+03  0.47693780551E+03  0.79219051473E+02 0.  0.
         24    2    4    4    0    0  0.10458102691E+03  0.19542827382E+03 -0.26993254400E+03  0.35842870659E+03  0.80487005138E+02 0.  0.
         11    1    3    3    0    0 -0.11032863682E+03  0.12882988565E+03 -0.18068355609E+03  0.24782270877E+03  0.00000000000E+00 0. -1.
        -12    1    3    3    0    0 -0.14706716645E+03  0.66117028895E+02 -0.12982878585E+03  0.20701624716E+03  0.00000000000E+00 0.  1.
         15    1    5    5    0    0  0.39960341849E+01 -0.10092532885E+03 -0.45110890631E+02  0.11063471641E+03  0.17770000000E+01 0. -1.
        -16    1    5    5    0    0  0.14881874217E+03 -0.28944985952E+03 -0.16807651199E+03  0.36630308909E+03  0.00000000000E+00 0.  1.
          2    1    6    6  502    0  0.22674280822E+02  0.12706189753E+03 -0.14396282554E+03  0.19334979687E+03  0.00000000000E+00 0. -1.
         -1    1    6    6    0  502  0.81906746090E+02  0.68366376292E+02 -0.12596971847E+03  0.16507890971E+03  0.00000000000E+00 0.  1.
<mgrwt>
<rscale>  0 0.49655336E+03</rscale>
<asrwt>0</asrwt>
<pdfrwt beam="1">  1        1 0.16029522E+00 0.49655336E+03</pdfrwt>
<pdfrwt beam="2">  1       -2 0.38197936E-01 0.49655336E+03</pdfrwt>
<totfact> 0.83194783E+01</totfact>
</mgrwt>
</event>
<event>
12    3  0.1182097E-007  0.6433124E+03  0.7818608E-02  0.9819409E-01
          1   -1    0    0  501    0  0.00000000000E+00  0.00000000000E+00  0.25404439713E+04  0.25404439713E+04  0.00000000000E+00 0. -1.
         -2   -1    0    0    0  501 -0.00000000000E+00 -0.00000000000E+00 -0.24305112331E+03  0.24305112331E+03  0.00000000000E+00 0.  1.
        -24    2    1    2    0    0  0.14975486549E+03 -0.48871787076E+03  0.22042811127E+03  0.56195874743E+03  0.77054556257E+02 0.  0.
    5000000    2    1    2    0    0 -0.14975486549E+03  0.48871787076E+03  0.20769647367E+04  0.22215363472E+04  0.60014127284E+03 0.  0.
        -24    2    4    4    0    0  0.19910151678E+03  0.48158449606E+02  0.62725204391E+03  0.66463497735E+03  0.79585653768E+02 0.  0.
         24    2    4    4    0    0 -0.34885638227E+03  0.44055942115E+03  0.14497126928E+04  0.15569013699E+04  0.80508413699E+02 0.  0.
         11    1    3    3    0    0  0.90431279745E+02 -0.23650766808E+03  0.14646093927E+03  0.29251410248E+03  0.00000000000E+00 0. -1.
        -12    1    3    3    0    0  0.59323585749E+02 -0.25221020268E+03  0.73967172007E+02  0.26944464496E+03  0.00000000000E+00 0.  1.
         15    1    5    5    0    0  0.79556910416E+02  0.33397166035E+01  0.14139903599E+03  0.16228770997E+03  0.17770000000E+01 0. -1.
        -16    1    5    5    0    0  0.11954460636E+03  0.44818733002E+02  0.48585300792E+03  0.50234726738E+03  0.00000000000E+00 0.  1.
          2    1    6    6  502    0 -0.62045581675E+02  0.13131299450E+03  0.33880269757E+03  0.36861907792E+03  0.00000000000E+00 0. -1.
         -1    1    6    6    0  502 -0.28681080059E+03  0.30924642665E+03  0.11109099953E+04  0.11882822919E+04  0.00000000000E+00 0.  1.
<mgrwt>
<rscale>  0 0.64331242E+03</rscale>
<asrwt>0</asrwt>
<pdfrwt beam="1">  1        1 0.39083752E+00 0.64331242E+03</pdfrwt>
<pdfrwt beam="2">  1       -2 0.37392482E-01 0.64331242E+03</pdfrwt>
<totfact> 0.80674112E+00</totfact>
</mgrwt>
</event>
<event>
12    3  0.1182097E-007  0.1055066E+04  0.7818608E-02  0.9250129E-01
         -2   -1    0    0    0  501 -0.00000000000E+00  0.00000000000E+00  0.61677262343E+03  0.61677262343E+03  0.00000000000E+00 0.  1.
          1   -1    0    0  501    0  0.00000000000E+00 -0.00000000000E+00 -0.20499619822E+04  0.20499619822E+04  0.00000000000E+00 0. -1.
        -24    2    1    2    0    0  0.10361922655E+04  0.99351242638E+02 -0.59198511318E+03  0.12000350286E+04  0.77926985619E+02 0.  0.
    5000000    2    1    2    0    0 -0.10361922655E+04 -0.99351242638E+02 -0.84120424556E+03  0.14666995771E+04  0.60001498825E+03 0.  0.
        -24    2    4    4    0    0 -0.17928987426E+03 -0.10465391529E+03 -0.48799553033E+03  0.53629318241E+03  0.79833820423E+02 0.  0.
         24    2    4    4    0    0 -0.85690239122E+03  0.53026726548E+01 -0.35320871523E+03  0.93040639464E+03  0.81177806414E+02 0.  0.
         11    1    3    3    0    0  0.48485219717E+03  0.66953728929E+02 -0.31629770157E+03  0.58275954813E+03  0.00000000000E+00 0. -1.
        -12    1    3    3    0    0  0.55134006831E+03  0.32397513709E+02 -0.27568741161E+03  0.61727548043E+03  0.00000000000E+00 0.  1.
         15    1    5    5    0    0 -0.15402827595E+03 -0.88548487593E+02 -0.32340180410E+03  0.36899516131E+03  0.17770000000E+01 0. -1.
        -16    1    5    5    0    0 -0.25261598311E+02 -0.16105427700E+02 -0.16459372623E+03  0.16729802110E+03  0.00000000000E+00 0.  1.
          4    1    6    6  502    0 -0.56965245473E+03 -0.34811948318E+02 -0.23529381294E+03  0.61731593964E+03  0.00000000000E+00 0. -1.
         -3    1    6    6    0  502 -0.28724993649E+03  0.40114620973E+02 -0.11791490229E+03  0.31309045500E+03  0.00000000000E+00 0.  1.
<mgrwt>
<rscale>  0 0.10550658E+04</rscale>
<asrwt>0</asrwt>
<pdfrwt beam="1">  1        1 0.31537877E+00 0.10550658E+04</pdfrwt>
<pdfrwt beam="2">  1       -2 0.94888095E-01 0.10550658E+04</pdfrwt>
<totfact> 0.22607919E+00</totfact>
</mgrwt>
</event>
<event>
12    3  0.1182097E-007  0.6500617E+03  0.7818608E-02  0.9806663E-01
          1   -1    0    0  501    0  0.00000000000E+00  0.00000000000E+00  0.28957090255E+03  0.28957090255E+03  0.00000000000E+00 0. -1.
         -2   -1    0    0    0  501 -0.00000000000E+00 -0.00000000000E+00 -0.16926928014E+04  0.16926928014E+04  0.00000000000E+00 0.  1.
        -24    2    1    2    0    0  0.49384064238E+03  0.13133458389E+03 -0.22662465471E+03  0.56593645931E+03  0.88306222116E+02 0.  0.
    5000000    2    1    2    0    0 -0.49384064238E+03 -0.13133458389E+03 -0.11764972441E+04  0.14163272446E+04  0.60059116330E+03 0.  0.
        -24    2    4    4    0    0 -0.59567410133E+03  0.70344210670E+01 -0.87710820508E+03  0.10633422594E+04  0.80627781372E+02 0.  0.
         24    2    4    4    0    0  0.10183345895E+03 -0.13836900496E+03 -0.29938903902E+03  0.35298498520E+03  0.73814417289E+02 0.  0.
         13    1    3    3    0    0  0.42239845534E+03  0.84919336979E+02 -0.20929864992E+03  0.47899652788E+03  0.00000000000E+00 0. -1.
        -14    1    3    3    0    0  0.71442187039E+02  0.46415246911E+02 -0.17326004793E+02  0.86939931429E+02  0.00000000000E+00 0.  1.
         15    1    5    5    0    0 -0.35791285243E+03  0.30815302567E+02 -0.47426476291E+03  0.59496337356E+03  0.17770000000E+01 0. -1.
        -16    1    5    5    0    0 -0.23776124890E+03 -0.23780881500E+02 -0.40284344217E+03  0.46837888584E+03  0.00000000000E+00 0.  1.
          2    1    6    6  502    0  0.81156989512E+02 -0.50424924015E+02 -0.13473026078E+03  0.16517073917E+03  0.00000000000E+00 0. -1.
         -1    1    6    6    0  502  0.20676469435E+02 -0.87944080942E+02 -0.16465877824E+03  0.18781424603E+03  0.00000000000E+00 0.  1.
<mgrwt>
<rscale>  0 0.65006173E+03</rscale>
<asrwt>0</asrwt>
<pdfrwt beam="1">  1        1 0.44549371E-01 0.65006173E+03</pdfrwt>
<pdfrwt beam="2">  1       -2 0.26041427E+00 0.65006173E+03</pdfrwt>
<totfact> 0.46627724E+00</totfact>
</mgrwt>
</event>
<event>
12    3  0.1182097E-007  0.6662410E+03  0.7818608E-02  0.9776772E-01
          1   -1    0    0  501    0  0.00000000000E+00  0.00000000000E+00  0.38828985965E+04  0.38828985965E+04  0.00000000000E+00 0. -1.
         -2   -1    0    0    0  501 -0.00000000000E+00 -0.00000000000E+00 -0.13205020961E+03  0.13205020961E+03  0.00000000000E+00 0.  1.
        -24    2    1    2    0    0  0.46601585548E+03  0.32209796713E+03  0.19936993114E+04  0.20737464082E+04  0.68332592617E+02 0.  0.
    5000000    2    1    2    0    0 -0.46601585548E+03 -0.32209796713E+03  0.17571490756E+04  0.19412023980E+04  0.59981330283E+03 0.  0.
        -24    2    4    4    0    0 -0.31491502527E+03 -0.45123570704E+03  0.15268831997E+04  0.16260704757E+04  0.99738408406E+02 0.  0.
         24    2    4    4    0    0 -0.15110083021E+03  0.12913773990E+03  0.23026587589E+03  0.31513192228E+03  0.82327019156E+02 0.  0.
         11    1    3    3    0    0  0.32634401058E+03  0.22076451635E+03  0.14945070565E+04  0.15455706800E+04  0.00000000000E+00 0. -1.
        -12    1    3    3    0    0  0.13967184490E+03  0.10133345078E+03  0.49919225486E+03  0.52817572816E+03  0.00000000000E+00 0.  1.
         15    1    5    5    0    0 -0.31405266510E+03 -0.45142383007E+03  0.14749937546E+04  0.15741735244E+04  0.17770000000E+01 0. -1.
        -16    1    5    5    0    0 -0.86236016988E+00  0.18812303178E+00  0.51889445038E+02  0.51896951372E+02  0.00000000000E+00 0.  1.
          4    1    6    6  502    0 -0.16111218527E+03  0.11567440592E+03  0.21360386245E+03  0.29148638815E+03  0.00000000000E+00 0. -1.
         -3    1    6    6    0  502  0.10011355061E+02  0.13463333982E+02  0.16662013443E+02  0.23645534125E+02  0.00000000000E+00 0.  1.
<mgrwt>
<rscale>  0 0.66624099E+03</rscale>
<asrwt>0</asrwt>
<pdfrwt beam="1">  1        1 0.59736893E+00 0.66624099E+03</pdfrwt>
<pdfrwt beam="2">  1       -2 0.20315420E-01 0.66624099E+03</pdfrwt>
<totfact> 0.24642138E+00</totfact>
</mgrwt>
</event>
<event>
12    3  0.1182097E-007  0.5764419E+03  0.7818608E-02  0.9955524E-01
          1   -1    0    0  501    0  0.00000000000E+00  0.00000000000E+00  0.91856668204E+03  0.91856668204E+03  0.00000000000E+00 0. -1.
         -2   -1    0    0    0  501 -0.00000000000E+00 -0.00000000000E+00 -0.98413652720E+03  0.98413652720E+03  0.00000000000E+00 0.  1.
        -24    2    1    2    0    0  0.35086915424E+03 -0.29167789855E+03  0.69280243162E+03  0.83344178599E+03  0.80404237965E+02 0.  0.
    5000000    2    1    2    0    0 -0.35086915424E+03  0.29167789855E+03 -0.75837227677E+03  0.10692614232E+04  0.60000526762E+03 0.  0.
        -24    2    4    4    0    0 -0.46732568617E+03  0.29718111264E+03 -0.41009734535E+03  0.69376593755E+03  0.80133842896E+02 0.  0.
         24    2    4    4    0    0  0.11645653194E+03 -0.55032140898E+01 -0.34827493142E+03  0.37549548570E+03  0.78160237498E+02 0.  0.
         11    1    3    3    0    0  0.13217506104E+03 -0.14419350550E+03  0.34935907542E+03  0.40039202960E+03  0.00000000000E+00 0. -1.
        -12    1    3    3    0    0  0.21869409320E+03 -0.14748439305E+03  0.34344335620E+03  0.43304975639E+03  0.00000000000E+00 0.  1.
         15    1    5    5    0    0 -0.33019179554E+03  0.24121769029E+03 -0.32943396830E+03  0.52511188631E+03  0.17770000000E+01 0. -1.
        -16    1    5    5    0    0 -0.13713389064E+03  0.55963422347E+02 -0.80663377051E+02  0.16865405124E+03  0.00000000000E+00 0.  1.
          4    1    6    6  502    0  0.85998877926E+02  0.28704963665E+02 -0.26987333875E+03  0.28469527729E+03  0.00000000000E+00 0. -1.
         -3    1    6    6    0  502  0.30457654010E+02 -0.34208177755E+02 -0.78401592673E+02  0.90800208407E+02  0.00000000000E+00 0.  1.
<mgrwt>
<rscale>  0 0.57644193E+03</rscale>
<asrwt>0</asrwt>
<pdfrwt beam="1">  1        1 0.14131795E+00 0.57644193E+03</pdfrwt>
<pdfrwt beam="2">  1       -2 0.15140562E+00 0.57644193E+03</pdfrwt>
<totfact> 0.47375525E+00</totfact>
</mgrwt>
</event>
<event>
12    3  0.1182097E-007  0.1094338E+04  0.7818608E-02  0.9210728E-01
         -2   -1    0    0    0  501 -0.00000000000E+00  0.00000000000E+00  0.86469200317E+03  0.86469200317E+03  0.00000000000E+00 0.  1.
          1   -1    0    0  501    0  0.00000000000E+00 -0.00000000000E+00 -0.14288935293E+04  0.14288935293E+04  0.00000000000E+00 0. -1.
        -24    2    1    2    0    0 -0.47799732670E+03 -0.89881186627E+03 -0.41683273155E+03  0.11027906733E+04  0.77804420250E+02 0.  0.
    5000000    2    1    2    0    0  0.47799732670E+03  0.89881186627E+03 -0.14736879456E+03  0.11907948591E+04  0.59994218022E+03 0.  0.
        -24    2    4    4    0    0 -0.38057702948E+02 -0.42159199696E+02  0.31967285571E+01  0.10421238052E+03  0.87316747007E+02 0.  0.
         24    2    4    4    0    0  0.51605502965E+03  0.94097106597E+03 -0.15056552312E+03  0.10865824786E+04  0.79070635644E+02 0.  0.
         13    1    3    3    0    0 -0.30013196573E+03 -0.57935823360E+03 -0.30641095768E+03  0.72084869056E+03  0.00000000000E+00 0. -1.
        -14    1    3    3    0    0 -0.17786536096E+03 -0.31945363267E+03 -0.11042177387E+03  0.38194198277E+03  0.00000000000E+00 0.  1.
         15    1    5    5    0    0  0.22780108114E+02 -0.17647523367E+02 -0.19462778235E+02  0.34818470275E+02  0.17770000000E+01 0. -1.
        -16    1    5    5    0    0 -0.60837811062E+02 -0.24511676329E+02  0.22659506792E+02  0.69393910247E+02  0.00000000000E+00 0.  1.
          2    1    6    6  502    0  0.40099574256E+03  0.79335996572E+03 -0.12370038374E+03  0.89750732905E+03  0.00000000000E+00 0. -1.
         -3    1    6    6    0  502  0.11505928709E+03  0.14761110025E+03 -0.26865139376E+02  0.18907514954E+03  0.00000000000E+00 0.  1.
<mgrwt>
<rscale>  0 0.10943377E+04</rscale>
<asrwt>0</asrwt>
<pdfrwt beam="1">  1        1 0.21982977E+00 0.10943377E+04</pdfrwt>
<pdfrwt beam="2">  1       -2 0.13302954E+00 0.10943377E+04</pdfrwt>
<totfact> 0.26023681E+00</totfact>
</mgrwt>
</event>
<event>
12    3  0.1182097E-007  0.6130449E+03  0.7818608E-02  0.9878706E-01
         -2   -1    0    0    0  501 -0.00000000000E+00  0.00000000000E+00  0.60938272659E+03  0.60938272659E+03  0.00000000000E+00 0.  1.
          1   -1    0    0  501    0  0.00000000000E+00 -0.00000000000E+00 -0.83302556370E+03  0.83302556370E+03  0.00000000000E+00 0. -1.
        -24    2    1    2    0    0 -0.56302334692E+03  0.14261511315E+03 -0.44172804821E+02  0.58813075386E+03  0.81315356948E+02 0.  0.
    5000000    2    1    2    0    0  0.56302334692E+03 -0.14261511315E+03 -0.17947003230E+03  0.85427753643E+03  0.60020517915E+03 0.  0.
        -24    2    4    4    0    0  0.32414258168E+03  0.52479580986E+02  0.17306841378E+03  0.38015509317E+03  0.82113941177E+02 0.  0.
         24    2    4    4    0    0  0.23888076524E+03 -0.19509469414E+03 -0.35253844607E+03  0.47412244326E+03  0.73367401227E+02 0.  0.
         13    1    3    3    0    0 -0.23432999892E+03  0.66746822119E+02  0.21011288108E+02  0.24455502630E+03  0.00000000000E+00 0. -1.
        -14    1    3    3    0    0 -0.32869334800E+03  0.75868291031E+02 -0.65184092929E+02  0.34357572757E+03  0.00000000000E+00 0.  1.
         15    1    5    5    0    0  0.17737137942E+03  0.36448529398E+02  0.49778857333E+02  0.18780360460E+03  0.17770000000E+01 0. -1.
        -16    1    5    5    0    0  0.14677120226E+03  0.16031051588E+02  0.12328955644E+03  0.19235148857E+03  0.00000000000E+00 0.  1.
          2    1    6    6  502    0  0.16085364044E+03 -0.86451708181E+02 -0.21846055942E+03  0.28473287045E+03  0.00000000000E+00 0. -1.
         -1    1    6    6    0  502  0.78027124799E+02 -0.10864298595E+03 -0.13407788665E+03  0.18938957281E+03  0.00000000000E+00 0.  1.
<mgrwt>
<rscale>  0 0.61304490E+03</rscale>
<asrwt>0</asrwt>
<pdfrwt beam="1">  1        1 0.12815778E+00 0.61304490E+03</pdfrwt>
<pdfrwt beam="2">  1       -2 0.93751189E-01 0.61304490E+03</pdfrwt>
<totfact> 0.18089682E+01</totfact>
</mgrwt>
</event>
<event>
12    3  0.1182097E-007  0.1264082E+04  0.7818608E-02  0.9058543E-01
          1   -1    0    0  501    0  0.00000000000E+00  0.00000000000E+00  0.30891076312E+04  0.30891076312E+04  0.00000000000E+00 0. -1.
         -2   -1    0    0    0  501 -0.00000000000E+00 -0.00000000000E+00 -0.87753702011E+03  0.87753702011E+03  0.00000000000E+00 0.  1.
        -24    2    1    2    0    0 -0.98247914296E+03  0.69370336202E+03 -0.18451404000E+03  0.12193733712E+04  0.79601297905E+02 0.  0.
    5000000    2    1    2    0    0  0.98247914296E+03 -0.69370336202E+03  0.23960846511E+04  0.27472712801E+04  0.59982348280E+03 0.  0.
        -24    2    4    4    0    0  0.10013553208E+04 -0.72691465507E+03  0.23196754052E+04  0.26303493258E+04  0.82013388535E+02 0.  0.
         24    2    4    4    0    0 -0.18876177887E+02  0.33211293052E+02  0.76409245872E+02  0.11692195430E+03  0.79831512979E+02 0.  0.
         11    1    3    3    0    0 -0.21014511118E+02  0.30725909760E+02 -0.16651282587E+01  0.37262096831E+02  0.00000000000E+00 0. -1.
        -12    1    3    3    0    0 -0.96146463184E+03  0.66297745226E+03 -0.18284891174E+03  0.11821112744E+04  0.00000000000E+00 0.  1.
         15    1    5    5    0    0  0.24753573883E+03 -0.15337228313E+03  0.48888564790E+03  0.56904247090E+03  0.17770000000E+01 0. -1.
        -16    1    5    5    0    0  0.75381958202E+03 -0.57354237193E+03  0.18307897573E+04  0.20613068549E+04  0.00000000000E+00 0.  1.
          2    1    6    6  502    0 -0.98970266322E+01 -0.24404873712E+02  0.90911630122E+01  0.27860334564E+02  0.00000000000E+00 0. -1.
         -1    1    6    6    0  502 -0.89791512549E+01  0.57616166765E+02  0.67318082860E+02  0.89061619735E+02  0.00000000000E+00 0.  1.
<mgrwt>
<rscale>  0 0.12640822E+04</rscale>
<asrwt>0</asrwt>
<pdfrwt beam="1">  1        1 0.47524732E+00 0.12640822E+04</pdfrwt>
<pdfrwt beam="2">  1       -2 0.13500570E+00 0.12640822E+04</pdfrwt>
<totfact> 0.17448088E-01</totfact>
</mgrwt>
</event>
<event>
12    3  0.1182097E-007  0.6660861E+03  0.7818608E-02  0.9777054E-01
         -2   -1    0    0    0  501 -0.00000000000E+00  0.00000000000E+00  0.12502443086E+04  0.12502443086E+04  0.00000000000E+00 0.  1.
          1   -1    0    0  501    0  0.00000000000E+00 -0.00000000000E+00 -0.85903493207E+03  0.85903493207E+03  0.00000000000E+00 0. -1.
        -24    2    1    2    0    0  0.23923979494E+03  0.47823977975E+03 -0.61670534943E+03  0.82012273279E+03  0.79541450855E+02 0.  0.
    5000000    2    1    2    0    0 -0.23923979494E+03 -0.47823977975E+03  0.10079147260E+04  0.12891565079E+04  0.60006952978E+03 0.  0.
        -24    2    4    4    0    0 -0.42964957326E+03 -0.29345181941E+03  0.63137922662E+03  0.82218521261E+03  0.81462076520E+02 0.  0.
         24    2    4    4    0    0  0.19040977831E+03 -0.18478796034E+03  0.37653549934E+03  0.46697129526E+03  0.76685946394E+02 0.  0.
         13    1    3    3    0    0  0.13099334200E+03  0.17749793943E+03 -0.23650351499E+03  0.32341720231E+03  0.00000000000E+00 0. -1.
        -14    1    3    3    0    0  0.10824645294E+03  0.30074184031E+03 -0.38020183444E+03  0.49670553047E+03  0.00000000000E+00 0.  1.
         15    1    5    5    0    0 -0.10637807212E+02 -0.17891297615E+02  0.51214372579E+02  0.55311220925E+02  0.17770000000E+01 0. -1.
        -16    1    5    5    0    0 -0.41901176605E+03 -0.27556052179E+03  0.58016485404E+03  0.76687399168E+03  0.00000000000E+00 0.  1.
          2    1    6    6  502    0  0.16802142554E+03 -0.13706834517E+03  0.25650895226E+03  0.33588059379E+03  0.00000000000E+00 0. -1.
         -1    1    6    6    0  502  0.22388352768E+02 -0.47719615167E+02  0.12002654707E+03  0.13109070147E+03  0.00000000000E+00 0.  1.
<mgrwt>
<rscale>  0 0.66608610E+03</rscale>
<asrwt>0</asrwt>
<pdfrwt beam="1">  1        1 0.13215922E+00 0.66608610E+03</pdfrwt>
<pdfrwt beam="2">  1       -2 0.19234528E+00 0.66608610E+03</pdfrwt>
<totfact> 0.26869307E+00</totfact>
</mgrwt>
</event>
<event>
12    3  0.1182097E-007  0.3064668E+03  0.7818608E-02  0.1082052E+00
          1   -1    0    0  501    0  0.00000000000E+00  0.00000000000E+00  0.17842586946E+04  0.17842586946E+04  0.00000000000E+00 0. -1.
         -2   -1    0    0    0  501 -0.00000000000E+00 -0.00000000000E+00 -0.13150193838E+03  0.13150193838E+03  0.00000000000E+00 0.  1.
        -24    2    1    2    0    0  0.22802962270E+03  0.17136953461E+03  0.39114872744E+03  0.48993459979E+03  0.75323030176E+02 0.  0.
    5000000    2    1    2    0    0 -0.22802962270E+03 -0.17136953461E+03  0.12616080288E+04  0.14258260332E+04  0.59996669277E+03 0.  0.
        -24    2    4    4    0    0 -0.18400096916E+03 -0.10223005543E+03  0.12890544737E+04  0.13085595724E+04  0.79745705146E+02 0.  0.
         24    2    4    4    0    0 -0.44028653542E+02 -0.69139479189E+02 -0.27446444930E+02  0.11726646078E+03  0.79242195632E+02 0.  0.
         13    1    3    3    0    0  0.35690018058E+02  0.64408583809E+02  0.78928141865E+02  0.10794394210E+03  0.00000000000E+00 0. -1.
        -14    1    3    3    0    0  0.19233960464E+03  0.10696095081E+03  0.31222058557E+03  0.38199065769E+03  0.00000000000E+00 0.  1.
         15    1    5    5    0    0 -0.30249690549E+02 -0.56440767657E+02  0.41274865015E+03  0.41769032783E+03  0.17770000000E+01 0. -1.
        -16    1    5    5    0    0 -0.15375127861E+03 -0.45789287768E+02  0.87630582358E+03  0.89086924460E+03  0.00000000000E+00 0.  1.
          4    1    6    6  502    0 -0.32651382382E+02 -0.94829402011E+01 -0.42763526525E+02  0.54632939946E+02  0.00000000000E+00 0. -1.
         -3    1    6    6    0  502 -0.11377271160E+02 -0.59656538988E+02  0.15317081595E+02  0.62633520831E+02  0.00000000000E+00 0.  1.
<mgrwt>
<rscale>  0 0.30646676E+03</rscale>
<asrwt>0</asrwt>
<pdfrwt beam="1">  1        1 0.27450132E+00 0.30646676E+03</pdfrwt>
<pdfrwt beam="2">  1       -2 0.20231069E-01 0.30646676E+03</pdfrwt>
<totfact> 0.84219123E+01</totfact>
</mgrwt>
</event>
<event>
12    3  0.1182097E-007  0.8893047E+03  0.7818608E-02  0.9439051E-01
          1   -1    0    0  501    0  0.00000000000E+00  0.00000000000E+00  0.67833771679E+03  0.67833771679E+03  0.00000000000E+00 0. -1.
         -2   -1    0    0    0  501 -0.00000000000E+00 -0.00000000000E+00 -0.17347902366E+04  0.17347902366E+04  0.00000000000E+00 0.  1.
        -24    2    1    2    0    0 -0.57874962347E+03  0.63537890618E+03 -0.10577343333E+04  0.13649465250E+04  0.74964092051E+02 0.  0.
    5000000    2    1    2    0    0  0.57874962347E+03 -0.63537890618E+03  0.12818135567E+01  0.10481814284E+04  0.60002098514E+03 0.  0.
        -24    2    4    4    0    0  0.20160381084E+03 -0.42889406528E+03 -0.25097757554E+03  0.54252459767E+03  0.82152175073E+02 0.  0.
         24    2    4    4    0    0  0.37714581263E+03 -0.20648484090E+03  0.25225938910E+03  0.50565683069E+03  0.84729437189E+02 0.  0.
         13    1    3    3    0    0 -0.30501058217E+03  0.28223257425E+03 -0.52891670604E+03  0.67263627848E+03  0.00000000000E+00 0. -1.
        -14    1    3    3    0    0 -0.27373904130E+03  0.35314633194E+03 -0.52881762728E+03  0.69231024651E+03  0.00000000000E+00 0.  1.
         15    1    5    5    0    0  0.89419012458E+01 -0.76609542180E+02 -0.21676924369E+02  0.80137546319E+02  0.17770000000E+01 0. -1.
        -16    1    5    5    0    0  0.19266190960E+03 -0.35228452310E+03 -0.22930065118E+03  0.46238705135E+03  0.00000000000E+00 0.  1.
          4    1    6    6  502    0  0.27979386110E+03 -0.19152234719E+03  0.20702137634E+03  0.39726976281E+03  0.00000000000E+00 0. -1.
         -3    1    6    6    0  502  0.97351951525E+02 -0.14962493712E+02  0.45238012762E+02  0.10838706788E+03  0.00000000000E+00 0.  1.
<mgrwt>
<rscale>  0 0.88930467E+03</rscale>
<asrwt>0</asrwt>
<pdfrwt beam="1">  1        1 0.10435965E+00 0.88930467E+03</pdfrwt>
<pdfrwt beam="2">  1       -2 0.26689081E+00 0.88930467E+03</pdfrwt>
<totfact> 0.12915242E+00</totfact>
</mgrwt>
</event>
<event>
12    3  0.1182097E-007  0.4047821E+03  0.7818608E-02  0.1042136E+00
         -4   -1    0    0    0  501 -0.00000000000E+00  0.00000000000E+00  0.21059277612E+03  0.21059277612E+03  0.00000000000E+00 0.  1.
          3   -1    0    0  501    0  0.00000000000E+00 -0.00000000000E+00 -0.93178687004E+03  0.93178687004E+03  0.00000000000E+00 0. -1.
        -24    2    1    2    0    0 -0.17436169188E+03 -0.52962945476E+02 -0.37972207974E+03  0.42849966998E+03  0.78841842596E+02 0.  0.
    5000000    2    1    2    0    0  0.17436169188E+03  0.52962945476E+02 -0.34147201418E+03  0.71387997618E+03  0.59984532234E+03 0.  0.
        -24    2    4    4    0    0 -0.66425676641E+02  0.27225700561E+03 -0.15158375067E+03  0.32857288327E+03  0.80288595261E+02 0.  0.
         24    2    4    4    0    0  0.24078736853E+03 -0.21929406014E+03 -0.18988826351E+03  0.38530709291E+03  0.79596240959E+02 0.  0.
         13    1    3    3    0    0 -0.15916128738E+02 -0.30566624375E+02 -0.10569164683E+03  0.11116818740E+03  0.00000000000E+00 0. -1.
        -14    1    3    3    0    0 -0.15844556315E+03 -0.22396321101E+02 -0.27403043291E+03  0.31733148259E+03  0.00000000000E+00 0.  1.
         15    1    5    5    0    0 -0.13740505235E+02  0.58326626127E+02  0.20327376250E+01  0.59984052470E+02  0.17770000000E+01 0. -1.
        -16    1    5    5    0    0 -0.52685171405E+02  0.21393037949E+03 -0.15361648829E+03  0.26858883080E+03  0.00000000000E+00 0.  1.
          2    1    6    6  502    0  0.11160834990E+03 -0.51146021338E+02 -0.59999655407E+02  0.13664661692E+03  0.00000000000E+00 0. -1.
         -1    1    6    6    0  502  0.12917901862E+03 -0.16814803880E+03 -0.12988860810E+03  0.24866047599E+03  0.00000000000E+00 0.  1.
<mgrwt>
<rscale>  0 0.40478211E+03</rscale>
<asrwt>0</asrwt>
<pdfrwt beam="1">  1        3 0.14335182E+00 0.40478211E+03</pdfrwt>
<pdfrwt beam="2">  1       -4 0.32398889E-01 0.40478211E+03</pdfrwt>
<totfact> 0.75918156E+00</totfact>
</mgrwt>
</event>
<event>
12    3  0.1182097E-007  0.5277505E+03  0.7818608E-02  0.1006779E+00
         -4   -1    0    0    0  501 -0.00000000000E+00  0.00000000000E+00  0.49277989300E+03  0.49277989300E+03  0.00000000000E+00 0.  1.
          1   -1    0    0  501    0  0.00000000000E+00 -0.00000000000E+00 -0.96039155927E+03  0.96039155927E+03  0.00000000000E+00 0. -1.
        -24    2    1    2    0    0  0.36311514617E+03  0.36372471320E+03 -0.40746449665E+03  0.66079272127E+03  0.80445186802E+02 0.  0.
    5000000    2    1    2    0    0 -0.36311514617E+03 -0.36372471320E+03 -0.60147169620E+02  0.79237873100E+03  0.60008174023E+03 0.  0.
        -24    2    4    4    0    0 -0.13365029215E+03 -0.16819537073E+03  0.25921105355E+03  0.34629324351E+03  0.81095973351E+02 0.  0.
         24    2    4    4    0    0 -0.22946485402E+03 -0.19552934248E+03 -0.31935822317E+03  0.44608548749E+03  0.78209618639E+02 0.  0.
         13    1    3    3    0    0  0.95720873258E+02  0.11024135661E+03 -0.73238455354E+02  0.16333864707E+03  0.00000000000E+00 0. -1.
        -14    1    3    3    0    0  0.26739427291E+03  0.25348335659E+03 -0.33422604130E+03  0.49745407420E+03  0.00000000000E+00 0.  1.
         15    1    5    5    0    0 -0.86445363850E+02 -0.15976205177E+03  0.20339552644E+03  0.27270792439E+03  0.17770000000E+01 0. -1.
        -16    1    5    5    0    0 -0.47204928304E+02 -0.84333189561E+01  0.55815527105E+02  0.73585319126E+02  0.00000000000E+00 0.  1.
          2    1    6    6  502    0 -0.17358887701E+03 -0.18660114167E+03 -0.26004775493E+03  0.36411250890E+03  0.00000000000E+00 0. -1.
         -1    1    6    6    0  502 -0.55875977012E+02 -0.89282008036E+01 -0.59310468239E+02  0.81972978592E+02  0.00000000000E+00 0.  1.
<mgrwt>
<rscale>  0 0.52775047E+03</rscale>
<asrwt>0</asrwt>
<pdfrwt beam="1">  1        1 0.14775255E+00 0.52775047E+03</pdfrwt>
<pdfrwt beam="2">  1       -4 0.75812291E-01 0.52775047E+03</pdfrwt>
<totfact> 0.12583741E+01</totfact>
</mgrwt>
</event>
<event>
12    3  0.1182097E-007  0.1098941E+04  0.7818608E-02  0.9206225E-01
         -2   -1    0    0    0  501 -0.00000000000E+00  0.00000000000E+00  0.12329374502E+04  0.12329374502E+04  0.00000000000E+00 0.  1.
          1   -1    0    0  501    0  0.00000000000E+00 -0.00000000000E+00 -0.99878632571E+03  0.99878632571E+03  0.00000000000E+00 0. -1.
        -24    2    1    2    0    0 -0.10242107630E+04  0.29409761293E+02  0.38867179724E+02  0.10283973219E+04  0.78852856404E+02 0.  0.
    5000000    2    1    2    0    0  0.10242107630E+04 -0.29409761293E+02  0.19528394473E+03  0.12033264540E+04  0.59998842881E+03 0.  0.
        -24    2    4    4    0    0  0.11337757584E+03 -0.21009477294E+03  0.56914609988E+02  0.26112907795E+03  0.89189877229E+02 0.  0.
         24    2    4    4    0    0  0.91083318715E+03  0.18068501165E+03  0.13836933474E+03  0.94219737603E+03  0.79533982430E+02 0.  0.
         13    1    3    3    0    0 -0.45421236987E+03  0.25631800275E+02  0.54392023350E+02  0.45817503024E+03  0.00000000000E+00 0. -1.
        -14    1    3    3    0    0 -0.56999839312E+03  0.37779610174E+01 -0.15524843625E+02  0.57022229167E+03  0.00000000000E+00 0.  1.
         15    1    5    5    0    0  0.55564743308E+02 -0.14605610113E+03 -0.26312972257E+01  0.15630069363E+03  0.17770000000E+01 0. -1.
        -16    1    5    5    0    0  0.57812832531E+02 -0.64038671814E+02  0.59545907214E+02  0.10482838432E+03  0.00000000000E+00 0.  1.
          2    1    6    6  502    0  0.45029402022E+03  0.59843155901E+02  0.39984568668E+02  0.45600951052E+03  0.00000000000E+00 0. -1.
         -1    1    6    6    0  502  0.46053916693E+03  0.12084185575E+03  0.98384766075E+02  0.48618786551E+03  0.00000000000E+00 0.  1.
<mgrwt>
<rscale>  0 0.10989406E+04</rscale>
<asrwt>0</asrwt>
<pdfrwt beam="1">  1        1 0.15365944E+00 0.10989406E+04</pdfrwt>
<pdfrwt beam="2">  1       -2 0.18968268E+00 0.10989406E+04</pdfrwt>
<totfact> 0.20407973E+00</totfact>
</mgrwt>
</event>
<event>
12    3  0.1182097E-007  0.2025968E+04  0.7818608E-02  0.8594575E-01
          1   -1    0    0  501    0  0.00000000000E+00  0.00000000000E+00  0.28360764693E+04  0.28360764693E+04  0.00000000000E+00 0. -1.
         -2   -1    0    0    0  501 -0.00000000000E+00 -0.00000000000E+00 -0.15989084718E+04  0.15989084718E+04  0.00000000000E+00 0.  1.
        -24    2    1    2    0    0  0.15119686674E+04 -0.13397949642E+04  0.63961405953E+02  0.20230447297E+04  0.86712855688E+02 0.  0.
    5000000    2    1    2    0    0 -0.15119686674E+04  0.13397949642E+04  0.11732065916E+04  0.24119402114E+04  0.59995173093E+03 0.  0.
        -24    2    4    4    0    0 -0.12894317806E+04  0.10883389082E+04  0.70416933730E+03  0.18299553217E+04  0.75935025753E+02 0.  0.
         24    2    4    4    0    0 -0.22253688686E+03  0.25145605602E+03  0.46903725433E+03  0.58198488969E+03  0.77185826116E+02 0.  0.
         11    1    3    3    0    0  0.10769436539E+04 -0.95211262510E+03  0.84764716159E+02  0.14399691461E+04  0.00000000000E+00 0. -1.
        -12    1    3    3    0    0  0.43502501358E+03 -0.38768233910E+03 -0.20803310206E+02  0.58307558361E+03  0.00000000000E+00 0.  1.
         15    1    5    5    0    0 -0.40413212326E+03  0.31540408063E+03  0.24530461513E+03  0.56831331065E+03  0.17770000000E+01 0. -1.
        -16    1    5    5    0    0 -0.88529965733E+03  0.77293482755E+03  0.45886472217E+03  0.12616420111E+04  0.00000000000E+00 0.  1.
          2    1    6    6  502    0 -0.23552365076E+02  0.43902247375E+00  0.42117667382E+02  0.48257688994E+02  0.00000000000E+00 0. -1.
         -1    1    6    6    0  502 -0.19898452178E+03  0.25101703355E+03  0.42691958695E+03  0.53372720069E+03  0.00000000000E+00 0.  1.
<mgrwt>
<rscale>  0 0.20259678E+04</rscale>
<asrwt>0</asrwt>
<pdfrwt beam="1">  1        1 0.43631945E+00 0.20259678E+04</pdfrwt>
<pdfrwt beam="2">  1       -2 0.24598592E+00 0.20259678E+04</pdfrwt>
<totfact> 0.41539987E-02</totfact>
</mgrwt>
</event>
<event>
12    3  0.1182097E-007  0.9785228E+03  0.7818608E-02  0.9332419E-01
          1   -1    0    0  501    0  0.00000000000E+00  0.00000000000E+00  0.18550983134E+04  0.18550983134E+04  0.00000000000E+00 0. -1.
         -2   -1    0    0    0  501 -0.00000000000E+00 -0.00000000000E+00 -0.59315318705E+03  0.59315318705E+03  0.00000000000E+00 0.  1.
        -24    2    1    2    0    0 -0.43905851025E+03  0.81821490589E+03  0.28987164817E+03  0.97620367711E+03  0.81853766846E+02 0.  0.
    5000000    2    1    2    0    0  0.43905851025E+03 -0.81821490589E+03  0.97207347815E+03  0.14720478233E+04  0.59979158011E+03 0.  0.
        -24    2    4    4    0    0  0.50616217049E+03 -0.75387892667E+03  0.99264332806E+03  0.13478408441E+04  0.82465662522E+02 0.  0.
         24    2    4    4    0    0 -0.67103660238E+02 -0.64335979216E+02 -0.20569849907E+02  0.12420697917E+03  0.79763622731E+02 0.  0.
         13    1    3    3    0    0 -0.37113253128E+03  0.64774440008E+03  0.25859099068E+03  0.79005155786E+03  0.00000000000E+00 0. -1.
        -14    1    3    3    0    0 -0.67925978972E+02  0.17047050581E+03  0.31280657491E+02  0.18615211925E+03  0.00000000000E+00 0.  1.
         15    1    5    5    0    0  0.30792032458E+03 -0.52261339934E+03  0.63775589750E+03  0.88015648267E+03  0.17770000000E+01 0. -1.
        -16    1    5    5    0    0  0.19824184591E+03 -0.23126552733E+03  0.35488743056E+03  0.46768436147E+03  0.00000000000E+00 0.  1.
          2    1    6    6  502    0 -0.44220576236E+02  0.33727655717E+01  0.11582895333E+02  0.45836648814E+02  0.00000000000E+00 0. -1.
         -1    1    6    6    0  502 -0.22883084002E+02 -0.67708744787E+02 -0.32152745240E+02  0.78370330359E+02  0.00000000000E+00 0.  1.
<mgrwt>
<rscale>  0 0.97852275E+03</rscale>
<asrwt>0</asrwt>
<pdfrwt beam="1">  1        1 0.28539974E+00 0.97852275E+03</pdfrwt>
<pdfrwt beam="2">  1       -2 0.91254338E-01 0.97852275E+03</pdfrwt>
<totfact> 0.33827993E+00</totfact>
</mgrwt>
</event>
<event>
12    3  0.1182097E-007  0.8022060E+03  0.7818608E-02  0.9556830E-01
         -2   -1    0    0    0  501 -0.00000000000E+00  0.00000000000E+00  0.57801102320E+03  0.57801102320E+03  0.00000000000E+00 0.  1.
          1   -1    0    0  501    0  0.00000000000E+00 -0.00000000000E+00 -0.12961669742E+04  0.12961669742E+04  0.00000000000E+00 0. -1.
        -24    2    1    2    0    0  0.14789564728E+03  0.69491100432E+03 -0.29263835188E+02  0.71703785013E+03  0.92263102413E+02 0.  0.
    5000000    2    1    2    0    0 -0.14789564728E+03 -0.69491100432E+03 -0.68889211584E+03  0.11571401473E+04  0.59968870827E+03 0.  0.
        -24    2    4    4    0    0 -0.15690472233E+03 -0.78196640292E+03 -0.53775443999E+03  0.96505631107E+03  0.77867185718E+02 0.  0.
         24    2    4    4    0    0  0.90090750494E+01  0.87055398600E+02 -0.15113767585E+03  0.19208383624E+03  0.79961223252E+02 0.  0.
         13    1    3    3    0    0  0.91140968464E+02  0.29534089028E+03  0.23725884746E+02  0.30999328252E+03  0.00000000000E+00 0. -1.
        -14    1    3    3    0    0  0.56754678814E+02  0.39957011404E+03 -0.52989719934E+02  0.40704456761E+03  0.00000000000E+00 0.  1.
         15    1    5    5    0    0 -0.13487455180E+03 -0.49652451342E+03 -0.32851809870E+03  0.61045477806E+03  0.17770000000E+01 0. -1.
        -16    1    5    5    0    0 -0.22030170529E+02 -0.28544188950E+03 -0.20923634129E+03  0.35460153301E+03  0.00000000000E+00 0.  1.
          2    1    6    6  502    0 -0.30483577603E+01  0.69906771714E+02 -0.43430739826E+02  0.82355803550E+02  0.00000000000E+00 0. -1.
         -1    1    6    6    0  502  0.12057432810E+02  0.17148626886E+02 -0.10770693602E+03  0.10972803269E+03  0.00000000000E+00 0.  1.
<mgrwt>
<rscale>  0 0.80220597E+03</rscale>
<asrwt>0</asrwt>
<pdfrwt beam="1">  1        1 0.19941030E+00 0.80220597E+03</pdfrwt>
<pdfrwt beam="2">  1       -2 0.88924774E-01 0.80220597E+03</pdfrwt>
<totfact> 0.88675908E+00</totfact>
</mgrwt>
</event>
<event>
12    3  0.1182097E-007  0.9580569E+03  0.7818608E-02  0.9355783E-01
         -2   -1    0    0    0  501 -0.00000000000E+00  0.00000000000E+00  0.23699182151E+04  0.23699182151E+04  0.00000000000E+00 0.  1.
          1   -1    0    0  501    0  0.00000000000E+00 -0.00000000000E+00 -0.76606574854E+03  0.76606574854E+03  0.00000000000E+00 0. -1.
        -24    2    1    2    0    0  0.71304907899E+03 -0.63456334583E+03  0.17533075537E+04  0.19986329030E+04  0.96625431392E+02 0.  0.
    5000000    2    1    2    0    0 -0.71304907899E+03  0.63456334583E+03 -0.14945508712E+03  0.11373510607E+04  0.60010081096E+03 0.  0.
        -24    2    4    4    0    0 -0.63139419750E+03  0.56092715467E+03  0.98942783382E+02  0.85410932686E+03  0.80094708773E+02 0.  0.
         24    2    4    4    0    0 -0.81654881495E+02  0.73636191160E+02 -0.24839787050E+03  0.28324173385E+03  0.80215767790E+02 0.  0.
         13    1    3    3    0    0  0.45433237415E+03 -0.42761529737E+03  0.10541415751E+04  0.12249437576E+04  0.00000000000E+00 0. -1.
        -14    1    3    3    0    0  0.25871670484E+03 -0.20694804846E+03  0.69916597860E+03  0.77368914543E+03  0.00000000000E+00 0.  1.
         15    1    5    5    0    0 -0.44717246700E+03  0.43564280646E+03  0.93444433310E+02  0.63125501178E+03  0.17770000000E+01 0. -1.
        -16    1    5    5    0    0 -0.18422173050E+03  0.12528434821E+03  0.54983500719E+01  0.22285431508E+03  0.00000000000E+00 0.  1.
          4    1    6    6  502    0 -0.46684888309E+02  0.60573423196E+02 -0.79675934422E+02  0.11043945364E+03  0.00000000000E+00 0. -1.
         -3    1    6    6    0  502 -0.34969993185E+02  0.13062767964E+02 -0.16872193608E+03  0.17280228021E+03  0.00000000000E+00 0.  1.
<mgrwt>
<rscale>  0 0.95805688E+03</rscale>
<asrwt>0</asrwt>
<pdfrwt beam="1">  1        1 0.11785627E+00 0.95805688E+03</pdfrwt>
<pdfrwt beam="2">  1       -2 0.36460280E+00 0.95805688E+03</pdfrwt>
<totfact> 0.26754879E-01</totfact>
</mgrwt>
</event>
<event>
12    3  0.1253188E-007  0.8154460E+03  0.7818608E-02  0.9537925E-01
         -2   -1    0    0    0  501 -0.00000000000E+00  0.00000000000E+00  0.44969034990E+03  0.44969034990E+03  0.00000000000E+00 0.  1.
          1   -1    0    0  501    0  0.00000000000E+00 -0.00000000000E+00 -0.20856644449E+04  0.20856644449E+04  0.00000000000E+00 0. -1.
        -24    2    1    2    0    0 -0.59859527779E+03 -0.51498306489E+03 -0.25147999477E+03  0.83228357269E+03  0.77005804124E+02 0.  0.
    5000000    2    1    2    0    0  0.59859527779E+03  0.51498306489E+03 -0.13844941002E+04  0.17030712221E+04  0.60008650233E+03 0.  0.
        -24    2    4    4    0    0  0.55976883258E+03  0.36428286329E+03 -0.60711948256E+03  0.90629947506E+03  0.82106771787E+02 0.  0.
         24    2    4    4    0    0  0.38826445213E+02  0.15070020160E+03 -0.77737461764E+03  0.79677174702E+03  0.79472492671E+02 0.  0.
         13    1    3    3    0    0 -0.31659563693E+03 -0.28742622937E+03 -0.17446862726E+03  0.46182890398E+03  0.00000000000E+00 0. -1.
        -14    1    3    3    0    0 -0.28199964087E+03 -0.22755683552E+03 -0.77011367517E+02  0.37045466871E+03  0.00000000000E+00 0.  1.
         15    1    5    5    0    0  0.40376790872E+03  0.29934344821E+03 -0.42949436425E+03  0.66113810263E+03  0.17770000000E+01 0. -1.
        -16    1    5    5    0    0  0.15600092386E+03  0.64939415078E+02 -0.17762511831E+03  0.24516137243E+03  0.00000000000E+00 0.  1.
          2    1    6    6  502    0 -0.14389340874E+02  0.77452752469E+02 -0.26507866771E+03  0.27653694522E+03  0.00000000000E+00 0. -1.
         -1    1    6    6    0  502  0.53215786086E+02  0.73247449133E+02 -0.51229594993E+03  0.52023480181E+03  0.00000000000E+00 0.  1.
<mgrwt>
<rscale>  0 0.81544602E+03</rscale>
<asrwt>0</asrwt>
<pdfrwt beam="1">  1        1 0.32087146E+00 0.81544602E+03</pdfrwt>
<pdfrwt beam="2">  1       -2 0.69183130E-01 0.81544602E+03</pdfrwt>
<totfact> 0.45158659E+00</totfact>
</mgrwt>
</event>
<event>
12    3  0.1182097E-007  0.7708089E+03  0.7818608E-02  0.9603259E-01
          1   -1    0    0  501    0  0.00000000000E+00  0.00000000000E+00  0.11114331659E+04  0.11114331659E+04  0.00000000000E+00 0. -1.
         -2   -1    0    0    0  501 -0.00000000000E+00 -0.00000000000E+00 -0.61326669615E+03  0.61326669615E+03  0.00000000000E+00 0.  1.
        -24    2    1    2    0    0  0.34468214212E+03  0.55857873441E+03 -0.76749123231E+02  0.66572432052E+03  0.80513734153E+02 0.  0.
    5000000    2    1    2    0    0 -0.34468214212E+03 -0.55857873441E+03  0.57491559301E+03  0.10589755416E+04  0.60007105987E+03 0.  0.
        -24    2    4    4    0    0 -0.18770273246E+03  0.84014790137E+02  0.17341074537E+03  0.28110690495E+03  0.81602724631E+02 0.  0.
         24    2    4    4    0    0 -0.15697940966E+03 -0.64259352455E+03  0.40150484764E+03  0.77786863660E+03  0.79400883408E+02 0.  0.
         13    1    3    3    0    0  0.22649699542E+03  0.42402789742E+03 -0.36095787854E+02  0.48208241269E+03  0.00000000000E+00 0. -1.
        -14    1    3    3    0    0  0.11818514669E+03  0.13455083699E+03 -0.40653335376E+02  0.18364190783E+03  0.00000000000E+00 0.  1.
         15    1    5    5    0    0 -0.19306925062E+03  0.86736350189E+02  0.17526676619E+03  0.27480998351E+03  0.17770000000E+01 0. -1.
        -16    1    5    5    0    0  0.53665181612E+01 -0.27215600520E+01 -0.18560208211E+01  0.62969214367E+01  0.00000000000E+00 0.  1.
          2    1    6    6  502    0 -0.15218292840E+03 -0.52976241225E+03  0.35572623494E+03  0.65600991712E+03  0.00000000000E+00 0. -1.
         -1    1    6    6    0  502 -0.47964812615E+01 -0.11283111229E+03  0.45778612699E+02  0.12185871949E+03  0.00000000000E+00 0.  1.
<mgrwt>
<rscale>  0 0.77080885E+03</rscale>
<asrwt>0</asrwt>
<pdfrwt beam="1">  1        1 0.17098972E+00 0.77080885E+03</pdfrwt>
<pdfrwt beam="2">  1       -2 0.94348723E-01 0.77080885E+03</pdfrwt>
<totfact> 0.10562410E+01</totfact>
</mgrwt>
</event>
<event>
12    3  0.1182097E-007  0.1375658E+04  0.7818608E-02  0.8971630E-01
         -2   -1    0    0    0  501 -0.00000000000E+00  0.00000000000E+00  0.98826692930E+03  0.98826692930E+03  0.00000000000E+00 0.  1.
          1   -1    0    0  501    0  0.00000000000E+00 -0.00000000000E+00 -0.36567925916E+04  0.36567925916E+04  0.00000000000E+00 0. -1.
        -24    2    1    2    0    0  0.16365584700E+03 -0.13541536765E+04 -0.28335759636E+04  0.31458093194E+04  0.80300166328E+02 0.  0.
    5000000    2    1    2    0    0 -0.16365584700E+03  0.13541536765E+04  0.16505030124E+03  0.14992502015E+04  0.59999512414E+03 0.  0.
        -24    2    4    4    0    0  0.95208754664E+01  0.85873104300E+03 -0.15972590074E+03  0.87690604526E+03  0.77085650854E+02 0.  0.
         24    2    4    4    0    0 -0.17317672247E+03  0.49542263353E+03  0.32477620198E+03  0.62234415629E+03  0.79993152683E+02 0.  0.
         13    1    3    3    0    0  0.58662548895E+02 -0.30787086707E+03 -0.71257591492E+03  0.77845372371E+03  0.00000000000E+00 0. -1.
        -14    1    3    3    0    0  0.10499329810E+03 -0.10462828095E+04 -0.21210000486E+04  0.23673555957E+04  0.00000000000E+00 0.  1.
         15    1    5    5    0    0  0.25657227272E+02  0.66948050166E+03 -0.15093448216E+03  0.68676547019E+03  0.17770000000E+01 0. -1.
        -16    1    5    5    0    0 -0.16136351805E+02  0.18925054133E+03 -0.87914185790E+01  0.19014057506E+03  0.00000000000E+00 0.  1.
          4    1    6    6  502    0 -0.15264306291E+03  0.46755157604E+03  0.32144965993E+03  0.58756639181E+03  0.00000000000E+00 0. -1.
         -3    1    6    6    0  502 -0.20533659552E+02  0.27871057490E+02  0.33265420485E+01  0.34777764480E+02  0.00000000000E+00 0.  1.
<mgrwt>
<rscale>  0 0.13756576E+04</rscale>
<asrwt>0</asrwt>
<pdfrwt beam="1">  1        1 0.56258347E+00 0.13756576E+04</pdfrwt>
<pdfrwt beam="2">  1       -2 0.15204107E+00 0.13756576E+04</pdfrwt>
<totfact> 0.46081234E-02</totfact>
</mgrwt>
</event>
<event>
12    3  0.1182097E-007  0.3289242E+03  0.7818608E-02  0.1071614E+00
         -2   -1    0    0    0  501 -0.00000000000E+00  0.00000000000E+00  0.25507930369E+03  0.25507930369E+03  0.00000000000E+00 0.  1.
          1   -1    0    0  501    0  0.00000000000E+00 -0.00000000000E+00 -0.86492854500E+03  0.86492854500E+03  0.00000000000E+00 0. -1.
        -24    2    1    2    0    0  0.86258044857E+02  0.70158064632E+02  0.11068851453E+03  0.17575102921E+03  0.79207781703E+02 0.  0.
    5000000    2    1    2    0    0 -0.86258044857E+02 -0.70158064632E+02 -0.72053775584E+03  0.94425681949E+03  0.60006972863E+03 0.  0.
        -24    2    4    4    0    0 -0.74448212185E+02 -0.30171365811E+03 -0.22897255617E+03  0.39488106764E+03  0.83240364686E+02 0.  0.
         24    2    4    4    0    0 -0.11809832672E+02  0.23155559348E+03 -0.49156519967E+03  0.54937575184E+03  0.80124316940E+02 0.  0.
         13    1    3    3    0    0  0.52555173181E+02  0.30837785259E+02  0.89474324265E+01  0.61587919065E+02  0.00000000000E+00 0. -1.
        -14    1    3    3    0    0  0.33702871677E+02  0.39320279373E+02  0.10174108210E+03  0.11416311014E+03  0.00000000000E+00 0.  1.
         15    1    5    5    0    0 -0.65180691076E+02 -0.23725285467E+03 -0.13530447756E+03  0.28079868040E+03  0.17770000000E+01 0. -1.
        -16    1    5    5    0    0 -0.92675211088E+01 -0.64460803446E+02 -0.93668078612E+02  0.11408238724E+03  0.00000000000E+00 0.  1.
          2    1    6    6  502    0 -0.12044954366E+02  0.23258501781E+03 -0.44031448747E+03  0.49811416293E+03  0.00000000000E+00 0. -1.
         -1    1    6    6    0  502  0.23512169383E+00 -0.10294243307E+01 -0.51250712202E+02  0.51261588913E+02  0.00000000000E+00 0.  1.
<mgrwt>
<rscale>  0 0.32892422E+03</rscale>
<asrwt>0</asrwt>
<pdfrwt beam="1">  1        1 0.13306593E+00 0.32892422E+03</pdfrwt>
<pdfrwt beam="2">  1       -2 0.39242969E-01 0.32892422E+03</pdfrwt>
<totfact> 0.11092284E+02</totfact>
</mgrwt>
</event>
<event>
12    3  0.1182097E-007  0.3996474E+03  0.7818608E-02  0.1043902E+00
          3   -1    0    0  501    0  0.00000000000E+00  0.00000000000E+00  0.24153986821E+04  0.24153986821E+04  0.00000000000E+00 0. -1.
         -4   -1    0    0    0  501 -0.00000000000E+00 -0.00000000000E+00 -0.72866278060E+02  0.72866278060E+02  0.00000000000E+00 0.  1.
        -24    2    1    2    0    0  0.10241934769E+03 -0.16152516971E+03  0.66405786642E+03  0.69557513881E+03  0.79194826536E+02 0.  0.
    5000000    2    1    2    0    0 -0.10241934769E+03  0.16152516971E+03  0.16784745376E+04  0.17926898213E+04  0.59989992405E+03 0.  0.
        -24    2    4    4    0    0  0.59608815544E+02  0.35208520935E+03  0.93910063421E+03  0.10079573485E+04  0.80937071990E+02 0.  0.
         24    2    4    4    0    0 -0.16202816324E+03 -0.19056003963E+03  0.73937390337E+03  0.78473247284E+03  0.81024876148E+02 0.  0.
         13    1    3    3    0    0  0.61546674347E+02 -0.10263005710E+03  0.53220948718E+03  0.54549780933E+03  0.00000000000E+00 0. -1.
        -14    1    3    3    0    0  0.40872673346E+02 -0.58895112610E+02  0.13184837924E+03  0.15007732948E+03  0.00000000000E+00 0.  1.
         15    1    5    5    0    0  0.16325164287E+02  0.80101023451E+02  0.32146404608E+03  0.33170012903E+03  0.17770000000E+01 0. -1.
        -16    1    5    5    0    0  0.43283651257E+02  0.27198418590E+03  0.61763658813E+03  0.67625721944E+03  0.00000000000E+00 0.  1.
          4    1    6    6  502    0 -0.57208944552E+01 -0.13011513372E+02  0.13451179795E+03  0.13526068128E+03  0.00000000000E+00 0. -1.
         -3    1    6    6    0  502 -0.15630726878E+03 -0.17754852626E+03  0.60486210543E+03  0.64947179156E+03  0.00000000000E+00 0.  1.
<mgrwt>
<rscale>  0 0.39964738E+03</rscale>
<asrwt>0</asrwt>
<pdfrwt beam="1">  1        3 0.37159974E+00 0.39964738E+03</pdfrwt>
<pdfrwt beam="2">  1       -4 0.11210198E-01 0.39964738E+03</pdfrwt>
<totfact> 0.24853853E+00</totfact>
</mgrwt>
</event>
<event>
12    3  0.1182097E-007  0.4922229E+03  0.7818608E-02  0.1015829E+00
          3   -1    0    0  501    0  0.00000000000E+00  0.00000000000E+00  0.40155691620E+03  0.40155691620E+03  0.00000000000E+00 0. -1.
         -4   -1    0    0    0  501 -0.00000000000E+00 -0.00000000000E+00 -0.99750775844E+03  0.99750775844E+03  0.00000000000E+00 0.  1.
        -24    2    1    2    0    0 -0.22909907025E+03  0.32307355918E+03  0.79850468564E+02  0.41235342843E+03  0.82439941602E+02 0.  0.
    5000000    2    1    2    0    0  0.22909907025E+03 -0.32307355918E+03 -0.67580131080E+03  0.98671124621E+03  0.60002396875E+03 0.  0.
        -24    2    4    4    0    0  0.14934315312E+03 -0.42756367701E+03 -0.69336881404E+03  0.83200727161E+03  0.79760343793E+02 0.  0.
         24    2    4    4    0    0  0.79755917132E+02  0.10449011782E+03  0.17567503244E+02  0.15470397460E+03  0.79658719215E+02 0.  0.
         13    1    3    3    0    0 -0.13193871863E+03  0.17845145330E+03  0.30550246628E+01  0.22195062477E+03  0.00000000000E+00 0. -1.
        -14    1    3    3    0    0 -0.97160351620E+02  0.14462210589E+03  0.76795443901E+02  0.19040280366E+03  0.00000000000E+00 0.  1.
         15    1    5    5    0    0  0.11723309623E+03 -0.26290405229E+03 -0.49079930782E+03  0.56898968168E+03  0.17770000000E+01 0. -1.
        -16    1    5    5    0    0  0.32110056892E+02 -0.16465962471E+03 -0.20256950622E+03  0.26301758993E+03  0.00000000000E+00 0.  1.
          2    1    6    6  502    0  0.20661436799E+02  0.15459114605E+02  0.37976763570E+02  0.45914200050E+02  0.00000000000E+00 0. -1.
         -1    1    6    6    0  502  0.59094480333E+02  0.89031003216E+02 -0.20409260327E+02  0.10878977455E+03  0.00000000000E+00 0.  1.
<mgrwt>
<rscale>  0 0.49222295E+03</rscale>
<asrwt>0</asrwt>
<pdfrwt beam="1">  1        3 0.61777987E-01 0.49222295E+03</pdfrwt>
<pdfrwt beam="2">  1       -4 0.15346273E+00 0.49222295E+03</pdfrwt>
<totfact> 0.16253758E+00</totfact>
</mgrwt>
</event>
<event>
12    3  0.1182097E-007  0.2417117E+04  0.7818608E-02  0.8433123E-01
         -2   -1    0    0    0  501 -0.00000000000E+00  0.00000000000E+00  0.23981463193E+04  0.23981463193E+04  0.00000000000E+00 0.  1.
          1   -1    0    0  501    0  0.00000000000E+00 -0.00000000000E+00 -0.26013430650E+04  0.26013430650E+04  0.00000000000E+00 0. -1.
        -24    2    1    2    0    0  0.18736040916E+04 -0.15087789987E+04  0.41969941197E+03  0.24431427905E+04  0.77412786260E+02 0.  0.
    5000000    2    1    2    0    0 -0.18736040916E+04  0.15087789987E+04 -0.62289615772E+03  0.25563465937E+04  0.60008493153E+03 0.  0.
        -24    2    4    4    0    0 -0.70450961472E+03  0.76992176402E+03 -0.51177591575E+03  0.11667995172E+04  0.10194707181E+03 0.  0.
         24    2    4    4    0    0 -0.11690944769E+04  0.73885723465E+03 -0.11112024197E+03  0.13895470765E+04  0.76167319950E+02 0.  0.
         11    1    3    3    0    0  0.54908856601E+03 -0.39896570079E+03  0.12749005654E+03  0.69059800046E+03  0.00000000000E+00 0. -1.
        -12    1    3    3    0    0  0.13245155256E+04 -0.11098132979E+04  0.29220935543E+03  0.17525447901E+04  0.00000000000E+00 0.  1.
         15    1    5    5    0    0 -0.49925137965E+03  0.52202358364E+03 -0.30389131309E+03  0.78365403710E+03  0.17770000000E+01 0. -1.
        -16    1    5    5    0    0 -0.20525823507E+03  0.24789818038E+03 -0.20788460265E+03  0.38314548010E+03  0.00000000000E+00 0.  1.
          4    1    6    6  502    0 -0.48741196260E+03  0.32528450797E+03 -0.81904900095E+02  0.59168306134E+03  0.00000000000E+00 0. -1.
         -3    1    6    6    0  502 -0.68168251430E+03  0.41357272667E+03 -0.29215341873E+02  0.79786401520E+03  0.00000000000E+00 0.  1.
<mgrwt>
<rscale>  0 0.24171169E+04</rscale>
<asrwt>0</asrwt>
<pdfrwt beam="1">  1        1 0.40020663E+00 0.24171169E+04</pdfrwt>
<pdfrwt beam="2">  1       -2 0.36894559E+00 0.24171169E+04</pdfrwt>
<totfact> 0.10076953E-02</totfact>
</mgrwt>
</event>
<event>
12    3  0.1182097E-007  0.4036186E+03  0.7818608E-02  0.1042534E+00
          1   -1    0    0  501    0  0.00000000000E+00  0.00000000000E+00  0.19283636271E+04  0.19283636271E+04  0.00000000000E+00 0. -1.
         -2   -1    0    0    0  501 -0.00000000000E+00 -0.00000000000E+00 -0.95637330738E+02  0.95637330738E+02  0.00000000000E+00 0.  1.
        -24    2    1    2    0    0 -0.18886829306E+03 -0.44464067322E+02  0.65674029306E+03  0.68960055842E+03  0.81196257545E+02 0.  0.
    5000000    2    1    2    0    0  0.18886829306E+03  0.44464067322E+02  0.11759860033E+04  0.13344003994E+04  0.60002754987E+03 0.  0.
        -24    2    4    4    0    0  0.34856086586E+03  0.18203932583E+03  0.84191512571E+03  0.93237356561E+03  0.76592385971E+02 0.  0.
         24    2    4    4    0    0 -0.15969257281E+03 -0.13757525851E+03  0.33407087762E+03  0.40202683384E+03  0.74790068106E+02 0.  0.
         11    1    3    3    0    0 -0.99272994232E+02 -0.40269431064E+02  0.47501633933E+03  0.48694689350E+03  0.00000000000E+00 0. -1.
        -12    1    3    3    0    0 -0.89595298825E+02 -0.41946362577E+01  0.18172395373E+03  0.20265366492E+03  0.00000000000E+00 0.  1.
         15    1    5    5    0    0  0.18582624658E+03  0.62682357597E+02  0.46893316343E+03  0.50829316478E+03  0.17770000000E+01 0. -1.
        -16    1    5    5    0    0  0.16273461929E+03  0.11935696823E+03  0.37298196228E+03  0.42408040083E+03  0.00000000000E+00 0.  1.
          2    1    6    6  502    0 -0.92442935739E+02 -0.61966580955E+02  0.23688970587E+03  0.26172941422E+03  0.00000000000E+00 0. -1.
         -1    1    6    6    0  502 -0.67249637067E+02 -0.75608677552E+02  0.97181171752E+02  0.14029741961E+03  0.00000000000E+00 0.  1.
<mgrwt>
<rscale>  0 0.40361858E+03</rscale>
<asrwt>0</asrwt>
<pdfrwt beam="1">  1        1 0.29667130E+00 0.40361858E+03</pdfrwt>
<pdfrwt beam="2">  1       -2 0.14713437E-01 0.40361858E+03</pdfrwt>
<totfact> 0.11397050E+02</totfact>
</mgrwt>
</event>
<event>
12    3  0.1182097E-007  0.1096780E+04  0.7818608E-02  0.9208336E-01
          1   -1    0    0  501    0  0.00000000000E+00  0.00000000000E+00  0.12444416554E+04  0.12444416554E+04  0.00000000000E+00 0. -1.
         -2   -1    0    0    0  501 -0.00000000000E+00 -0.00000000000E+00 -0.13699017655E+04  0.13699017655E+04  0.00000000000E+00 0.  1.
        -24    2    1    2    0    0  0.90823641076E+03  0.46953923292E+03 -0.75365444561E+03  0.12729028370E+04  0.83223434577E+02 0.  0.
    5000000    2    1    2    0    0 -0.90823641076E+03 -0.46953923292E+03  0.62819433549E+03  0.13414405839E+04  0.59956171306E+03 0.  0.
        -24    2    4    4    0    0 -0.29173790269E+03 -0.46262822532E+03  0.20548044814E+03  0.58967531944E+03  0.79742642627E+02 0.  0.
         24    2    4    4    0    0 -0.61649850807E+03 -0.69110075979E+01  0.42271388735E+03  0.75176526441E+03  0.79660590886E+02 0.  0.
         13    1    3    3    0    0  0.50534830569E+03  0.22658859403E+03 -0.44187313812E+03  0.70849923868E+03  0.00000000000E+00 0. -1.
        -14    1    3    3    0    0  0.40288810507E+03  0.24295063889E+03 -0.31178130749E+03  0.56440359836E+03  0.00000000000E+00 0.  1.
         15    1    5    5    0    0 -0.13489671442E+03 -0.18078362806E+03  0.47502814991E+02  0.23052010519E+03  0.17770000000E+01 0. -1.
        -16    1    5    5    0    0 -0.15684118827E+03 -0.28184459727E+03  0.15797763315E+03  0.35915521425E+03  0.00000000000E+00 0.  1.
          2    1    6    6  502    0 -0.45032103953E+03  0.28564299906E+02  0.29328525989E+03  0.53816466025E+03  0.00000000000E+00 0. -1.
         -1    1    6    6    0  502 -0.16617746854E+03 -0.35475307504E+02  0.12942862746E+03  0.21360060416E+03  0.00000000000E+00 0.  1.
<mgrwt>
<rscale>  0 0.10967802E+04</rscale>
<asrwt>0</asrwt>
<pdfrwt beam="1">  1        1 0.19145256E+00 0.10967802E+04</pdfrwt>
<pdfrwt beam="2">  1       -2 0.21075412E+00 0.10967802E+04</pdfrwt>
<totfact> 0.97113470E-01</totfact>
</mgrwt>
</event>
<event>
12    3  0.1182097E-007  0.3107573E+03  0.7818608E-02  0.1079983E+00
          1   -1    0    0  501    0  0.00000000000E+00  0.00000000000E+00  0.99127770797E+03  0.99127770797E+03  0.00000000000E+00 0. -1.
         -2   -1    0    0    0  501 -0.00000000000E+00 -0.00000000000E+00 -0.24900928728E+03  0.24900928728E+03  0.00000000000E+00 0.  1.
        -24    2    1    2    0    0  0.26182982802E+03 -0.73375658798E+02  0.57687159693E+02  0.29029896372E+03  0.83706832463E+02 0.  0.
    5000000    2    1    2    0    0 -0.26182982802E+03  0.73375658798E+02  0.68458126100E+03  0.94998803152E+03  0.59990575174E+03 0.  0.
        -24    2    4    4    0    0 -0.40894356647E+02  0.68713417908E+02 -0.86715759507E+02  0.14365666314E+03  0.81998364074E+02 0.  0.
         24    2    4    4    0    0 -0.22093547137E+03  0.46622408904E+01  0.77129702051E+03  0.80633136838E+03  0.80230684860E+02 0.  0.
         11    1    3    3    0    0  0.13241474234E+03 -0.21581561164E+02  0.68213194579E+02  0.15050736754E+03  0.00000000000E+00 0. -1.
        -12    1    3    3    0    0  0.12941508568E+03 -0.51794097634E+02 -0.10526034887E+02  0.13979159618E+03  0.00000000000E+00 0.  1.
         15    1    5    5    0    0 -0.55660433310E+02  0.15676479887E+02 -0.32349977614E+02  0.66283592529E+02  0.17770000000E+01 0. -1.
        -16    1    5    5    0    0  0.14766076663E+02  0.53036938021E+02 -0.54365781893E+02  0.77373070609E+02  0.00000000000E+00 0.  1.
          4    1    6    6  502    0 -0.18364579035E+03 -0.27641762168E+02  0.61591808648E+03  0.64330780547E+03  0.00000000000E+00 0. -1.
         -3    1    6    6    0  502 -0.37289681027E+02  0.32304003058E+02  0.15537893402E+03  0.16302356291E+03  0.00000000000E+00 0.  1.
<mgrwt>
<rscale>  0 0.31075734E+03</rscale>
<asrwt>0</asrwt>
<pdfrwt beam="1">  1        1 0.15250426E+00 0.31075734E+03</pdfrwt>
<pdfrwt beam="2">  1       -2 0.38309122E-01 0.31075734E+03</pdfrwt>
<totfact> 0.92798880E+01</totfact>
</mgrwt>
</event>
